Title
81371
    1CHL1    C3    1   1.869   3.854  10.240 -0.2106  0.4339  0.1108
    1CHL1    H3    2   1.781   3.912  10.205  0.8932  2.0987 -0.0282
    1CHL1    O3    3   1.874   3.832  10.384 -0.4973 -0.0573 -0.1759
    1CHL1   H3'    4   1.886   3.737  10.395  0.4041  0.1504  0.6878
    1CHL1    C4    5   1.864   3.721  10.166  0.1652  0.0299 -0.2460
    1CHL1   H4A    6   1.953   3.663  10.197  0.5853  0.5113 -0.5299
    1CHL1   H4B    7   1.769   3.670  10.192  0.0259 -0.2447 -1.2335
    1CHL1    C5    8   1.879   3.746  10.016 -0.3819 -0.4288 -0.2018
    1CHL1    C6    9   1.785   3.700   9.935  0.2993 -0.4499 -0.3914
    1CHL1    H6   10   1.702   3.643   9.980 -0.8167  1.5533  0.2330
    1CHL1    C7   11   1.786   3.717   9.788  0.1528 -0.1688 -0.0935
    1CHL1   H7A   12   1.754   3.627   9.731 -0.2318  1.2324 -2.2076
    1CHL1   H7B   13   1.714   3.796   9.760  2.3011  1.4386 -1.3614
    1CHL1    C8   14   1.924   3.767   9.728  0.0822 -0.0888  0.2590
    1CHL1    H8   15   1.993   3.680   9.731  0.1420 -0.1593 -1.6159
    1CHL1   C14   16   1.897   3.815   9.588 -0.2203  0.5296  0.4633
    1CHL1   H14   17   1.849   3.916   9.590 -0.2716  0.5481 -0.9395
    1CHL1   C15   18   1.818   3.723   9.487 -0.5038  0.0264 -0.6686
    1CHL1  H15A   19   1.836   3.614   9.500 -0.7323 -0.0046 -0.5874
    1CHL1  H15B   20   1.709   3.740   9.501 -0.2683  0.4789  0.7546
    1CHL1   C16   21   1.859   3.765   9.355  0.0173 -0.2897 -0.6368
    1CHL1  H16A   22   1.912   3.684   9.300  1.0028  0.1480 -0.3712
    1CHL1  H16B   23   1.775   3.797   9.290  0.1180  2.3213  0.4121
    1CHL1   C17   24   1.976   3.869   9.376 -0.7754  0.0790 -0.2234
    1CHL1   H17   25   1.932   3.970   9.379  4.4535  2.6828  0.0144
    1CHL1   C13   26   2.033   3.846   9.511  0.4239 -0.2548 -0.9734
    1CHL1   C18   27   2.133   3.722   9.507 -0.2748 -0.5076  0.5915
    1CHL1  H18A   28   2.169   3.700   9.610 -0.4717 -1.5774  0.4435
    1CHL1  H18B   29   2.076   3.632   9.475 -2.2981 -0.0454  2.6113
    1CHL1  H18C   30   2.222   3.745   9.445 -1.7001  1.2989 -0.9230
    1CHL1   C12   31   2.088   3.965   9.589 -0.0146 -0.8556  0.5823
    1CHL1  H12A   32   2.188   3.996   9.551  0.7736  0.8821  3.7302
    1CHL1  H12B   33   2.027   4.058   9.592  0.7311 -0.3729  0.9198
    1CHL1   C11   34   2.099   3.926   9.739 -1.2606  0.5261 -0.1214
    1CHL1  H11A   35   2.183   3.854   9.742 -1.1605  0.6403 -0.1311
    1CHL1  H11B   36   2.136   4.016   9.794 -0.7845  0.2205  0.0653
    1CHL1    C9   37   1.977   3.876   9.810  0.1344  0.0869  0.2311
    1CHL1    H9   38   1.898   3.954   9.814 -0.0414 -0.1489  2.1630
    1CHL1   C10   39   1.995   3.836   9.961  0.0917  0.0221 -0.2038
    1CHL1   C19   40   2.126   3.762   9.981  0.6863 -0.2059 -0.0749
    1CHL1  H19A   41   2.146   3.743  10.089  1.9919 -0.8472 -0.4110
    1CHL1  H19B   42   2.110   3.662   9.937  1.4155 -1.5678  2.5264
    1CHL1  H19C   43   2.221   3.809   9.946  0.5384  0.6894  0.6700
    1CHL1    C1   44   1.989   3.962  10.043 -0.7567  0.0339 -0.4506
    1CHL1   H1A   45   2.073   4.032  10.022 -0.8662  1.0967  2.2413
    1CHL1   H1B   46   1.894   4.016  10.021 -1.4094 -0.9196 -0.0410
    1CHL1    C2   47   1.986   3.938  10.198  0.3066 -1.1027 -0.5081
    1CHL1   H2A   48   1.969   4.038  10.244 -2.6531 -2.5614  1.8778
    1CHL1   H2B   49   2.085   3.896  10.225  1.9248  2.2804 -0.5619
    1CHL1   C20   50   2.070   3.868   9.253  0.1827 -0.1902 -0.2850
    1CHL1   H20   51   2.106   3.763   9.252 -0.2378 -0.3643 -2.0729
    1CHL1   C21   52   2.190   3.960   9.274 -0.7628 -0.0702 -0.1921
    1CHL1  H21A   53   2.240   3.948   9.373  0.5087  0.1355 -0.7830
    1CHL1  H21B   54   2.165   4.068   9.278 -0.4445  0.0129 -0.3618
    1CHL1  H21C   55   2.275   3.948   9.202 -0.1128  2.2235  0.1249
    1CHL1   C22   56   2.013   3.901   9.114  0.4036  0.0090  0.2075
    1CHL1  H22A   57   2.095   3.900   9.039 -1.6567 -0.4543 -2.1546
    1CHL1  H22B   58   1.938   3.826   9.080 -0.5776  1.2849 -0.5097
    1CHL1   C23   59   1.928   4.023   9.103  0.2070  0.3942  0.0190
    1CHL1  H23A   60   1.854   4.017   9.186  0.3294  0.0382  0.1038
    1CHL1  H23B   61   1.977   4.120   9.123  0.1336  0.2371  0.9918
    1CHL1   C24   62   1.852   4.043   8.971 -0.1198 -0.4474  0.1374
    1CHL1  H24A   63   1.791   3.952   8.954 -3.2403  1.6265 -0.3965
    1CHL1  H24B   64   1.790   4.133   8.990 -0.9064 -1.2709  1.7091
    1CHL1   C25   65   1.950   4.055   8.855 -0.0777 -0.0405  0.2975
    1CHL1   H25   66   2.013   3.964   8.857  1.9351  1.2270 -1.2636
    1CHL1   C26   67   1.885   4.068   8.715 -0.1100 -0.4815 -0.2656
    1CHL1  H26A   68   1.815   3.984   8.693  0.6274 -1.6098  1.4706
    1CHL1  H26B   69   1.840   4.169   8.707  0.1335 -0.1701  1.6844
    1CHL1  H26C   70   1.963   4.077   8.637 -0.4679  0.0492 -0.5718
    1CHL1   C27   71   2.051   4.171   8.873 -0.2415  0.8232  0.0149
    1CHL1  H27A   72   2.117   4.186   8.961  0.4495  1.7973 -0.6436
    1CHL1  H27B   73   2.126   4.166   8.791  2.6819 -0.3833  2.5672
    1CHL1  H27C   74   2.003   4.271   8.864  2.1914  2.0843  0.1065
    2CHL1    C3   75   2.863   1.859  10.128  0.6812  0.0840 -0.3401
    2CHL1    H3   76   2.945   1.934  10.127 -1.9929  3.2396 -1.8594
    2CHL1    O3   77   2.822   1.861  10.263  0.0617 -0.2852 -0.1343
    2CHL1   H3'   78   2.750   1.799  10.274 -0.6577  0.6377  0.5313
    2CHL1    C4   79   2.754   1.907  10.036 -0.3851  0.0856  0.5278
    2CHL1   H4A   80   2.668   1.841  10.058 -0.6511  0.5730  0.9667
    2CHL1   H4B   81   2.724   2.009  10.068 -2.5411 -0.7165  1.2128
    2CHL1    C5   82   2.783   1.899   9.885 -0.1955  0.2755  0.0304
    2CHL1    C6   83   2.776   2.006   9.806 -0.1101 -1.0757  0.8356
    2CHL1    H6   84   2.732   2.099   9.842  0.0940  0.1820 -1.8794
    2CHL1    C7   85   2.816   2.014   9.661  0.0117 -0.6796 -0.0708
    2CHL1   H7A   86   2.758   2.089   9.603  2.0034 -1.0524 -2.7131
    2CHL1   H7B   87   2.919   2.054   9.653  1.0878 -2.9693  1.3670
    2CHL1    C8   88   2.809   1.869   9.600 -0.2726 -0.2012  0.4810
    2CHL1    H8   89   2.702   1.838   9.592 -0.3608  0.2183 -0.0029
    2CHL1   C14   90   2.870   1.850   9.464  0.2468 -0.5865  0.3648
    2CHL1   H14   91   2.974   1.876   9.491  0.3085  0.7318 -0.9875
    2CHL1   C15   92   2.828   1.957   9.355 -0.0982  0.3549 -0.1646
    2CHL1  H15A   93   2.720   1.984   9.363 -0.0520  0.2959  0.8988
    2CHL1  H15B   94   2.897   2.043   9.366 -0.2126  0.4165  0.0940
    2CHL1   C16   95   2.862   1.887   9.225  0.6279  0.3969  0.5588
    2CHL1  H16A   96   2.771   1.886   9.161  1.7234 -1.9771 -1.0907
    2CHL1  H16B   97   2.937   1.945   9.167  1.0258  0.6699  1.3332
    2CHL1   C17   98   2.929   1.755   9.263 -0.1905  0.5751  0.3718
    2CHL1   H17   99   3.037   1.776   9.272 -0.2987  1.6618 -0.7200
    2CHL1   C13  100   2.871   1.715   9.398  0.0629 -0.6048  0.3757
    2CHL1   C18  101   2.723   1.663   9.393  0.3889  0.7668 -0.3350
    2CHL1  H18A  102   2.720   1.559   9.354  1.4858  0.3933  0.5194
    2CHL1  H18B  103   2.666   1.656   9.487 -0.9962 -1.3011 -1.2555
    2CHL1  H18C  104   2.671   1.724   9.316 -3.1727 -0.9451  0.5452
    2CHL1   C12  105   2.955   1.624   9.487 -0.1119 -0.0782 -0.2501
    2CHL1  H12A  106   2.955   1.517   9.457 -0.0413 -0.3704  0.7571
    2CHL1  H12B  107   3.058   1.664   9.485 -0.0393 -0.2787 -1.6943
    2CHL1   C11  108   2.897   1.628   9.632 -0.5295 -0.6056 -0.2531
    2CHL1  H11A  109   2.801   1.572   9.629 -0.4330 -0.9668  1.8979
    2CHL1  H11B  110   2.969   1.566   9.689  0.7081  1.4145  0.4881
    2CHL1    C9  111   2.883   1.768   9.691  0.2172  0.7025 -0.6074
    2CHL1    H9  112   2.988   1.803   9.695 -0.1619  1.7714  1.5402
    2CHL1   C10  113   2.838   1.760   9.838  0.3990 -0.1589 -0.3177
    2CHL1   C19  114   2.717   1.662   9.856  0.6174  0.0429  0.6659
    2CHL1  H19A  115   2.746   1.554   9.857  0.4882  0.0045  0.4120
    2CHL1  H19B  116   2.670   1.681   9.955  1.2855  0.4408  0.9099
    2CHL1  H19C  117   2.640   1.679   9.777 -0.2067 -3.0046  0.6601
    2CHL1    C1  118   2.948   1.721   9.940  0.1660 -0.7844  0.4462
    2CHL1   H1A  119   2.990   1.621   9.914 -1.7266 -2.2546  2.6337
    2CHL1   H1B  120   3.035   1.788   9.920  0.1090 -1.2338 -1.5733
    2CHL1    C2  121   2.911   1.724  10.088  0.1200  0.2014 -0.2001
    2CHL1   H2A  122   2.998   1.699  10.152  0.0452  0.9258  0.1936
    2CHL1   H2B  123   2.828   1.651  10.102  0.5255 -0.3609 -0.7049
    2CHL1   C20  124   2.917   1.650   9.143 -0.4453  0.0693 -0.6379
    2CHL1   H20  125   2.814   1.614   9.122 -1.0373  0.2387  1.6724
    2CHL1   C21  126   3.003   1.524   9.175  0.5516 -0.0745 -0.0628
    2CHL1  H21A  127   3.016   1.458   9.087  1.4071 -0.0568  0.0449
    2CHL1  H21B  128   2.956   1.465   9.257  1.9181 -1.0863  0.0370
    2CHL1  H21C  129   3.100   1.562   9.213 -0.3828  0.2748  2.1076
    2CHL1   C22  130   2.982   1.715   9.018  0.2670  0.4531  0.0865
    2CHL1  H22A  131   2.924   1.806   8.994 -1.3832 -0.7370 -0.6131
    2CHL1  H22B  132   3.090   1.733   9.039  0.1694 -0.1722  1.2135
    2CHL1   C23  133   2.974   1.637   8.883 -0.5980 -0.5937  0.3404
    2CHL1  H23A  134   3.046   1.553   8.876 -1.4196 -1.3060  0.2920
    2CHL1  H23B  135   2.877   1.582   8.883 -1.0208  0.0700 -1.4177
    2CHL1   C24  136   2.979   1.731   8.761 -0.6456  0.4156  0.5016
    2CHL1  H24A  137   2.914   1.821   8.767  0.0737  1.2367 -2.2928
    2CHL1  H24B  138   3.083   1.771   8.762 -1.1055  1.6777  0.3248
    2CHL1   C25  139   2.977   1.660   8.621  0.1658  0.8652  0.0232
    2CHL1   H25  140   3.037   1.569   8.641  0.0511  0.6624 -0.5355
    2CHL1   C26  141   2.834   1.609   8.584 -0.2626  0.0507 -0.0027
    2CHL1  H26A  142   2.811   1.589   8.477  1.5612  1.2174 -0.6723
    2CHL1  H26B  143   2.806   1.521   8.646  0.2895 -1.2503 -1.5101
    2CHL1  H26C  144   2.764   1.692   8.607  0.2364  0.8147 -1.1362
    2CHL1   C27  145   3.052   1.726   8.504 -0.4818 -0.4521  0.2448
    2CHL1  H27A  146   3.004   1.823   8.479  0.2419 -0.1167  0.1404
    2CHL1  H27B  147   3.159   1.740   8.532 -0.1343 -0.5360 -1.0037
    2CHL1  H27C  148   3.039   1.665   8.412 -2.9441  0.7388 -0.2756
    3CHL1    C3  149   3.425   1.279  10.060 -0.5089  0.2796 -0.2036
    3CHL1    H3  150   3.533   1.272  10.036 -0.5510  1.5239 -0.8294
    3CHL1    O3  151   3.431   1.316  10.197 -0.2363  0.5330  0.3225
    3CHL1   H3'  152   3.342   1.343  10.223 -1.2339 -0.9936 -1.2598
    3CHL1    C4  153   3.358   1.385   9.970  0.2054  0.3891  0.4067
    3CHL1   H4A  154   3.252   1.376  10.000  0.4754  2.3612  2.2644
    3CHL1   H4B  155   3.391   1.489   9.994  1.2746  0.2372 -0.3278
    3CHL1    C5  156   3.363   1.344   9.826 -0.6017  0.0699  0.0246
    3CHL1    C6  157   3.422   1.421   9.734  0.3957 -0.4415 -0.0895
    3CHL1    H6  158   3.459   1.518   9.771  1.7993 -2.3447  4.1108
    3CHL1    C7  159   3.426   1.405   9.585  0.5616  0.3695  0.2259
    3CHL1   H7A  160   3.384   1.497   9.539  0.0511 -0.3347 -0.7599
    3CHL1   H7B  161   3.531   1.396   9.549 -0.2217 -0.3174 -2.0872
    3CHL1    C8  162   3.351   1.280   9.539  0.1713 -0.8438  0.4813
    3CHL1    H8  163   3.245   1.310   9.525  0.4952 -0.3854 -1.2214
    3CHL1   C14  164   3.397   1.233   9.407  0.3041  0.7184  0.1735
    3CHL1   H14  165   3.503   1.200   9.418  0.2291 -0.6021 -2.3670
    3CHL1   C15  166   3.399   1.328   9.283 -0.6357  0.5166  0.2507
    3CHL1  H15A  167   3.309   1.393   9.284 -0.1679  1.1938 -0.5038
    3CHL1  H15B  168   3.479   1.403   9.302  1.4889 -0.8718 -2.5920
    3CHL1   C16  169   3.405   1.240   9.164  0.6076 -0.1833 -0.2233
    3CHL1  H16A  170   3.325   1.269   9.093  0.5074  1.4030  0.4773
    3CHL1  H16B  171   3.498   1.246   9.105  0.7575  1.3148  0.1077
    3CHL1   C17  172   3.389   1.095   9.212 -0.9056  0.0960 -0.5310
    3CHL1   H17  173   3.493   1.063   9.234 -1.1060 -0.0807  0.1689
    3CHL1   C13  174   3.318   1.107   9.347  0.5379  0.5097  0.3754
    3CHL1   C18  175   3.171   1.140   9.330 -0.2497  0.5339 -0.3095
    3CHL1  H18A  176   3.110   1.056   9.292  0.8400 -0.3574 -0.1535
    3CHL1  H18B  177   3.122   1.171   9.425 -1.5224 -3.3705  0.4550
    3CHL1  H18C  178   3.170   1.225   9.258  1.0672  0.5438 -0.3514
    3CHL1   C12  179   3.330   0.990   9.445  0.2415  0.6432 -0.6622
    3CHL1  H12A  180   3.273   0.898   9.420  2.4799 -1.6479  2.0540
    3CHL1  H12B  181   3.436   0.957   9.437 -0.5275 -2.5649  0.7351
    3CHL1   C11  182   3.300   1.030   9.586  0.2517 -0.4698 -0.3219
    3CHL1  H11A  183   3.190   1.042   9.595  0.1072  0.3000 -2.4564
    3CHL1  H11B  184   3.321   0.949   9.659 -0.6015 -0.4979 -0.1025
    3CHL1    C9  185   3.366   1.163   9.643 -0.0039  0.0448  0.7540
    3CHL1    H9  186   3.474   1.142   9.652  0.3942  0.1324 -2.5806
    3CHL1   C10  187   3.311   1.209   9.784 -0.1365 -0.4216 -0.0549
    3CHL1   C19  188   3.152   1.213   9.792 -0.1353 -0.2083  0.1629
    3CHL1  H19A  189   3.117   1.293   9.724 -0.0904  0.2680  0.6927
    3CHL1  H19B  190   3.101   1.116   9.774 -1.5405  0.7077 -0.9804
    3CHL1  H19C  191   3.132   1.250   9.895  1.1639  0.2382  0.2745
    3CHL1    C1  192   3.356   1.102   9.890 -0.2115  0.3524 -0.2353
    3CHL1   H1A  193   3.311   1.002   9.876  0.0409 -0.1647  2.2618
    3CHL1   H1B  194   3.463   1.089   9.865  0.0715  1.2981  0.4045
    3CHL1    C2  195   3.350   1.146  10.040 -0.1979 -0.1665 -0.0449
    3CHL1   H2A  196   3.407   1.068  10.094 -0.0072  1.1898  1.8346
    3CHL1   H2B  197   3.245   1.145  10.074  0.3649 -2.6172  1.8302
    3CHL1   C20  198   3.335   0.995   9.110  0.1789 -0.4527 -0.2298
    3CHL1   H20  199   3.225   0.985   9.118  0.2985 -0.8334  1.1978
    3CHL1   C21  200   3.386   0.856   9.161  0.7488  0.3223  0.3753
    3CHL1  H21A  201   3.380   0.767   9.094  3.7208  0.6988 -0.5098
    3CHL1  H21B  202   3.314   0.824   9.240  1.3286  2.2190  1.7285
    3CHL1  H21C  203   3.490   0.866   9.198  1.3040  0.5327 -1.1553
    3CHL1   C22  204   3.387   1.023   8.963 -0.4635  0.1121  0.4941
    3CHL1  H22A  205   3.387   1.131   8.935  3.0041  0.3109  0.8613
    3CHL1  H22B  206   3.490   0.983   8.962 -0.2117  0.7398 -0.1147
    3CHL1   C23  207   3.323   0.940   8.847  0.4711 -0.0486 -0.3681
    3CHL1  H23A  208   3.314   0.836   8.886  0.2765  0.0010 -0.2765
    3CHL1  H23B  209   3.216   0.971   8.835 -0.1113 -1.0743  1.6094
    3CHL1   C24  210   3.389   0.933   8.708  0.7646  0.9454 -0.6208
    3CHL1  H24A  211   3.395   1.036   8.668  0.2695  1.0748 -0.3631
    3CHL1  H24B  212   3.491   0.891   8.715  0.1377 -0.4837  0.5877
    3CHL1   C25  213   3.306   0.866   8.601 -0.2606  0.6871  0.0093
    3CHL1   H25  214   3.199   0.893   8.617 -0.5343 -0.7604  0.7119
    3CHL1   C26  215   3.343   0.921   8.460 -0.0074 -0.3541 -0.5385
    3CHL1  H26A  216   3.446   0.887   8.437  0.1674 -0.5123  0.4467
    3CHL1  H26B  217   3.271   0.890   8.381  1.0420 -1.8348 -0.9543
    3CHL1  H26C  218   3.349   1.032   8.461  0.0832 -0.3642  1.0133
    3CHL1   C27  219   3.323   0.714   8.606  0.3735  0.1334  0.2860
    3CHL1  H27A  220   3.270   0.670   8.519 -1.9218  3.4294 -0.1850
    3CHL1  H27B  221   3.422   0.667   8.592  0.3545  0.5915 -1.5857
    3CHL1  H27C  222   3.287   0.678   8.705  1.3710  2.3952  1.5640
    4CHL1    C3  223   1.714   4.246  10.280 -0.4145  0.9746  0.4917
    4CHL1    H3  224   1.761   4.146  10.265 -1.5707  0.5225 -0.2326
    4CHL1    O3  225   1.724   4.286  10.416  0.1708  0.1559  0.4208
    4CHL1   H3'  226   1.684   4.373  10.410 -0.7123 -0.0564  2.4390
    4CHL1    C4  227   1.781   4.358  10.191 -0.2823  0.2233  1.2512
    4CHL1   H4A  228   1.757   4.465  10.213 -1.9731  0.7574 -2.4613
    4CHL1   H4B  229   1.891   4.363  10.208  0.6165 -1.3355 -2.9732
    4CHL1    C5  230   1.768   4.333  10.036 -0.8615 -0.0071 -0.0436
    4CHL1    C6  231   1.875   4.309   9.959  0.4428 -0.3834  0.6115
    4CHL1    H6  232   1.978   4.301   9.998 -0.1451 -1.2641  2.0932
    4CHL1    C7  233   1.868   4.283   9.808 -0.0722 -0.2153  0.5193
    4CHL1   H7A  234   1.926   4.355   9.745  1.3457 -1.0148  0.8525
    4CHL1   H7B  235   1.890   4.177   9.784  1.6799  0.3407 -0.5436
    4CHL1    C8  236   1.724   4.316   9.753 -0.0690 -0.1326  0.1188
    4CHL1    H8  237   1.725   4.426   9.763  1.9482 -0.1630  0.7125
    4CHL1   C14  238   1.706   4.260   9.611  0.1650 -0.1078  0.7313
    4CHL1   H14  239   1.706   4.150   9.619  1.5704 -0.0423  2.2590
    4CHL1   C15  240   1.816   4.286   9.512  0.2783 -0.0271 -0.2689
    4CHL1  H15A  241   1.851   4.390   9.525 -0.4406  0.0909  0.8150
    4CHL1  H15B  242   1.910   4.227   9.522  0.6501  0.5755 -0.1858
    4CHL1   C16  243   1.742   4.271   9.377 -0.2897 -0.6290  0.0989
    4CHL1  H16A  244   1.772   4.357   9.314  2.2593 -2.0805 -0.8450
    4CHL1  H16B  245   1.780   4.176   9.333  1.3862  0.2804 -0.5000
    4CHL1   C17  246   1.593   4.257   9.402 -0.4955  0.3036  0.4165
    4CHL1   H17  247   1.564   4.150   9.396 -0.7384  0.4287 -0.7569
    4CHL1   C13  248   1.574   4.299   9.552 -0.2048 -0.4593  0.5472
    4CHL1   C18  249   1.559   4.455   9.540  0.1238  0.7153 -0.1261
    4CHL1  H18A  250   1.456   4.486   9.511  0.3430 -0.4571 -2.4011
    4CHL1  H18B  251   1.584   4.502   9.637  2.2993 -0.2218 -0.1739
    4CHL1  H18C  252   1.627   4.500   9.464 -0.3382  1.0933 -0.3211
    4CHL1   C12  253   1.462   4.235   9.632 -0.7207 -0.7592 -0.0266
    4CHL1  H12A  254   1.368   4.275   9.588  0.0053 -0.1109 -1.0284
    4CHL1  H12B  255   1.462   4.125   9.617 -3.0815 -0.7505 -0.4401
    4CHL1   C11  256   1.468   4.270   9.777  1.0016 -0.1532  0.7916
    4CHL1  H11A  257   1.423   4.372   9.777 -0.1955 -0.5424 -2.9658
    4CHL1  H11B  258   1.407   4.200   9.838 -0.9794  1.6450  0.9952
    4CHL1    C9  259   1.606   4.261   9.842  0.0460 -0.3644  0.0163
    4CHL1    H9  260   1.617   4.152   9.859 -2.2258 -0.5847  0.3843
    4CHL1   C10  261   1.616   4.316   9.992 -0.0710 -0.9783  0.1079
    4CHL1   C19  262   1.545   4.452   9.993  0.5048 -0.2163  0.1441
    4CHL1  H19A  263   1.562   4.496  10.094  0.2165  1.0671 -0.3555
    4CHL1  H19B  264   1.580   4.524   9.916 -2.3121  0.7611 -0.3200
    4CHL1  H19C  265   1.435   4.447   9.980  0.5181  1.0563 -0.6063
    4CHL1    C1  266   1.549   4.214  10.092 -0.0030 -0.8836 -0.6766
    4CHL1   H1A  267   1.443   4.220  10.059 -0.0042 -0.5981 -0.6250
    4CHL1   H1B  268   1.594   4.113  10.086 -1.5461 -1.6223 -0.4521
    4CHL1    C2  269   1.572   4.250  10.245  0.6192 -0.0478 -0.5851
    4CHL1   H2A  270   1.513   4.172  10.298 -1.9554  2.8807  1.2698
    4CHL1   H2B  271   1.524   4.350  10.257  0.3710 -0.0239 -1.6395
    4CHL1   C20  272   1.503   4.320   9.291  1.2356 -0.1372  0.1585
    4CHL1   H20  273   1.528   4.428   9.281 -3.0886  0.9506 -0.7832
    4CHL1   C21  274   1.353   4.305   9.318  0.5804 -0.2260  0.2515
    4CHL1  H21A  275   1.300   4.374   9.249 -1.5243 -0.0924  1.8899
    4CHL1  H21B  276   1.321   4.348   9.415  3.1029 -0.2715  1.1821
    4CHL1  H21C  277   1.323   4.198   9.318 -0.0584 -0.1977 -3.4159
    4CHL1   C22  278   1.533   4.262   9.151 -0.5393 -0.3855 -0.1135
    4CHL1  H22A  279   1.642   4.245   9.136 -0.6272  0.1302 -1.4068
    4CHL1  H22B  280   1.488   4.161   9.138  1.3531 -1.2157 -0.6412
    4CHL1   C23  281   1.481   4.349   9.036 -0.0746  0.3437 -0.0410
    4CHL1  H23A  282   1.371   4.361   9.050  0.0572 -0.1744  1.6588
    4CHL1  H23B  283   1.525   4.451   9.039 -0.8059  0.6582  0.2985
    4CHL1   C24  284   1.517   4.308   8.894 -0.2585  0.4839 -0.1401
    4CHL1  H24A  285   1.473   4.387   8.828 -4.2476  0.1095  1.7524
    4CHL1  H24B  286   1.626   4.311   8.877 -0.3238  0.0938 -0.6885
    4CHL1   C25  287   1.465   4.174   8.847  0.1465  0.4752 -0.2123
    4CHL1   H25  288   1.522   4.093   8.898  0.3006 -0.2893 -1.5503
    4CHL1   C26  289   1.310   4.170   8.864  0.0508  0.6300  0.3359
    4CHL1  H26A  290   1.257   4.228   8.785  0.0959 -1.7252 -1.5684
    4CHL1  H26B  291   1.281   4.064   8.845  0.3224  0.5932  0.1156
    4CHL1  H26C  292   1.260   4.196   8.959  0.7025  1.4272  0.4707
    4CHL1   C27  293   1.494   4.148   8.701 -0.2956  0.0325  0.5022
    4CHL1  H27A  294   1.603   4.145   8.678 -0.5935  1.1257 -1.2234
    4CHL1  H27B  295   1.445   4.054   8.668 -1.1008  1.1013 -1.4966
    4CHL1  H27C  296   1.448   4.214   8.624 -1.6914 -1.7666 -0.2791
    5CHL1    C3  297   4.854   2.483  10.285 -0.6245 -0.1153  0.4467
    5CHL1    H3  298   4.934   2.559  10.279  0.6639 -1.4904 -1.1777
    5CHL1    O3  299   4.827   2.457  10.421  0.3968 -0.0610 -0.6733
    5CHL1   H3'  300   4.765   2.384  10.423  1.5961 -1.1128  0.2700
    5CHL1    C4  301   4.726   2.539  10.221  0.5722 -0.1954 -0.3816
    5CHL1   H4A  302   4.649   2.471  10.264  2.3292 -2.5104 -0.7632
    5CHL1   H4B  303   4.698   2.638  10.264 -0.7896 -0.4883 -0.5451
    5CHL1    C5  304   4.718   2.546  10.068 -0.4059  0.4172  0.1114
    5CHL1    C6  305   4.678   2.663  10.011 -0.1462  0.4875 -0.2941
    5CHL1    H6  306   4.638   2.744  10.073  0.5347 -1.1454  2.4795
    5CHL1    C7  307   4.671   2.677   9.862 -0.1773 -0.1919 -0.1643
    5CHL1   H7A  308   4.571   2.715   9.834 -0.3805  1.1301  2.1573
    5CHL1   H7B  309   4.750   2.750   9.833 -1.7906  1.0674 -1.6200
    5CHL1    C8  310   4.702   2.546   9.777 -0.5144 -0.0329  0.9464
    5CHL1    H8  311   4.603   2.497   9.768 -1.1717  1.5007 -1.0099
    5CHL1   C14  312   4.728   2.580   9.633 -0.5957  0.0071  0.2234
    5CHL1   H14  313   4.832   2.619   9.637 -0.6166  0.0312  0.5819
    5CHL1   C15  314   4.650   2.687   9.549  0.4135 -0.4148  0.3289
    5CHL1  H15A  315   4.544   2.656   9.559  0.2138  0.4573  1.0347
    5CHL1  H15B  316   4.671   2.795   9.567  0.9050 -0.5556  0.6032
    5CHL1   C16  317   4.699   2.655   9.406  0.0773  0.0511 -0.3670
    5CHL1  H16A  318   4.598   2.651   9.358  1.2430 -0.6536 -2.9768
    5CHL1  H16B  319   4.744   2.740   9.351 -0.9988  0.2491 -0.9907
    5CHL1   C17  320   4.775   2.520   9.409  0.1781  0.7955  0.6657
    5CHL1   H17  321   4.885   2.536   9.409  0.6735 -2.0611  0.6239
    5CHL1   C13  322   4.739   2.453   9.546 -0.4971  0.0601  0.4562
    5CHL1   C18  323   4.613   2.371   9.529  0.6722 -0.2404 -0.1397
    5CHL1  H18A  324   4.645   2.273   9.488 -0.4516 -2.4824  3.8066
    5CHL1  H18B  325   4.555   2.356   9.623  0.2053  0.8221 -0.2432
    5CHL1  H18C  326   4.536   2.416   9.462  0.6374 -0.5968 -0.3432
    5CHL1   C12  327   4.850   2.365   9.602  0.3396 -0.5743 -0.1184
    5CHL1  H12A  328   4.860   2.268   9.548  0.5094 -0.7172  0.1681
    5CHL1  H12B  329   4.950   2.413   9.602 -0.3042  0.8914 -2.3936
    5CHL1   C11  330   4.835   2.326   9.750  0.1734 -0.3745  0.9855
    5CHL1  H11A  331   4.752   2.253   9.747 -1.8152  1.7367 -1.9907
    5CHL1  H11B  332   4.921   2.268   9.789  0.8279 -0.9630 -1.1535
    5CHL1    C9  333   4.802   2.453   9.838 -0.2932  0.2733 -0.1414
    5CHL1    H9  334   4.891   2.520   9.841 -0.2371  0.1710  0.7049
    5CHL1   C10  335   4.772   2.426   9.988 -0.4590  0.4870  0.1246
    5CHL1   C19  336   4.656   2.320  10.003 -0.2825  0.0514 -0.1313
    5CHL1  H19A  337   4.630   2.298  10.109 -0.8754  0.8300 -0.1048
    5CHL1  H19B  338   4.565   2.357   9.952 -1.6326 -0.0253  2.1238
    5CHL1  H19C  339   4.687   2.219   9.968 -0.8919  0.5482 -2.2358
    5CHL1    C1  340   4.895   2.375  10.064  0.0747 -0.2313 -0.0445
    5CHL1   H1A  341   4.920   2.276  10.019 -2.4663 -1.0851  0.2672
    5CHL1   H1B  342   4.969   2.451  10.031  0.4562 -1.3465 -1.9062
    5CHL1    C2  343   4.889   2.355  10.217 -0.7769  0.0103  0.2045
    5CHL1   H2A  344   4.988   2.330  10.261  1.1718  3.2028 -1.9645
    5CHL1   H2B  345   4.820   2.275  10.253 -2.3914  1.1051 -0.3446
    5CHL1   C20  346   4.749   2.440   9.277  0.4143 -0.4451  0.3371
    5CHL1   H20  347   4.643   2.408   9.282  0.5865 -1.0676  0.0503
    5CHL1   C21  348   4.845   2.324   9.268  0.2184  0.5064  0.4223
    5CHL1  H21A  349   4.949   2.359   9.249  1.6504 -2.2101  2.5659
    5CHL1  H21B  350   4.808   2.255   9.189  0.2314  1.8465 -0.8052
    5CHL1  H21C  351   4.869   2.271   9.362 -1.0297  0.9935  1.0373
    5CHL1   C22  352   4.753   2.528   9.152  0.3619  0.1739  0.6071
    5CHL1  H22A  353   4.689   2.619   9.158 -1.9955 -1.2319 -1.5817
    5CHL1  H22B  354   4.854   2.574   9.155  0.2094  0.8416 -1.9187
    5CHL1   C23  355   4.747   2.452   9.016 -0.4553 -0.3184  0.0119
    5CHL1  H23A  356   4.843   2.397   9.005  1.0584  1.9257  1.3864
    5CHL1  H23B  357   4.657   2.387   9.021  0.0007 -0.9414  0.2057
    5CHL1   C24  358   4.734   2.541   8.893  0.2152 -0.1727  0.3039
    5CHL1  H24A  359   4.630   2.579   8.880  1.2965  1.9046 -4.3469
    5CHL1  H24B  360   4.806   2.625   8.885 -1.8132  1.8383  1.8343
    5CHL1   C25  361   4.746   2.456   8.765  0.1094  0.3936  0.0014
    5CHL1   H25  362   4.812   2.369   8.785  1.0625  1.3196  1.0587
    5CHL1   C26  363   4.621   2.402   8.716  0.0473 -0.5419  0.4808
    5CHL1  H26A  364   4.576   2.334   8.792  3.9969 -1.5483  2.1649
    5CHL1  H26B  365   4.546   2.480   8.691  2.0859  0.4674 -3.2010
    5CHL1  H26C  366   4.642   2.336   8.630  0.7807 -1.8348  1.6084
    5CHL1   C27  367   4.807   2.546   8.655 -0.6544  0.9083  0.7393
    5CHL1  H27A  368   4.823   2.482   8.566 -2.2221  0.1760  0.9599
    5CHL1  H27B  369   4.734   2.628   8.636  0.3570  1.4317 -1.1693
    5CHL1  H27C  370   4.898   2.593   8.698  0.1490 -1.9372  2.4305
    6CHL1    C3  371   1.405   0.470  10.187  0.2615  0.1623 -0.1108
    6CHL1    H3  372   1.416   0.580  10.193 -0.6611  0.1887  1.6076
    6CHL1    O3  373   1.404   0.420  10.318 -0.1809  0.1428 -0.1735
    6CHL1   H3'  374   1.391   0.325  10.309 -1.2661  0.4103 -2.0957
    6CHL1    C4  375   1.275   0.445  10.118  0.3666  0.1319  1.0524
    6CHL1   H4A  376   1.263   0.334  10.125  1.5310 -0.1036 -0.2643
    6CHL1   H4B  377   1.190   0.485  10.178 -0.3899  0.4190 -0.1833
    6CHL1    C5  378   1.277   0.496   9.975 -0.4183  0.0290  0.3410
    6CHL1    C6  379   1.193   0.582   9.927 -0.4201  0.4667  0.1442
    6CHL1    H6  380   1.109   0.611   9.992 -0.8665  0.9090 -0.6161
    6CHL1    C7  381   1.195   0.634   9.785 -0.0748 -0.0049  0.1860
    6CHL1   H7A  382   1.099   0.677   9.747  1.0554  3.0614  0.4798
    6CHL1   H7B  383   1.259   0.725   9.783  0.6570 -0.4938  0.7407
    6CHL1    C8  384   1.263   0.541   9.688  1.3167 -0.4116  0.3311
    6CHL1    H8  385   1.206   0.447   9.675  1.8252 -0.5240 -1.3856
    6CHL1   C14  386   1.294   0.617   9.558 -0.5784 -0.6166 -0.2585
    6CHL1   H14  387   1.346   0.707   9.596 -1.0184 -0.0829 -0.9137
    6CHL1   C15  388   1.178   0.683   9.487 -0.2927  0.5737 -0.6984
    6CHL1  H15A  389   1.091   0.613   9.493  1.1941 -1.2286  1.0587
    6CHL1  H15B  390   1.154   0.774   9.546  0.6880 -0.7798  1.9352
    6CHL1   C16  391   1.228   0.708   9.352  0.1590 -0.0981  0.8436
    6CHL1  H16A  392   1.160   0.657   9.280 -0.3836  1.3475  0.2800
    6CHL1  H16B  393   1.229   0.816   9.327 -1.8471 -0.3142 -0.4162
    6CHL1   C17  394   1.372   0.643   9.340  1.0784 -0.5468 -0.2543
    6CHL1   H17  395   1.430   0.729   9.380 -3.4941  1.5631  2.6319
    6CHL1   C13  396   1.371   0.539   9.460  0.2650 -0.8041 -0.0401
    6CHL1   C18  397   1.291   0.410   9.417 -0.6005 -0.4432  0.2151
    6CHL1  H18A  398   1.347   0.354   9.339 -0.9818 -0.1770 -0.2520
    6CHL1  H18B  399   1.277   0.350   9.509 -0.3894 -1.0637 -0.1509
    6CHL1  H18C  400   1.185   0.433   9.394 -0.4165 -1.0859 -1.4432
    6CHL1   C12  401   1.507   0.502   9.514 -0.6237  0.0259 -0.1179
    6CHL1  H12A  402   1.566   0.443   9.440  1.8569  3.8787 -1.5074
    6CHL1  H12B  403   1.559   0.600   9.522 -2.1833  0.8384  0.6478
    6CHL1   C11  404   1.497   0.434   9.658  0.1762  0.3780 -0.2687
    6CHL1  H11A  405   1.473   0.326   9.643  0.5372  0.2258  0.2147
    6CHL1  H11B  406   1.595   0.441   9.710  1.0895 -0.4268 -1.8055
    6CHL1    C9  407   1.397   0.506   9.747 -0.2406  0.4204 -0.2198
    6CHL1    H9  408   1.450   0.604   9.752  0.6878 -0.0626 -0.3198
    6CHL1   C10  409   1.396   0.440   9.888  0.0702 -0.0739 -0.1623
    6CHL1   C19  410   1.364   0.291   9.875 -0.3040 -0.3702 -0.1969
    6CHL1  H19A  411   1.272   0.279   9.814  0.2084  0.5751 -1.1853
    6CHL1  H19B  412   1.447   0.229   9.837 -1.4607 -1.2357 -1.3806
    6CHL1  H19C  413   1.351   0.244   9.975 -1.3408  0.3475  0.0227
    6CHL1    C1  414   1.524   0.470   9.968  0.3729 -0.2204 -0.2043
    6CHL1   H1A  415   1.603   0.415   9.912  1.4781  2.5579 -1.5447
    6CHL1   H1B  416   1.551   0.577   9.962 -0.2399  0.0745  1.5810
    6CHL1    C2  417   1.527   0.413  10.107  0.3700 -0.3113 -0.3086
    6CHL1   H2A  418   1.620   0.443  10.160  1.0179 -0.5038 -1.3117
    6CHL1   H2B  419   1.538   0.303  10.102 -1.6407 -0.6226  0.9262
    6CHL1   C20  420   1.413   0.615   9.191  0.1689  0.2634  0.0864
    6CHL1   H20  421   1.371   0.516   9.163  0.6540 -0.2153  1.0266
    6CHL1   C21  422   1.560   0.610   9.180  0.1001  0.4092  0.1740
    6CHL1  H21A  423   1.578   0.561   9.082  0.1132 -0.5037  0.6285
    6CHL1  H21B  424   1.610   0.555   9.262 -1.0399  1.6823  1.8015
    6CHL1  H21C  425   1.604   0.712   9.178 -2.5705  1.6549  0.2397
    6CHL1   C22  426   1.358   0.720   9.095  0.4290 -0.4180 -0.1553
    6CHL1  H22A  427   1.248   0.705   9.097  0.3894 -0.0711  0.7446
    6CHL1  H22B  428   1.374   0.824   9.130  1.5011  0.5569 -3.2183
    6CHL1   C23  429   1.396   0.698   8.950 -0.2253  0.1681  0.1144
    6CHL1  H23A  430   1.497   0.740   8.936 -0.1264  0.1046  0.6244
    6CHL1  H23B  431   1.404   0.592   8.916  0.0240  0.2170  0.0251
    6CHL1   C24  432   1.294   0.777   8.861  0.4762  0.4450  0.2966
    6CHL1  H24A  433   1.191   0.750   8.893  0.0726  1.1183 -0.4070
    6CHL1  H24B  434   1.314   0.885   8.879  0.7999  0.9619 -2.6747
    6CHL1   C25  435   1.304   0.760   8.708 -0.6481  0.1347 -0.9020
    6CHL1   H25  436   1.263   0.660   8.682 -0.1637 -0.0970 -0.7938
    6CHL1   C26  437   1.223   0.866   8.630 -0.1006  0.2074 -0.2775
    6CHL1  H26A  438   1.230   0.824   8.528 -1.3014 -3.2429  0.9140
    6CHL1  H26B  439   1.115   0.866   8.656 -0.1043 -1.2845 -0.2103
    6CHL1  H26C  440   1.261   0.971   8.636 -1.6301  0.8628 -1.4103
    6CHL1   C27  441   1.453   0.776   8.665 -0.1837  0.2648  0.0888
    6CHL1  H27A  442   1.450   0.792   8.555  0.6515 -1.5314 -0.2335
    6CHL1  H27B  443   1.506   0.857   8.719 -0.0858 -0.0547  0.4806
    6CHL1  H27C  444   1.505   0.681   8.689 -1.1145 -0.4481 -0.6453
    7CHL1    C3  445   5.155   2.883  10.376 -0.1112 -0.5627 -0.3631
    7CHL1    H3  446   5.264   2.863  10.367  0.2715  1.5919 -1.2575
    7CHL1    O3  447   5.107   2.917  10.507  0.2166  0.4668 -0.1117
    7CHL1   H3'  448   5.098   2.829  10.543 -0.8358  1.1045  1.2623
    7CHL1    C4  449   5.111   2.984  10.273 -0.0071  0.1499 -0.3642
    7CHL1   H4A  450   5.001   2.977  10.259  0.1482 -1.6816 -0.9594
    7CHL1   H4B  451   5.127   3.090  10.304  1.0227  0.3346 -1.4653
    7CHL1    C5  452   5.163   2.960  10.138  0.0027 -0.2641  0.1291
    7CHL1    C6  453   5.238   3.050  10.068  0.0873 -0.1474  0.2107
    7CHL1    H6  454   5.251   3.153  10.107  0.7342  0.0904 -0.6103
    7CHL1    C7  455   5.283   3.033   9.924  0.6575 -0.7746 -0.1013
    7CHL1   H7A  456   5.247   3.123   9.870 -0.3039 -0.4038  1.1162
    7CHL1   H7B  457   5.394   3.032   9.918  0.6126  0.2427 -3.9281
    7CHL1    C8  458   5.219   2.907   9.856 -0.2499 -0.8757 -0.7355
    7CHL1    H8  459   5.114   2.938   9.833 -0.1704  1.6141  1.6917
    7CHL1   C14  460   5.300   2.862   9.737  0.6145 -0.3410  0.0802
    7CHL1   H14  461   5.397   2.824   9.777  1.9207 -1.0584 -3.4030
    7CHL1   C15  462   5.324   2.969   9.635  0.3522 -0.6059  0.6826
    7CHL1  H15A  463   5.243   3.045   9.631  1.0285  0.3315  2.8112
    7CHL1  H15B  464   5.422   3.021   9.645  1.3817 -1.7182 -2.4544
    7CHL1   C16  465   5.339   2.894   9.495 -0.1451 -0.3514 -0.1570
    7CHL1  H16A  466   5.263   2.939   9.427 -0.8195 -3.5283 -1.6774
    7CHL1  H16B  467   5.437   2.924   9.450 -0.6935 -0.8658 -1.7657
    7CHL1   C17  468   5.326   2.743   9.525 -1.1048 -0.1780  0.7785
    7CHL1   H17  469   5.425   2.698   9.547 -1.0634 -2.8869 -3.7357
    7CHL1   C13  470   5.239   2.744   9.660  1.2259  0.1484  0.0377
    7CHL1   C18  471   5.089   2.775   9.626  0.2824  0.1994  0.4805
    7CHL1  H18A  472   5.048   2.685   9.575 -1.8595  1.5650 -0.3426
    7CHL1  H18B  473   5.027   2.794   9.716  1.1168  2.3801  0.6457
    7CHL1  H18C  474   5.087   2.864   9.560  1.8201 -0.1936 -0.1430
    7CHL1   C12  475   5.244   2.620   9.758  0.3351  0.0858 -0.0646
    7CHL1  H12A  476   5.208   2.526   9.711 -0.1157 -0.5444  1.4615
    7CHL1  H12B  477   5.353   2.608   9.778  0.4977  0.7247 -0.5370
    7CHL1   C11  478   5.169   2.653   9.886  0.1088 -0.4614 -0.9879
    7CHL1  H11A  479   5.059   2.644   9.874  0.1661 -1.0585 -1.0700
    7CHL1  H11B  480   5.188   2.576   9.964 -0.3589 -0.6414 -1.0461
    7CHL1    C9  481   5.211   2.789   9.960  0.2724 -0.5839  0.1476
    7CHL1    H9  482   5.316   2.779   9.998  1.5086  1.2249 -2.4908
    7CHL1   C10  483   5.129   2.825  10.085  0.2601 -0.1774 -0.1745
    7CHL1   C19  484   4.974   2.816  10.050 -0.5965 -0.4691 -0.1268
    7CHL1  H19A  485   4.942   2.713  10.021 -0.6131 -1.2348  2.3246
    7CHL1  H19B  486   4.913   2.836  10.141 -1.3081 -2.1707 -0.1958
    7CHL1  H19C  487   4.932   2.893   9.983 -2.9475 -2.5446 -1.2089
    7CHL1    C1  488   5.143   2.716  10.194 -0.1256 -0.7004  0.4323
    7CHL1   H1A  489   5.094   2.620  10.168 -0.2072 -0.3084 -0.9559
    7CHL1   H1B  490   5.252   2.695  10.202 -0.0250 -0.3969 -0.0972
    7CHL1    C2  491   5.093   2.751  10.334 -0.4684 -0.0495  0.1605
    7CHL1   H2A  492   5.129   2.672  10.403  0.3733 -1.5213 -1.8703
    7CHL1   H2B  493   4.982   2.760  10.344 -0.7965 -0.9047 -2.1049
    7CHL1   C20  494   5.279   2.666   9.399 -0.0935 -0.6110  0.1094
    7CHL1   H20  495   5.176   2.699   9.371 -0.2127 -1.9629 -1.1008
    7CHL1   C21  496   5.259   2.516   9.429  0.4136 -0.2131 -0.3572
    7CHL1  H21A  497   5.262   2.453   9.337  1.5589 -0.5337 -0.1175
    7CHL1  H21B  498   5.154   2.497   9.461 -0.0531 -2.4557 -2.8476
    7CHL1  H21C  499   5.341   2.478   9.494  0.5919 -0.7530 -0.8949
    7CHL1   C22  500   5.368   2.695   9.274 -0.2067  0.3479  0.5936
    7CHL1  H22A  501   5.413   2.795   9.255  0.1401  0.0586 -0.1545
    7CHL1  H22B  502   5.461   2.635   9.284  1.3557  2.1041 -1.9280
    7CHL1   C23  503   5.307   2.649   9.135  0.2410  0.5242 -0.6008
    7CHL1  H23A  504   5.383   2.675   9.058  2.3628 -0.5389  1.0364
    7CHL1  H23B  505   5.292   2.539   9.143  0.2036  0.6217  0.9336
    7CHL1   C24  506   5.174   2.714   9.099  0.1554  0.2037  0.3743
    7CHL1  H24A  507   5.095   2.679   9.167 -0.5623  0.3990 -0.3435
    7CHL1  H24B  508   5.170   2.824   9.114 -1.5857  0.0252  1.3621
    7CHL1   C25  509   5.145   2.686   8.945  0.0316  0.5065 -0.0767
    7CHL1   H25  510   5.238   2.710   8.889  0.2850  2.1809  1.0021
    7CHL1   C26  511   5.103   2.541   8.928 -0.7585 -0.2188  0.0336
    7CHL1  H26A  512   5.178   2.465   8.960 -2.1897 -0.8200  2.1417
    7CHL1  H26B  513   5.023   2.516   9.001 -0.7556 -0.0427  0.0979
    7CHL1  H26C  514   5.071   2.522   8.823  0.2063  2.0044 -0.7348
    7CHL1   C27  515   5.040   2.783   8.897 -0.5996  0.3188  0.2372
    7CHL1  H27A  516   4.961   2.796   8.975  0.7134 -0.3047  1.7310
    7CHL1  H27B  517   5.090   2.882   8.886  1.4198 -0.6998 -0.3343
    7CHL1  H27C  518   4.996   2.755   8.799 -0.5737 -0.1218  0.3515
    8CHL1    C3  519   4.139   5.177  10.243  0.3140  0.4502  0.2180
    8CHL1    H3  520   4.239   5.131  10.257  0.0016 -0.4241 -0.3265
    8CHL1    O3  521   4.084   5.212  10.372 -0.5430 -0.6908  0.2513
    8CHL1   H3'  522   3.999   5.251  10.352 -1.8102 -2.5136  1.6953
    8CHL1    C4  523   4.136   5.295  10.138  0.2134 -0.8431  0.0378
    8CHL1   H4A  524   4.030   5.330  10.138  0.3922 -0.1130  2.2847
    8CHL1   H4B  525   4.208   5.373  10.170  1.2528 -1.4597 -0.7604
    8CHL1    C5  526   4.187   5.255  10.000 -0.2059  0.3672  0.3478
    8CHL1    C6  527   4.281   5.326   9.934 -0.1023 -0.7949  0.1136
    8CHL1    H6  528   4.309   5.425   9.974  0.4613  0.2233 -2.5761
    8CHL1    C7  529   4.341   5.286   9.800  0.3879  0.1025 -0.6634
    8CHL1   H7A  530   4.341   5.376   9.734  0.0085 -0.0720 -0.9001
    8CHL1   H7B  531   4.445   5.254   9.824 -0.6451 -1.8608  1.6104
    8CHL1    C8  532   4.256   5.183   9.726  0.3772 -0.3409 -0.3967
    8CHL1    H8  533   4.168   5.235   9.683  1.1091  1.3699  0.0815
    8CHL1   C14  534   4.343   5.108   9.627  0.2431  0.7735 -0.0731
    8CHL1   H14  535   4.410   5.044   9.688 -0.7643  0.3452  0.6071
    8CHL1   C15  536   4.429   5.194   9.535  0.0135 -0.9793 -0.2801
    8CHL1  H15A  537   4.381   5.287   9.497  1.2391  0.3933  1.3783
    8CHL1  H15B  538   4.525   5.222   9.583 -2.5204  2.2490  3.5453
    8CHL1   C16  539   4.462   5.102   9.415 -0.0649  0.2060  0.6112
    8CHL1  H16A  540   4.425   5.156   9.325 -0.1048 -0.8819 -0.0524
    8CHL1  H16B  541   4.570   5.087   9.395 -0.1530 -0.0121  0.2900
    8CHL1   C17  542   4.371   4.976   9.433  0.2365 -0.0868 -0.2871
    8CHL1   H17  543   4.429   4.902   9.491 -0.4132  0.7537  1.5088
    8CHL1   C13  544   4.265   5.014   9.541 -0.0344 -0.1284  0.3818
    8CHL1   C18  545   4.152   5.089   9.460  0.0204  0.3319  0.0433
    8CHL1  H18A  546   4.100   5.011   9.400  0.3822  2.0324 -2.6166
    8CHL1  H18B  547   4.068   5.137   9.516  0.0951  1.9065 -1.1396
    8CHL1  H18C  548   4.187   5.158   9.381  0.7876  0.3700  0.4043
    8CHL1   C12  549   4.202   4.908   9.627  0.1847  0.1956 -0.6976
    8CHL1  H12A  550   4.137   4.833   9.576  0.6013 -0.0015 -0.9437
    8CHL1  H12B  551   4.273   4.847   9.687 -1.7764 -2.8021 -1.2050
    8CHL1   C11  552   4.124   4.969   9.742 -0.0138 -0.3296  0.1727
    8CHL1  H11A  553   4.047   5.030   9.688 -0.6292 -0.5715  0.7605
    8CHL1  H11B  554   4.085   4.891   9.810  2.1683 -1.7487 -0.1397
    8CHL1    C9  555   4.209   5.073   9.822 -0.0561  0.7912  0.4632
    8CHL1    H9  556   4.299   5.018   9.857  1.1071 -1.0273 -4.4820
    8CHL1   C10  557   4.129   5.117   9.944  0.6002 -0.6442  0.0020
    8CHL1   C19  558   3.983   5.154   9.900  0.2769 -0.3550  0.5151
    8CHL1  H19A  559   3.930   5.192   9.990  1.3445 -1.8370  1.8220
    8CHL1  H19B  560   3.987   5.231   9.820 -1.6504 -1.0315 -0.2789
    8CHL1  H19C  561   3.924   5.072   9.855 -1.4870  0.4981  1.1534
    8CHL1    C1  562   4.138   5.012  10.058 -0.0961 -0.0967  0.1718
    8CHL1   H1A  563   4.088   4.920  10.021 -0.6416  0.2056  0.1569
    8CHL1   H1B  564   4.242   4.985  10.087  0.6861  0.6574 -1.7386
    8CHL1    C2  565   4.060   5.056  10.182 -0.1928 -0.2734 -0.1725
    8CHL1   H2A  566   4.065   4.977  10.261 -0.4588 -0.3166 -0.2005
    8CHL1   H2B  567   3.957   5.092  10.164  0.2276  0.2113 -1.7235
    8CHL1   C20  568   4.336   4.916   9.297  0.0346 -0.0776 -0.0941
    8CHL1   H20  569   4.259   4.984   9.255 -1.7130 -1.6418  0.3915
    8CHL1   C21  570   4.263   4.779   9.316  0.5792  0.5913 -0.7586
    8CHL1  H21A  571   4.171   4.795   9.376  1.6960  1.4705  0.7923
    8CHL1  H21B  572   4.337   4.706   9.354 -0.4891 -1.1571 -1.8784
    8CHL1  H21C  573   4.224   4.726   9.226  0.4879 -2.1300  0.7764
    8CHL1   C22  574   4.459   4.894   9.200  0.0169 -0.0214  0.1497
    8CHL1  H22A  575   4.487   4.994   9.160 -1.5394  0.0213 -0.9110
    8CHL1  H22B  576   4.541   4.847   9.260 -0.6796 -1.4883  0.0015
    8CHL1   C23  577   4.421   4.819   9.073 -0.1579  0.7474  0.3486
    8CHL1  H23A  578   4.431   4.712   9.103 -1.9671  0.4285 -0.0807
    8CHL1  H23B  579   4.315   4.845   9.054 -0.7656 -0.3005  2.0227
    8CHL1   C24  580   4.511   4.843   8.954 -0.2030 -0.6531  0.1267
    8CHL1  H24A  581   4.527   4.951   8.939 -0.4477 -0.5585  0.5409
    8CHL1  H24B  582   4.614   4.805   8.970 -0.1288 -1.3008 -1.5931
    8CHL1   C25  583   4.452   4.783   8.831  0.2633 -0.3165  0.1906
    8CHL1   H25  584   4.422   4.679   8.857  0.2057 -0.4314 -0.3165
    8CHL1   C26  585   4.330   4.863   8.780 -0.3247 -0.0705  0.7629
    8CHL1  H26A  586   4.251   4.865   8.859 -1.0281 -2.5563  0.2349
    8CHL1  H26B  587   4.354   4.965   8.745 -0.1005 -1.0133 -2.1289
    8CHL1  H26C  588   4.289   4.807   8.693  2.0646 -1.2319  0.2823
    8CHL1   C27  589   4.552   4.760   8.727 -0.5311 -0.5769 -0.0938
    8CHL1  H27A  590   4.625   4.679   8.746  0.7949 -0.0729 -2.5689
    8CHL1  H27B  591   4.508   4.734   8.629 -0.4272  0.2752 -0.3807
    8CHL1  H27C  592   4.604   4.858   8.713  0.4495 -1.2958 -1.7469
    9CHL1    C3  593   1.460   1.498  10.189 -0.3490 -0.2398 -0.0289
    9CHL1    H3  594   1.570   1.492  10.175 -0.1805 -0.2821  1.1932
    9CHL1    O3  595   1.447   1.495  10.334 -0.1708  0.0183 -0.1873
    9CHL1   H3'  596   1.472   1.405  10.359 -0.7798 -0.0173  0.3185
    9CHL1    C4  597   1.408   1.634  10.133 -0.1936  0.4538  0.4242
    9CHL1   H4A  598   1.305   1.649  10.174 -0.2178 -2.7358  1.7909
    9CHL1   H4B  599   1.480   1.701  10.186  0.1035  0.0986  0.4751
    9CHL1    C5  600   1.417   1.649   9.984  0.6953  0.5632  0.7351
    9CHL1    C6  601   1.481   1.750   9.926 -0.7333 -0.6812 -0.2045
    9CHL1    H6  602   1.513   1.829   9.995 -2.9351  0.3848 -0.3112
    9CHL1    C7  603   1.493   1.773   9.779 -0.1472  0.0369 -0.5355
    9CHL1   H7A  604   1.451   1.871   9.747 -1.1454 -0.0089  0.5458
    9CHL1   H7B  605   1.600   1.771   9.751 -0.2882  0.1931 -1.0900
    9CHL1    C8  606   1.417   1.661   9.695 -0.2624  0.6556 -0.1564
    9CHL1    H8  607   1.315   1.703   9.703 -0.3672  0.0934  2.0537
    9CHL1   C14  608   1.458   1.654   9.546  0.0702  0.3510 -1.0806
    9CHL1   H14  609   1.558   1.605   9.549 -0.2633 -0.2957 -0.4431
    9CHL1   C15  610   1.497   1.781   9.467  0.3481 -0.3328  0.2700
    9CHL1  H15A  611   1.423   1.860   9.490  0.7282  0.2295 -0.4078
    9CHL1  H15B  612   1.599   1.811   9.501 -0.1266 -0.2044  1.6444
    9CHL1   C16  613   1.485   1.736   9.325  0.0310  0.4234  0.4000
    9CHL1  H16A  614   1.411   1.795   9.266 -0.1020  0.4859  0.6290
    9CHL1  H16B  615   1.584   1.736   9.275  0.7163 -1.4665  1.6602
    9CHL1   C17  616   1.427   1.588   9.319 -1.0522 -0.8729 -1.1446
    9CHL1   H17  617   1.521   1.530   9.310  2.2183  3.9998 -2.2071
    9CHL1   C13  618   1.372   1.566   9.457  0.1446  0.0018 -0.6993
    9CHL1   C18  619   1.227   1.634   9.453  0.7337 -0.1411 -1.0215
    9CHL1  H18A  620   1.181   1.646   9.553 -3.8272  2.2001 -3.0634
    9CHL1  H18B  621   1.229   1.735   9.407 -0.1025  0.6933  0.6874
    9CHL1  H18C  622   1.159   1.565   9.397  0.0147 -1.6409  1.5497
    9CHL1   C12  623   1.389   1.423   9.511  0.0329  0.3280 -0.3892
    9CHL1  H12A  624   1.321   1.349   9.463 -0.6388  1.4011 -1.1345
    9CHL1  H12B  625   1.494   1.389   9.502 -0.7517 -2.3673 -0.4428
    9CHL1   C11  626   1.352   1.417   9.659 -0.7684 -0.0498 -0.4283
    9CHL1  H11A  627   1.242   1.429   9.671 -0.7307 -1.6049  2.3131
    9CHL1  H11B  628   1.375   1.318   9.703  1.3706  0.9101  0.7019
    9CHL1    C9  629   1.413   1.527   9.754 -0.5264 -0.5289  0.2322
    9CHL1    H9  630   1.518   1.495   9.772 -0.3409  0.5092  1.0337
    9CHL1   C10  631   1.359   1.534   9.900  0.5873 -0.3344  0.2486
    9CHL1   C19  632   1.204   1.547   9.893  0.1371  0.2223 -0.4493
    9CHL1  H19A  633   1.151   1.583   9.984  0.5634  1.3346 -0.6260
    9CHL1  H19B  634   1.175   1.620   9.815  1.6820  0.4169 -0.8696
    9CHL1  H19C  635   1.155   1.451   9.863 -0.4565  0.3537  0.0781
    9CHL1    C1  636   1.386   1.405   9.974  0.5805  0.2542  0.9828
    9CHL1   H1A  637   1.326   1.331   9.917  0.4044  1.3719 -0.3429
    9CHL1   H1B  638   1.493   1.382   9.955  0.5282  1.5691 -1.3794
    9CHL1    C2  639   1.379   1.391  10.127  0.1262  1.7393  0.8339
    9CHL1   H2A  640   1.402   1.286  10.152 -3.7585 -0.0144 -1.8734
    9CHL1   H2B  641   1.275   1.416  10.159 -0.2048 -1.1034  2.2398
    9CHL1   C20  642   1.338   1.557   9.191 -0.6876 -0.4111  0.0724
    9CHL1   H20  643   1.260   1.636   9.191 -1.3810 -1.0681  1.3108
    9CHL1   C21  644   1.270   1.417   9.190 -0.4030  0.0877 -0.4376
    9CHL1  H21A  645   1.214   1.415   9.095 -0.3653  1.0253 -0.4868
    9CHL1  H21B  646   1.204   1.397   9.277 -0.1987 -0.9202 -0.4926
    9CHL1  H21C  647   1.349   1.340   9.174 -0.7277 -1.1762  3.0026
    9CHL1   C22  648   1.418   1.584   9.062 -0.2010  0.6395  0.3623
    9CHL1  H22A  649   1.475   1.674   9.092  1.9927 -1.0169  1.5099
    9CHL1  H22B  650   1.492   1.503   9.045 -0.2915  0.1937  1.8818
    9CHL1   C23  651   1.348   1.610   8.934  0.1443  0.2670  0.5010
    9CHL1  H23A  652   1.283   1.520   8.929 -2.8394  2.1879  1.8768
    9CHL1  H23B  653   1.283   1.700   8.941 -2.3395 -1.5405  2.3579
    9CHL1   C24  654   1.451   1.638   8.820  0.0238 -0.7166 -0.1178
    9CHL1  H24A  655   1.549   1.593   8.849  0.9781  1.7870  0.8135
    9CHL1  H24B  656   1.422   1.594   8.722  0.9389 -1.7041  0.0354
    9CHL1   C25  657   1.488   1.787   8.794 -0.5863 -0.5061 -0.6391
    9CHL1   H25  658   1.505   1.835   8.892 -0.2562 -1.2825 -0.3068
    9CHL1   C26  659   1.615   1.803   8.723 -0.3769  0.2756  0.1991
    9CHL1  H26A  660   1.608   1.756   8.622  1.3015  0.8828 -0.2314
    9CHL1  H26B  661   1.637   1.911   8.712 -0.6845  0.3713  0.5290
    9CHL1  H26C  662   1.692   1.750   8.782 -0.0900  2.4193  1.8415
    9CHL1   C27  663   1.376   1.867   8.727  0.4483  0.5711 -0.6961
    9CHL1  H27A  664   1.281   1.858   8.784  1.1652  2.4581  0.8879
    9CHL1  H27B  665   1.413   1.971   8.716  0.1381  0.9883  1.7972
    9CHL1  H27C  666   1.359   1.823   8.626 -0.2897  1.2980 -0.8940
   10CHL1    C3  667   0.264   4.831  10.064  0.1288 -0.2551  0.1397
   10CHL1    H3  668   0.352   4.897  10.046  0.9256 -1.2722  0.2485
   10CHL1    O3  669   0.215   4.853  10.195  0.4758 -0.3900  0.1120
   10CHL1   H3'  670   0.183   4.766  10.218 -0.0711 -0.8555 -2.1877
   10CHL1    C4  671   0.158   4.877   9.967  0.4880  0.4030  0.5491
   10CHL1   H4A  672   0.064   4.818   9.977  0.6254  0.0793 -0.0363
   10CHL1   H4B  673   0.137   4.983   9.993  1.0743  0.6804 -0.1032
   10CHL1    C5  674   0.198   4.865   9.821  0.0820  0.0278 -0.2958
   10CHL1    C6  675   0.200   4.966   9.736 -0.2729 -0.4083 -0.1509
   10CHL1    H6  676   0.163   5.063   9.774 -1.6483 -1.8107  2.3401
   10CHL1    C7  677   0.244   4.961   9.592  0.0589  0.0844  0.0263
   10CHL1   H7A  678   0.180   5.028   9.530 -0.0623  0.9189  1.0293
   10CHL1   H7B  679   0.342   5.014   9.589 -0.1232  0.4067 -0.5331
   10CHL1    C8  680   0.254   4.811   9.546 -0.3400 -0.0062 -0.5174
   10CHL1    H8  681   0.149   4.778   9.531  0.3214 -2.7607  0.4504
   10CHL1   C14  682   0.325   4.794   9.413  0.7721 -1.0274 -0.4270
   10CHL1   H14  683   0.431   4.823   9.429  0.2187  1.6280 -1.0456
   10CHL1   C15  684   0.275   4.890   9.303 -0.0669 -0.1765  0.5605
   10CHL1  H15A  685   0.164   4.888   9.297 -0.0006 -1.0966 -1.0610
   10CHL1  H15B  686   0.297   4.997   9.322 -1.9892  0.9710 -2.7628
   10CHL1   C16  687   0.338   4.829   9.182  0.1948 -0.0938  0.7150
   10CHL1  H16A  688   0.259   4.812   9.106  0.5404 -1.4520  0.6232
   10CHL1  H16B  689   0.403   4.903   9.130 -0.2499  0.0610  0.3770
   10CHL1   C17  690   0.407   4.691   9.216  0.0566  0.0594  0.3677
   10CHL1   H17  691   0.515   4.702   9.239  0.1743 -3.1249  1.9085
   10CHL1   C13  692   0.339   4.656   9.355 -0.3687  0.3201  0.6148
   10CHL1   C18  693   0.202   4.591   9.333  0.1308  0.3927 -0.4419
   10CHL1  H18A  694   0.133   4.653   9.271  0.7661  0.9514 -0.5976
   10CHL1  H18B  695   0.208   4.485   9.302  0.0952  0.0727  0.6088
   10CHL1  H18C  696   0.141   4.591   9.427 -3.4407  1.1758 -2.5609
   10CHL1   C12  697   0.432   4.582   9.447 -1.0120  0.1360 -0.6287
   10CHL1  H12A  698   0.429   4.474   9.420  0.8721 -0.5294  1.4626
   10CHL1  H12B  699   0.534   4.624   9.436 -0.6926 -0.7833 -1.3718
   10CHL1   C11  700   0.364   4.584   9.589  0.2891 -0.0147  0.0464
   10CHL1  H11A  701   0.275   4.518   9.585  1.8121 -2.1421 -0.2334
   10CHL1  H11B  702   0.425   4.539   9.670  3.1619  0.2960 -1.7926
   10CHL1    C9  703   0.329   4.723   9.645  0.6168 -0.0241 -0.6183
   10CHL1    H9  704   0.421   4.777   9.675 -1.0848  2.6567  0.1458
   10CHL1   C10  705   0.259   4.725   9.788  0.1040 -0.2438  0.0583
   10CHL1   C19  706   0.144   4.622   9.788  0.0252 -0.9599 -0.3256
   10CHL1  H19A  707   0.088   4.640   9.694 -0.5335 -0.2407  0.1320
   10CHL1  H19B  708   0.182   4.519   9.772  0.2416 -0.8170 -0.7394
   10CHL1  H19C  709   0.080   4.625   9.879  0.2964  0.9275 -0.1627
   10CHL1    C1  710   0.356   4.673   9.901 -0.0676 -0.1862  0.1659
   10CHL1   H1A  711   0.379   4.567   9.877 -1.4722 -0.7401  1.0703
   10CHL1   H1B  712   0.447   4.737   9.895  0.7624 -1.4051 -0.4951
   10CHL1    C2  713   0.296   4.683  10.044 -0.0054 -0.2587  0.3082
   10CHL1   H2A  714   0.364   4.642  10.121 -1.3926 -0.8419  1.2783
   10CHL1   H2B  715   0.209   4.615  10.061 -0.5108  0.1351 -0.5933
   10CHL1   C20  716   0.402   4.593   9.099  0.0506  0.1722  0.0996
   10CHL1   H20  717   0.295   4.579   9.071  0.5803 -0.6388 -1.6505
   10CHL1   C21  718   0.458   4.459   9.133 -0.5700 -0.6731  0.1352
   10CHL1  H21A  719   0.399   4.397   9.203  0.8786 -0.6890  1.3764
   10CHL1  H21B  720   0.557   4.469   9.182 -0.6684 -1.0626  0.4168
   10CHL1  H21C  721   0.457   4.400   9.038 -1.2829 -0.1613 -0.1836
   10CHL1   C22  722   0.468   4.651   8.975  0.7078  0.2690 -0.2033
   10CHL1  H22A  723   0.425   4.752   8.953 -1.5580 -0.2779  1.3723
   10CHL1  H22B  724   0.574   4.678   8.994  0.7260  1.2961 -1.5750
   10CHL1   C23  725   0.459   4.566   8.847  0.5693 -0.6278 -0.5061
   10CHL1  H23A  726   0.537   4.488   8.836 -1.0788 -2.5074  0.3047
   10CHL1  H23B  727   0.361   4.516   8.863  0.3033 -0.1324 -0.5712
   10CHL1   C24  728   0.464   4.658   8.722  0.6792  0.2824 -0.1152
   10CHL1  H24A  729   0.368   4.714   8.722  0.5144  0.0911  2.2461
   10CHL1  H24B  730   0.556   4.719   8.713  0.0268  1.4177  0.6469
   10CHL1   C25  731   0.461   4.580   8.585  0.1085 -0.4846 -0.6957
   10CHL1   H25  732   0.448   4.663   8.512  2.1389 -0.0281 -0.5894
   10CHL1   C26  733   0.590   4.512   8.556  0.2237  0.2032 -0.3803
   10CHL1  H26A  734   0.590   4.411   8.603  0.0171  1.0639  1.6030
   10CHL1  H26B  735   0.616   4.499   8.449 -0.4929  0.5887 -0.6038
   10CHL1  H26C  736   0.678   4.568   8.596  0.2527 -0.0500 -0.0874
   10CHL1   C27  737   0.348   4.477   8.572  0.6505  0.1657  0.2137
   10CHL1  H27A  738   0.249   4.523   8.593  0.5434  0.0316  0.0044
   10CHL1  H27B  739   0.346   4.431   8.471 -0.6856 -2.5275  1.3748
   10CHL1  H27C  740   0.354   4.402   8.654 -1.1890 -1.2150 -0.8583
   11CHL1    C3  741   2.837   0.320   9.857  0.1714 -0.5136  0.4764
   11CHL1    H3  742   2.814   0.427   9.838 -0.0384 -0.8390 -1.2686
   11CHL1    O3  743   2.821   0.296   9.998  0.3115  0.1488  0.5788
   11CHL1   H3'  744   2.887   0.346  10.045  0.2828  1.4661 -0.7062
   11CHL1    C4  745   2.724   0.251   9.777  0.2986  0.3019  0.0452
   11CHL1   H4A  746   2.715   0.149   9.819 -0.9270  0.2810 -0.2298
   11CHL1   H4B  747   2.630   0.302   9.807  0.8077  1.5787 -0.4615
   11CHL1    C5  748   2.746   0.257   9.628  1.1522 -0.2579  0.0832
   11CHL1    C6  749   2.651   0.304   9.551  0.1598  0.2736  0.6965
   11CHL1    H6  750   2.557   0.333   9.601 -2.0858 -2.4268 -1.5876
   11CHL1    C7  751   2.654   0.323   9.407 -0.4306 -0.3360 -0.1790
   11CHL1   H7A  752   2.560   0.300   9.353 -0.6822  0.4360 -0.0901
   11CHL1   H7B  753   2.678   0.430   9.391 -1.6525  0.1688  1.1230
   11CHL1    C8  754   2.764   0.233   9.353  0.7007 -0.3710 -0.1801
   11CHL1    H8  755   2.719   0.132   9.351 -0.6279  0.1355  1.8841
   11CHL1   C14  756   2.791   0.264   9.206  0.1267  0.0076  0.1426
   11CHL1   H14  757   2.829   0.368   9.206  1.3162 -0.3985 -0.7593
   11CHL1   C15  758   2.669   0.258   9.104 -0.0877  0.0854  0.0270
   11CHL1  H15A  759   2.609   0.167   9.123 -0.3907  0.3582  0.3956
   11CHL1  H15B  760   2.603   0.342   9.135  0.2355 -0.0429  1.0954
   11CHL1   C16  761   2.729   0.248   8.965  0.0231 -0.0860  0.4537
   11CHL1  H16A  762   2.691   0.161   8.908  0.8920  0.7356 -1.4640
   11CHL1  H16B  763   2.710   0.345   8.914  0.0367  0.3150  1.1981
   11CHL1   C17  764   2.880   0.232   8.993 -0.4608 -0.2685  0.2515
   11CHL1   H17  765   2.921   0.335   9.004  1.1072 -0.9873  1.7512
   11CHL1   C13  766   2.902   0.183   9.139  0.1782 -0.0980 -0.5871
   11CHL1   C18  767   2.866   0.025   9.135  0.5255  0.2726 -0.2014
   11CHL1  H18A  768   2.803   0.002   9.047 -0.7904 -1.5490  1.1414
   11CHL1  H18B  769   2.967  -0.020   9.121  0.3465 -0.7696  1.5463
   11CHL1  H18C  770   2.809  -0.013   9.222  0.8016 -0.6514 -0.4115
   11CHL1   C12  771   3.028   0.216   9.213 -0.7222  1.0434 -0.2867
   11CHL1  H12A  772   3.116   0.163   9.170 -1.0619 -2.4115  2.7713
   11CHL1  H12B  773   3.049   0.325   9.205  1.8727  0.5885 -0.5059
   11CHL1   C11  774   3.021   0.172   9.364 -0.1048  0.0926 -0.3166
   11CHL1  H11A  775   3.008   0.062   9.374 -0.2055  0.2021  0.9382
   11CHL1  H11B  776   3.105   0.214   9.423 -1.0676  1.9949 -0.2276
   11CHL1    C9  777   2.897   0.238   9.432 -0.2269  0.2110 -0.1478
   11CHL1    H9  778   2.913   0.347   9.413 -2.0062  0.7506  1.1419
   11CHL1   C10  779   2.882   0.216   9.589  0.1617  0.6401  0.9501
   11CHL1   C19  780   2.888   0.061   9.618  0.3778  0.1360  0.5544
   11CHL1  H19A  781   2.984   0.018   9.585  1.1205  1.2351  1.2071
   11CHL1  H19B  782   2.880   0.036   9.726  3.0639  2.2199  1.3239
   11CHL1  H19C  783   2.808   0.009   9.561  0.8337 -0.0927  0.1185
   11CHL1    C1  784   2.992   0.289   9.665 -0.4629  0.1224 -0.0147
   11CHL1   H1A  785   3.089   0.241   9.638 -0.1190  0.4362  0.6435
   11CHL1   H1B  786   2.994   0.394   9.630 -0.2814  0.0702 -0.1645
   11CHL1    C2  787   2.979   0.281   9.818 -0.0552 -0.7781 -0.5207
   11CHL1   H2A  788   3.050   0.347   9.872  0.5741  0.5338 -2.7983
   11CHL1   H2B  789   2.997   0.174   9.841  2.4930 -0.5046 -0.9432
   11CHL1   C20  790   2.958   0.167   8.877 -0.4374  0.5988  0.1736
   11CHL1   H20  791   2.944   0.057   8.883  0.2210  0.5248  0.4280
   11CHL1   C21  792   3.108   0.173   8.896  0.4883  0.5670 -0.0637
   11CHL1  H21A  793   3.141   0.277   8.916 -0.5079  0.7191  0.8653
   11CHL1  H21B  794   3.178   0.124   8.825  1.3569  1.0184  0.4578
   11CHL1  H21C  795   3.135   0.116   8.988 -1.0709 -0.3768 -0.1561
   11CHL1   C22  796   2.917   0.200   8.732 -0.3897 -0.1557  0.4116
   11CHL1  H22A  797   2.806   0.206   8.726 -0.2890  0.1012 -3.4863
   11CHL1  H22B  798   2.965   0.296   8.705 -0.9887  0.3017  0.9473
   11CHL1   C23  799   2.954   0.081   8.643  0.4925 -0.5780  0.3346
   11CHL1  H23A  800   3.064   0.078   8.627  0.2050 -2.9807 -1.8356
   11CHL1  H23B  801   2.928  -0.012   8.698 -0.0194 -0.0647  0.9897
   11CHL1   C24  802   2.883   0.086   8.511  0.3449  0.5142 -0.5426
   11CHL1  H24A  803   2.774   0.090   8.533  0.5466  1.8133  0.3662
   11CHL1  H24B  804   2.907   0.178   8.453  0.3800  0.6166 -0.3650
   11CHL1   C25  805   2.910  -0.031   8.408  0.7751  0.6757 -0.0526
   11CHL1   H25  806   2.895  -0.131   8.454  2.0146 -0.0248 -1.0834
   11CHL1   C26  807   2.816  -0.014   8.292  0.1280 -0.4188 -0.4431
   11CHL1  H26A  808   2.823  -0.099   8.222  0.0124 -1.6245  0.9750
   11CHL1  H26B  809   2.709  -0.003   8.319 -0.2179 -0.2046 -1.8691
   11CHL1  H26C  810   2.844   0.083   8.244  1.2535  0.2778  1.4577
   11CHL1   C27  811   3.052  -0.028   8.360 -0.6804 -0.4857  0.7319
   11CHL1  H27A  812   3.054  -0.097   8.273 -1.7651  1.4905 -0.9566
   11CHL1  H27B  813   3.087   0.074   8.331  2.4800 -2.1540 -2.0616
   11CHL1  H27C  814   3.105  -0.063   8.450 -2.1281  0.5368  2.0298
   12CHL1    C3  815   3.349   4.445  10.341 -0.2800  0.2244  0.6303
   12CHL1    H3  816   3.346   4.556  10.331 -3.0864  0.2349  0.8971
   12CHL1    O3  817   3.328   4.404  10.481 -0.8884  0.1078  0.2903
   12CHL1   H3'  818   3.354   4.312  10.472 -0.8521  0.0599  0.8565
   12CHL1    C4  819   3.244   4.383  10.245  0.1931  0.3120  0.4115
   12CHL1   H4A  820   3.245   4.272  10.256 -0.3786  0.3739  1.2190
   12CHL1   H4B  821   3.142   4.412  10.278  0.4814  1.5338  0.2462
   12CHL1    C5  822   3.274   4.405  10.100 -0.0572  0.3723  0.8990
   12CHL1    C6  823   3.188   4.472  10.020 -0.7931  0.0503 -0.0857
   12CHL1    H6  824   3.098   4.509  10.070  0.8514  0.6388  2.6526
   12CHL1    C7  825   3.208   4.499   9.876  0.4753 -0.5254  0.5872
   12CHL1   H7A  826   3.114   4.481   9.821 -0.0457  1.4598  0.7578
   12CHL1   H7B  827   3.234   4.606   9.859 -0.2887 -0.5763 -1.0535
   12CHL1    C8  828   3.320   4.413   9.815  0.5966  0.4869 -0.5175
   12CHL1    H8  829   3.275   4.312   9.812  0.4540  0.4479  1.6311
   12CHL1   C14  830   3.358   4.460   9.673  0.0648 -0.2420 -0.5378
   12CHL1   H14  831   3.403   4.559   9.696 -0.3115 -0.5592  1.8716
   12CHL1   C15  832   3.239   4.491   9.573  0.1773 -0.3271 -0.7151
   12CHL1  H15A  833   3.154   4.420   9.581  2.6541 -3.2681  3.7918
   12CHL1  H15B  834   3.197   4.589   9.603 -0.0800 -1.2523  2.2186
   12CHL1   C16  835   3.307   4.477   9.436  0.8639  0.2109  0.1908
   12CHL1  H16A  836   3.257   4.403   9.370  1.3138  1.2362 -1.3513
   12CHL1  H16B  837   3.305   4.580   9.395  0.3590  0.1649  0.0987
   12CHL1   C17  838   3.453   4.444   9.466  0.1368  0.0820  0.6322
   12CHL1   H17  839   3.499   4.544   9.477 -2.5375  1.4294  0.3655
   12CHL1   C13  840   3.456   4.376   9.605  0.8387 -0.3319 -0.0509
   12CHL1   C18  841   3.392   4.231   9.593  0.2503  0.0525 -0.2711
   12CHL1  H18A  842   3.459   4.175   9.525  1.4445 -0.0925  0.9790
   12CHL1  H18B  843   3.397   4.179   9.691  2.2473  1.2357  0.3105
   12CHL1  H18C  844   3.288   4.216   9.556  0.1188 -0.3407  0.2444
   12CHL1   C12  845   3.584   4.373   9.692  0.0550 -0.1404 -0.1291
   12CHL1  H12A  846   3.659   4.304   9.648 -1.1516 -0.6779 -1.4111
   12CHL1  H12B  847   3.613   4.480   9.696  1.1899 -0.4174 -0.4548
   12CHL1   C11  848   3.558   4.332   9.841  0.2859  0.0892 -0.5315
   12CHL1  H11A  849   3.535   4.223   9.831  0.5334 -0.0271  0.1510
   12CHL1  H11B  850   3.657   4.345   9.890  0.2834 -0.7385 -0.2852
   12CHL1    C9  851   3.440   4.411   9.911 -0.4009 -0.1156  0.8788
   12CHL1    H9  852   3.468   4.518   9.918 -0.9037 -0.0066  1.2008
   12CHL1   C10  853   3.412   4.355  10.050  0.0458 -0.0328  0.3993
   12CHL1   C19  854   3.416   4.199  10.050  0.5285  0.5069 -0.2268
   12CHL1  H19A  855   3.517   4.154  10.042  0.3162 -0.1770  0.7992
   12CHL1  H19B  856   3.367   4.159  10.141 -0.1479 -1.2248 -1.2947
   12CHL1  H19C  857   3.347   4.177   9.965  0.0937  2.0068 -0.2988
   12CHL1    C1  858   3.516   4.418  10.148  0.2305  0.4473  0.1224
   12CHL1   H1A  859   3.619   4.389  10.121  0.5633 -0.7034  2.3922
   12CHL1   H1B  860   3.501   4.528  10.146 -0.5195  0.3601  0.4253
   12CHL1    C2  861   3.486   4.381  10.293  0.2041 -0.3435 -0.7350
   12CHL1   H2A  862   3.560   4.428  10.362 -0.6742 -2.3147  1.7036
   12CHL1   H2B  863   3.488   4.271  10.310  2.2329 -0.2331  0.0353
   12CHL1   C20  864   3.533   4.388   9.343 -0.7979  0.5342  0.0246
   12CHL1   H20  865   3.503   4.287   9.307  2.1273  0.6255 -3.1875
   12CHL1   C21  866   3.680   4.373   9.381  0.1836 -0.1199  0.2247
   12CHL1  H21A  867   3.739   4.324   9.300  0.5062 -1.0571  0.9984
   12CHL1  H21B  868   3.683   4.291   9.457  1.4467  1.9629  2.5593
   12CHL1  H21C  869   3.736   4.461   9.420  0.4048 -0.4291  0.6236
   12CHL1   C22  870   3.526   4.470   9.219 -0.5254 -0.1073  0.2570
   12CHL1  H22A  871   3.427   4.515   9.196 -0.5616 -1.2249 -2.0731
   12CHL1  H22B  872   3.607   4.546   9.222 -0.8441  0.2586 -0.1536
   12CHL1   C23  873   3.561   4.388   9.086  0.0264  0.0348  0.1765
   12CHL1  H23A  874   3.665   4.351   9.097  0.6787  2.1097  1.6093
   12CHL1  H23B  875   3.492   4.301   9.092 -0.2173 -0.0874 -2.8641
   12CHL1   C24  876   3.532   4.459   8.952 -0.4887  0.3033 -1.2582
   12CHL1  H24A  877   3.427   4.495   8.955 -1.2971 -1.7585  2.9066
   12CHL1  H24B  878   3.595   4.550   8.948 -0.1710  0.1936  0.3992
   12CHL1   C25  879   3.561   4.363   8.832  0.2487 -0.1166 -0.9904
   12CHL1   H25  880   3.665   4.326   8.850  0.0618 -0.4537 -0.5754
   12CHL1   C26  881   3.470   4.241   8.823  0.6268 -0.1080  0.3791
   12CHL1  H26A  882   3.483   4.176   8.912  0.5854  1.3244  1.4878
   12CHL1  H26B  883   3.365   4.275   8.805 -0.4391 -2.0556  2.4416
   12CHL1  H26C  884   3.505   4.178   8.739 -2.4087 -1.6553  0.1307
   12CHL1   C27  885   3.562   4.444   8.703  0.4985 -0.0070 -0.0325
   12CHL1  H27A  886   3.466   4.495   8.682  0.6305  0.0588 -0.4719
   12CHL1  H27B  887   3.646   4.516   8.701  1.3557 -0.9714  0.2260
   12CHL1  H27C  888   3.595   4.379   8.620 -0.1436 -0.2547 -0.0994
   13CHL1    C3  889   3.370   0.643   9.767  0.0020  0.2201 -0.8229
   13CHL1    H3  890   3.311   0.719   9.710  0.1342  1.8844  1.1322
   13CHL1    O3  891   3.333   0.659   9.900 -0.4540  0.3060 -0.2584
   13CHL1   H3'  892   3.412   0.641   9.952 -1.3823 -2.7946  0.2878
   13CHL1    C4  893   3.344   0.504   9.719  0.4472  0.2270 -0.0053
   13CHL1   H4A  894   3.401   0.434   9.785  0.4685 -0.0109 -0.2743
   13CHL1   H4B  895   3.238   0.479   9.741  1.1553 -1.2659  2.1744
   13CHL1    C5  896   3.384   0.496   9.576 -0.1391 -0.1822  0.1086
   13CHL1    C6  897   3.295   0.456   9.480 -1.4277  0.4104  0.1104
   13CHL1    H6  898   3.196   0.419   9.509 -0.1384 -3.1327  0.5485
   13CHL1    C7  899   3.320   0.443   9.338  0.4174  0.3004  0.1014
   13CHL1   H7A  900   3.281   0.349   9.294  1.7010  0.3836 -1.2790
   13CHL1   H7B  901   3.259   0.522   9.290 -2.0879 -1.9057 -0.6349
   13CHL1    C8  902   3.467   0.446   9.300 -0.0387 -0.3130  0.3678
   13CHL1    H8  903   3.505   0.344   9.322 -0.3452 -0.7851 -1.1808
   13CHL1   C14  904   3.484   0.482   9.148 -0.3003  0.8156  0.1514
   13CHL1   H14  905   3.432   0.580   9.135 -3.3335 -0.3549  2.3011
   13CHL1   C15  906   3.405   0.413   9.031  0.4366  0.0735 -0.4914
   13CHL1  H15A  907   3.417   0.306   9.059 -0.9544  0.2956  1.1273
   13CHL1  H15B  908   3.295   0.430   9.020  0.2616 -0.0187  0.9639
   13CHL1   C16  909   3.488   0.444   8.908 -0.0617  0.0016  0.0866
   13CHL1  H16A  910   3.518   0.352   8.854 -0.4403  0.2050 -0.4720
   13CHL1  H16B  911   3.419   0.494   8.837  1.6650  0.0477 -1.6689
   13CHL1   C17  912   3.611   0.534   8.954 -0.0364  0.2176 -0.3632
   13CHL1   H17  913   3.563   0.634   8.956  1.0899  0.8807 -2.8239
   13CHL1   C13  914   3.632   0.485   9.102  0.5284  0.3599 -0.4579
   13CHL1   C18  915   3.694   0.343   9.121  0.3521  0.2848  0.4474
   13CHL1  H18A  916   3.648   0.258   9.066  0.5139 -1.8584  3.3639
   13CHL1  H18B  917   3.797   0.344   9.079  0.6419  0.5912  1.1541
   13CHL1  H18C  918   3.696   0.322   9.230 -1.4089 -0.2746  0.4051
   13CHL1   C12  919   3.705   0.584   9.185 -0.3062 -0.5936 -0.7056
   13CHL1  H12A  920   3.816   0.577   9.176 -0.2861 -1.0802 -0.1160
   13CHL1  H12B  921   3.677   0.690   9.167  3.5027  0.7467  0.2149
   13CHL1   C11  922   3.693   0.564   9.335 -0.2180  0.1917  0.3573
   13CHL1  H11A  923   3.754   0.476   9.363  0.3151  1.3584  3.1426
   13CHL1  H11B  924   3.745   0.647   9.387  1.1049 -0.6296  0.3820
   13CHL1    C9  925   3.546   0.548   9.381  0.5961 -1.3561 -0.0243
   13CHL1    H9  926   3.496   0.644   9.356  3.3271  0.1055 -0.2937
   13CHL1   C10  927   3.530   0.539   9.536 -0.5745  0.2066  0.9597
   13CHL1   C19  928   3.635   0.438   9.584  0.2648 -0.1768  0.0729
   13CHL1  H19A  929   3.738   0.477   9.569  0.0216  0.6314  0.4030
   13CHL1  H19B  930   3.621   0.424   9.693  0.8401  0.7256  0.2798
   13CHL1  H19C  931   3.628   0.339   9.536  0.7960  0.3066 -1.0421
   13CHL1    C1  932   3.553   0.683   9.593 -0.5618  0.1923 -0.6175
   13CHL1   H1A  933   3.662   0.698   9.578 -0.5435 -1.2778 -2.3220
   13CHL1   H1B  934   3.497   0.761   9.537 -1.0852  0.4693  0.2706
   13CHL1    C2  935   3.515   0.690   9.744  0.5369 -0.2487  0.1251
   13CHL1   H2A  936   3.533   0.793   9.781 -0.4829  0.7878 -2.0744
   13CHL1   H2B  937   3.584   0.621   9.796  0.5242 -0.3759 -0.0263
   13CHL1   C20  938   3.723   0.535   8.850  0.4903 -0.4399 -0.0777
   13CHL1   H20  939   3.806   0.595   8.893 -0.2336  2.0361 -1.8795
   13CHL1   C21  940   3.660   0.610   8.733  0.5465  0.5831  0.4418
   13CHL1  H21A  941   3.744   0.634   8.663  0.7141  0.3059  0.5477
   13CHL1  H21B  942   3.622   0.706   8.773 -0.9793  0.5491 -0.8097
   13CHL1  H21C  943   3.576   0.556   8.685  0.1798  0.2454  1.4610
   13CHL1   C22  944   3.777   0.399   8.792 -0.0266 -0.0615 -0.0030
   13CHL1  H22A  945   3.790   0.315   8.863 -0.3235 -0.9728 -1.0007
   13CHL1  H22B  946   3.702   0.368   8.716  0.3302  0.7897 -0.7124
   13CHL1   C23  947   3.918   0.431   8.725 -0.5051  0.4840 -0.0279
   13CHL1  H23A  948   3.917   0.511   8.648  2.7263  0.5343 -0.1409
   13CHL1  H23B  949   3.969   0.480   8.811 -1.4699 -0.5268  1.1607
   13CHL1   C24  950   3.992   0.299   8.674 -0.4129  0.6289  0.1993
   13CHL1  H24A  951   4.102   0.313   8.677 -0.0128 -1.9139 -0.5183
   13CHL1  H24B  952   3.962   0.220   8.747 -0.1788  1.7214  1.5191
   13CHL1   C25  953   3.956   0.266   8.520  0.5487 -0.6708  0.1228
   13CHL1   H25  954   3.849   0.236   8.524 -0.1535  1.4791 -0.8282
   13CHL1   C26  955   3.969   0.389   8.424  0.0807  0.3676 -0.0662
   13CHL1  H26A  956   3.883   0.451   8.457 -0.5131 -0.3886 -0.1633
   13CHL1  H26B  957   4.071   0.433   8.434  1.6280 -2.2940 -2.4987
   13CHL1  H26C  958   3.949   0.367   8.318  2.2060 -0.6902 -0.2986
   13CHL1   C27  959   4.024   0.147   8.458  0.3698 -0.0429 -0.2560
   13CHL1  H27A  960   4.133   0.167   8.454  0.0451  2.5157  1.5460
   13CHL1  H27B  961   4.001   0.051   8.509  0.8409 -1.8359 -3.1646
   13CHL1  H27C  962   3.997   0.142   8.350  3.7250 -0.9708 -1.1695
   14CHL1    C3  963   6.027   1.519  10.312  0.7034 -0.6231 -0.4664
   14CHL1    H3  964   6.057   1.425  10.262 -1.2576 -0.4844 -2.0009
   14CHL1    O3  965   6.078   1.521  10.447  0.0170 -0.1601  0.2065
   14CHL1   H3'  966   6.174   1.520  10.452 -0.0087  0.6407  0.9672
   14CHL1    C4  967   6.090   1.641  10.248  0.1992  0.4158 -0.2658
   14CHL1   H4A  968   6.044   1.733  10.290 -2.3688 -0.1367 -1.6652
   14CHL1   H4B  969   6.201   1.641  10.255  0.7134 -1.4327 -4.7681
   14CHL1    C5  970   6.044   1.656  10.105  0.4520  0.2961  0.1162
   14CHL1    C6  971   6.131   1.653  10.002  0.4791 -0.0766 -0.6768
   14CHL1    H6  972   6.237   1.635  10.028 -0.0231  0.4332  2.1223
   14CHL1    C7  973   6.089   1.684   9.864  0.7615 -0.4074 -0.4511
   14CHL1   H7A  974   6.153   1.771   9.838 -0.9128  2.2347  3.2943
   14CHL1   H7B  975   6.101   1.604   9.788  0.5873  0.7711 -1.7606
   14CHL1    C8  976   5.939   1.734   9.846 -0.5748 -0.7698 -0.3062
   14CHL1    H8  977   5.937   1.841   9.877  0.3672 -0.2407 -1.9497
   14CHL1   C14  978   5.893   1.722   9.702  0.1857  0.3277 -0.0310
   14CHL1   H14  979   5.877   1.615   9.676 -1.0045 -0.0789  2.0475
   14CHL1   C15  980   5.987   1.792   9.598  0.6599  0.4080 -0.3405
   14CHL1  H15A  981   6.014   1.890   9.644  0.6719  1.7114 -2.9203
   14CHL1  H15B  982   6.078   1.736   9.566  0.5735  0.0842 -0.0244
   14CHL1   C16  983   5.894   1.812   9.478 -0.7689 -0.8496 -0.5342
   14CHL1  H16A  984   5.893   1.922   9.465  2.5652 -0.7550 -0.9505
   14CHL1  H16B  985   5.941   1.760   9.392  0.8417  0.9542 -0.8286
   14CHL1   C17  986   5.750   1.784   9.528  0.0862  0.1211 -0.0060
   14CHL1   H17  987   5.736   1.675   9.513  1.6816 -0.6354  3.1684
   14CHL1   C13  988   5.760   1.789   9.683  0.2502  0.4238  0.7832
   14CHL1   C18  989   5.756   1.934   9.732  0.5059  0.0139  0.1201
   14CHL1  H18A  990   5.827   1.994   9.671 -0.4173  1.3769  0.3270
   14CHL1  H18B  991   5.656   1.981   9.725  0.3126 -0.0854  1.7119
   14CHL1  H18C  992   5.771   1.952   9.841 -3.6853 -0.1834  0.8973
   14CHL1   C12  993   5.648   1.706   9.758  0.1694 -0.0658  0.2671
   14CHL1  H12A  994   5.556   1.769   9.756  1.6773  2.2502 -0.4950
   14CHL1  H12B  995   5.631   1.611   9.704  1.0247  0.7667 -1.5458
   14CHL1   C11  996   5.690   1.687   9.911  0.1662  0.3968 -0.2075
   14CHL1  H11A  997   5.657   1.782   9.959 -2.0681 -0.5870  0.3023
   14CHL1  H11B  998   5.628   1.601   9.945  1.3326 -0.9190 -1.2893
   14CHL1    C9  999   5.846   1.656   9.937  0.0024  0.2650  0.5810
   14CHL1    H9 1000   5.864   1.552   9.904 -1.2565  0.3235 -0.3761
   14CHL1   C10 1001   5.891   1.668  10.084  0.1988  1.1561 -0.1762
   14CHL1   C19 1002   5.835   1.802  10.136 -1.0683  0.0140  0.0951
   14CHL1  H19A 1003   5.857   1.836  10.240 -0.0811 -0.7158  0.1401
   14CHL1  H19B 1004   5.878   1.882  10.072  0.5490  0.5543  1.7721
   14CHL1  H19C 1005   5.725   1.812  10.128 -1.0925 -0.4515 -0.1651
   14CHL1    C1 1006   5.828   1.546  10.164 -0.3535 -0.4305  0.3686
   14CHL1   H1A 1007   5.718   1.558  10.158 -0.0794  1.7118 -4.1754
   14CHL1   H1B 1008   5.857   1.453  10.110 -1.1172 -0.1289 -0.5913
   14CHL1    C2 1009   5.879   1.529  10.309  0.3716 -0.5814  0.2071
   14CHL1   H2A 1010   5.831   1.442  10.359 -0.9104  2.0689  4.0740
   14CHL1   H2B 1011   5.850   1.612  10.377  0.3362 -1.0387  0.7627
   14CHL1   C20 1012   5.637   1.855   9.448 -0.6195 -0.1875 -0.0726
   14CHL1   H20 1013   5.636   1.962   9.478 -1.9847 -0.2692  0.2490
   14CHL1   C21 1014   5.496   1.811   9.488 -0.1153 -0.1276 -0.1942
   14CHL1  H21A 1015   5.499   1.700   9.485  0.4696 -0.3247  3.2866
   14CHL1  H21B 1016   5.417   1.842   9.416  1.8581 -0.7933 -2.7808
   14CHL1  H21C 1017   5.479   1.838   9.595  1.3498 -2.1518  0.6382
   14CHL1   C22 1018   5.657   1.845   9.288  0.6259  0.8075 -0.1596
   14CHL1  H22A 1019   5.567   1.898   9.251  1.5083  1.0802 -2.0539
   14CHL1  H22B 1020   5.749   1.902   9.264  0.8482  0.7401  0.5033
   14CHL1   C23 1021   5.662   1.695   9.244 -0.5507 -0.4220 -0.5079
   14CHL1  H23A 1022   5.758   1.665   9.292 -0.4420 -0.7699 -0.9345
   14CHL1  H23B 1023   5.583   1.640   9.299  0.5648 -0.5120  1.1088
   14CHL1   C24 1024   5.658   1.670   9.093 -0.3134 -0.6054 -0.5338
   14CHL1  H24A 1025   5.733   1.719   9.026 -0.2465 -2.0113 -1.5194
   14CHL1  H24B 1026   5.678   1.562   9.081  2.1354 -0.4015  0.9080
   14CHL1   C25 1027   5.529   1.705   9.009 -0.1636  0.2277  0.7374
   14CHL1   H25 1028   5.504   1.813   9.013 -0.0968  0.2702  0.1050
   14CHL1   C26 1029   5.550   1.659   8.866 -0.0282 -0.8693 -0.7446
   14CHL1  H26A 1030   5.452   1.657   8.813  0.3261  0.2797 -1.4800
   14CHL1  H26B 1031   5.625   1.718   8.810 -0.4286 -0.0868 -0.4664
   14CHL1  H26C 1032   5.581   1.552   8.872 -3.8427 -2.0437  2.0285
   14CHL1   C27 1033   5.414   1.630   9.077  0.1414 -0.5483  0.1351
   14CHL1  H27A 1034   5.398   1.664   9.182 -3.8941  0.3309 -0.6094
   14CHL1  H27B 1035   5.315   1.646   9.030  0.4933 -0.8018 -0.7133
   14CHL1  H27C 1036   5.431   1.520   9.075 -1.3288 -0.7901 -0.2472
   15CHL1    C3 1037   3.895   1.741  10.104  0.2431  0.1235 -0.4685
   15CHL1    H3 1038   3.974   1.813  10.076  0.9715 -0.8938 -1.0864
   15CHL1    O3 1039   3.863   1.760  10.242  0.0845 -0.1813 -0.3029
   15CHL1   H3' 1040   3.838   1.852  10.254  0.5355 -0.2682  1.5344
   15CHL1    C4 1041   3.770   1.750  10.003  0.1133 -0.7248 -0.5759
   15CHL1   H4A 1042   3.695   1.678  10.041 -0.4242  0.5050  0.8205
   15CHL1   H4B 1043   3.722   1.847  10.027 -0.1519 -0.8967 -0.4089
   15CHL1    C5 1044   3.810   1.731   9.863 -0.1259 -0.2242 -0.5672
   15CHL1    C6 1045   3.787   1.821   9.764 -0.1795 -0.6250 -0.4273
   15CHL1    H6 1046   3.727   1.907   9.797  0.2518 -1.1536  1.9077
   15CHL1    C7 1047   3.812   1.792   9.617 -0.2131 -0.9360 -0.6718
   15CHL1   H7A 1048   3.724   1.799   9.550  0.6611 -0.5673 -1.8184
   15CHL1   H7B 1049   3.895   1.852   9.574 -0.7654  0.5814  0.3205
   15CHL1    C8 1050   3.842   1.638   9.598 -0.1479  0.3465 -0.2416
   15CHL1    H8 1051   3.740   1.594   9.603 -0.8221  1.9888  2.5534
   15CHL1   C14 1052   3.909   1.616   9.462  0.2700  0.7552 -0.0240
   15CHL1   H14 1053   4.009   1.665   9.459 -0.8294  3.0996 -1.9104
   15CHL1   C15 1054   3.838   1.676   9.335  0.0475 -0.7223  0.4234
   15CHL1  H15A 1055   3.729   1.675   9.358  0.2171  1.0992  1.5300
   15CHL1  H15B 1056   3.871   1.782   9.332  0.8165 -0.8753  2.1006
   15CHL1   C16 1057   3.862   1.582   9.224  0.3198  0.3875 -0.5531
   15CHL1  H16A 1058   3.765   1.532   9.207 -0.0006  0.1295  1.6920
   15CHL1  H16B 1059   3.888   1.633   9.129 -0.9961  1.7627 -0.2203
   15CHL1   C17 1060   3.957   1.473   9.276  0.6232  0.1940 -0.6346
   15CHL1   H17 1061   4.064   1.504   9.287  1.5173 -3.1955  2.3630
   15CHL1   C13 1062   3.921   1.468   9.430  0.1655  0.1535  0.1340
   15CHL1   C18 1063   3.789   1.394   9.442 -0.5430  0.9029 -0.2948
   15CHL1  H18A 1064   3.705   1.457   9.408  0.2815  1.3674 -1.4948
   15CHL1  H18B 1065   3.779   1.298   9.386  1.6867  0.0787  0.6033
   15CHL1  H18C 1066   3.779   1.374   9.551 -0.9756  2.5779 -0.0134
   15CHL1   C12 1067   4.031   1.420   9.527  0.4844  0.0609 -0.2180
   15CHL1  H12A 1068   4.038   1.311   9.507  0.3855 -0.0525  0.3525
   15CHL1  H12B 1069   4.129   1.455   9.487  1.4162 -1.9884  0.1294
   15CHL1   C11 1070   4.006   1.441   9.673  0.1488 -1.0487 -0.9706
   15CHL1  H11A 1071   3.930   1.363   9.696 -1.2534  0.6751  0.5997
   15CHL1  H11B 1072   4.103   1.424   9.724  1.7361  0.1613 -3.3346
   15CHL1    C9 1073   3.935   1.579   9.707 -0.1006  0.3065 -0.1861
   15CHL1    H9 1074   4.019   1.649   9.688 -0.7561  0.9846 -0.6477
   15CHL1   C10 1075   3.886   1.593   9.850 -0.2085 -0.5745  0.1361
   15CHL1   C19 1076   3.789   1.479   9.879  0.5081  0.0092  0.1823
   15CHL1  H19A 1077   3.820   1.373   9.869  1.4662  0.4022 -1.4894
   15CHL1  H19B 1078   3.742   1.494   9.979 -0.0624  0.0204 -0.0861
   15CHL1  H19C 1079   3.695   1.488   9.821  0.2636 -0.2757  0.5325
   15CHL1    C1 1080   4.005   1.596   9.945  0.3556 -0.4907 -0.6906
   15CHL1   H1A 1081   4.063   1.502   9.938  2.1740  0.3654  1.4475
   15CHL1   H1B 1082   4.074   1.677   9.912  0.3832 -1.0675 -2.1257
   15CHL1    C2 1083   3.968   1.607  10.092  0.4769 -0.0048 -0.0909
   15CHL1   H2A 1084   4.050   1.626  10.165  0.5197 -0.7032  0.0525
   15CHL1   H2B 1085   3.914   1.517  10.129  0.0814  0.6877  1.0728
   15CHL1   C20 1086   3.953   1.351   9.192 -0.4045 -0.2222 -0.4183
   15CHL1   H20 1087   3.875   1.278   9.224 -0.5099 -0.6521 -1.6097
   15CHL1   C21 1088   4.082   1.270   9.213  0.0303 -0.0884 -0.2389
   15CHL1  H21A 1089   4.176   1.308   9.167  0.0360 -0.0772 -0.2183
   15CHL1  H21B 1090   4.082   1.172   9.161  0.3037 -0.6102  0.7156
   15CHL1  H21C 1091   4.094   1.239   9.320 -0.1039 -1.3914 -0.5860
   15CHL1   C22 1092   3.931   1.375   9.039 -0.0907 -0.0037 -0.6092
   15CHL1  H22A 1093   3.850   1.449   9.027 -0.3135  0.0254  0.9185
   15CHL1  H22B 1094   4.032   1.413   9.010  1.3965 -2.4582  0.9474
   15CHL1   C23 1095   3.893   1.242   8.962 -0.2869  0.1195  0.1794
   15CHL1  H23A 1096   3.982   1.176   8.955 -0.7944 -0.5478 -0.0228
   15CHL1  H23B 1097   3.812   1.188   9.016 -2.2219  2.0360 -0.6566
   15CHL1   C24 1098   3.854   1.265   8.815 -0.1497  0.4452 -0.0968
   15CHL1  H24A 1099   3.776   1.342   8.795  0.1144  0.3808 -1.4793
   15CHL1  H24B 1100   3.948   1.299   8.766 -0.1533 -0.2277 -0.5805
   15CHL1   C25 1101   3.835   1.129   8.741 -0.3251  0.0713 -0.2495
   15CHL1   H25 1102   3.922   1.066   8.768  1.0778  2.2899  0.7627
   15CHL1   C26 1103   3.718   1.050   8.801  0.4249  0.3084 -1.1212
   15CHL1  H26A 1104   3.693   0.952   8.755 -0.4158 -0.5280  1.0227
   15CHL1  H26B 1105   3.737   1.026   8.907  0.6768 -0.5553 -1.3556
   15CHL1  H26C 1106   3.630   1.118   8.798  0.6804  0.7365  0.4741
   15CHL1   C27 1107   3.821   1.142   8.593 -0.2918 -0.8923 -0.6371
   15CHL1  H27A 1108   3.725   1.190   8.563  0.2170 -0.5429 -1.7524
   15CHL1  H27B 1109   3.908   1.197   8.552 -1.6361  0.5613 -1.6954
   15CHL1  H27C 1110   3.814   1.045   8.540 -1.1640 -0.8646 -0.5940
   16CHL1    C3 1111   5.322   1.601  10.161 -0.7659  0.1475  0.1122
   16CHL1    H3 1112   5.418   1.643  10.124 -1.8612  0.5497 -2.4692
   16CHL1    O3 1113   5.293   1.660  10.290 -0.1808 -0.3888 -0.0712
   16CHL1   H3' 1114   5.232   1.599  10.332 -0.5394 -2.2529 -3.0238
   16CHL1    C4 1115   5.205   1.621  10.069  0.1744 -0.6138  0.1093
   16CHL1   H4A 1116   5.114   1.571  10.108 -1.1289  0.6930 -1.0919
   16CHL1   H4B 1117   5.183   1.729  10.056 -1.5316 -0.9702 -0.2114
   16CHL1    C5 1118   5.246   1.554   9.938 -0.1749 -0.3188 -0.0445
   16CHL1    C6 1119   5.254   1.632   9.831 -0.5583  0.0974  0.3438
   16CHL1    H6 1120   5.225   1.738   9.831  1.0782  0.5756 -0.0802
   16CHL1    C7 1121   5.276   1.573   9.697  0.1412 -0.1008  0.3949
   16CHL1   H7A 1122   5.197   1.603   9.625 -0.7365 -1.5502  0.7125
   16CHL1   H7B 1123   5.378   1.594   9.659  0.3590  0.0349  1.0347
   16CHL1    C8 1124   5.260   1.416   9.692 -0.1616 -0.2655 -1.2831
   16CHL1    H8 1125   5.154   1.384   9.704  0.0756 -0.9335 -0.9519
   16CHL1   C14 1126   5.316   1.369   9.562 -0.7103 -0.6990  1.0311
   16CHL1   H14 1127   5.425   1.387   9.574 -1.2258  1.5327  3.0725
   16CHL1   C15 1128   5.263   1.431   9.429 -0.6140 -0.0444  0.3600
   16CHL1  H15A 1129   5.154   1.446   9.423 -0.5991 -0.6247 -2.8139
   16CHL1  H15B 1130   5.314   1.530   9.428  2.3133 -1.4278  1.2275
   16CHL1   C16 1131   5.311   1.325   9.319  0.4035  0.3746 -1.4453
   16CHL1  H16A 1132   5.221   1.292   9.263  0.8393 -1.4993 -1.1319
   16CHL1  H16B 1133   5.389   1.364   9.250  2.3095  0.1788  0.4849
   16CHL1   C17 1134   5.366   1.203   9.398 -0.2748  0.6575  0.3873
   16CHL1   H17 1135   5.476   1.215   9.400 -0.1717 -0.3407  1.0768
   16CHL1   C13 1136   5.311   1.219   9.538 -0.4860 -0.2878  0.1652
   16CHL1   C18 1137   5.166   1.184   9.539 -0.2720 -0.4246  0.5281
   16CHL1  H18A 1138   5.123   1.219   9.636  0.1828  1.5933  0.0429
   16CHL1  H18B 1139   5.104   1.225   9.457 -1.9260 -0.7751  1.5505
   16CHL1  H18C 1140   5.142   1.075   9.546 -0.9613 -0.4306 -1.3360
   16CHL1   C12 1141   5.395   1.153   9.653  0.3981  0.2652 -0.2113
   16CHL1  H12A 1142   5.395   1.042   9.656  0.2163  0.1936  4.0696
   16CHL1  H12B 1143   5.498   1.172   9.618  0.3227 -0.0578 -0.6114
   16CHL1   C11 1144   5.347   1.202   9.791 -0.0844 -0.1599 -0.4162
   16CHL1  H11A 1145   5.244   1.160   9.793 -0.3850  0.5738  0.4306
   16CHL1  H11B 1146   5.405   1.165   9.879 -1.2033  0.3802  0.5871
   16CHL1    C9 1147   5.333   1.354   9.806 -0.4920 -0.2231 -0.1535
   16CHL1    H9 1148   5.435   1.397   9.796 -0.8572  0.7799  0.3051
   16CHL1   C10 1149   5.278   1.407   9.945 -0.0151  0.3137  0.0880
   16CHL1   C19 1150   5.144   1.326   9.975 -0.2401  0.1269  0.8858
   16CHL1  H19A 1151   5.115   1.362  10.077 -0.1953  2.7404  0.0605
   16CHL1  H19B 1152   5.058   1.345   9.908 -0.8677 -0.6492  1.4559
   16CHL1  H19C 1153   5.168   1.218   9.985 -2.3002 -0.5238 -0.6269
   16CHL1    C1 1154   5.390   1.385  10.060 -0.0036  0.7717 -0.0607
   16CHL1   H1A 1155   5.380   1.276  10.082 -2.2155  1.6556  4.4749
   16CHL1   H1B 1156   5.494   1.407  10.029  0.2177 -0.8893 -0.5974
   16CHL1    C2 1157   5.348   1.457  10.183  0.0141 -0.1650 -0.1146
   16CHL1   H2A 1158   5.422   1.443  10.265  2.4434 -2.0068 -2.4369
   16CHL1   H2B 1159   5.249   1.414  10.211 -0.6331  0.4447 -1.3891
   16CHL1   C20 1160   5.339   1.068   9.328 -0.2964  0.1719  0.3582
   16CHL1   H20 1161   5.235   1.031   9.342  0.7600 -4.4536 -1.9265
   16CHL1   C21 1162   5.430   0.953   9.386  0.6049 -0.0464 -0.4126
   16CHL1  H21A 1163   5.414   0.868   9.316  0.1789 -0.5132  0.2414
   16CHL1  H21B 1164   5.392   0.925   9.486 -3.1543 -2.4279 -2.2627
   16CHL1  H21C 1165   5.534   0.993   9.381  0.1754  0.9586 -1.9265
   16CHL1   C22 1166   5.360   1.054   9.175 -0.2546 -0.0977 -0.2692
   16CHL1  H22A 1167   5.347   0.952   9.133 -0.6913  0.3112 -1.1728
   16CHL1  H22B 1168   5.281   1.109   9.120  0.2175  0.9153  0.0387
   16CHL1   C23 1169   5.502   1.095   9.132 -0.1070 -0.0264  0.6182
   16CHL1  H23A 1170   5.516   1.203   9.149  1.1952 -0.2070  0.7975
   16CHL1  H23B 1171   5.587   1.047   9.186 -1.0567 -2.3569  0.2004
   16CHL1   C24 1172   5.518   1.060   8.979 -0.4955  0.7997  0.3921
   16CHL1  H24A 1173   5.508   0.950   8.992 -1.3241  0.8494  0.2704
   16CHL1  H24B 1174   5.434   1.103   8.920 -0.1596  1.4527  0.3748
   16CHL1   C25 1175   5.646   1.096   8.922 -0.7405  0.1136  0.3601
   16CHL1   H25 1176   5.733   1.078   8.989 -0.3620 -2.0443 -0.6223
   16CHL1   C26 1177   5.681   1.015   8.802 -0.0695  0.0272  0.0920
   16CHL1  H26A 1178   5.692   0.907   8.828  0.5306 -0.0879 -0.6054
   16CHL1  H26B 1179   5.611   1.022   8.716 -0.1334  0.2584  0.1625
   16CHL1  H26C 1180   5.780   1.051   8.766 -0.2649  2.2302  1.6302
   16CHL1   C27 1181   5.648   1.241   8.894 -0.3559  0.1517  0.5451
   16CHL1  H27A 1182   5.746   1.255   8.843 -0.5369  0.4950  0.2912
   16CHL1  H27B 1183   5.572   1.274   8.821  1.6303  1.9904 -0.8006
   16CHL1  H27C 1184   5.640   1.306   8.984 -2.4390  0.5682  0.1103
   17CHL1    C3 1185   1.908   5.451  10.333  0.4942  1.1400 -0.0092
   17CHL1    H3 1186   2.006   5.412  10.297  0.8453 -0.8069  2.7375
   17CHL1    O3 1187   1.900   5.412  10.468  0.6667  0.3707  0.7494
   17CHL1   H3' 1188   1.816   5.447  10.497  0.0584  0.1957 -0.7110
   17CHL1    C4 1189   1.888   5.606  10.321 -0.7342  0.1551  1.1517
   17CHL1   H4A 1190   1.807   5.636  10.391 -0.1698  0.6852  1.5935
   17CHL1   H4B 1191   1.987   5.652  10.345  0.5733 -0.2388 -2.8103
   17CHL1    C5 1192   1.851   5.639  10.176 -0.0156 -0.3377 -0.3060
   17CHL1    C6 1193   1.926   5.736  10.114 -0.2523 -0.4597  0.5427
   17CHL1    H6 1194   2.003   5.791  10.170 -0.1589 -0.5197  0.4724
   17CHL1    C7 1195   1.897   5.787   9.974 -0.6988  0.0742  0.2533
   17CHL1   H7A 1196   1.904   5.898   9.978  0.4729  0.0325 -0.4051
   17CHL1   H7B 1197   1.980   5.756   9.908  1.8523  1.2937  2.6762
   17CHL1    C8 1198   1.773   5.738   9.910  0.4016  1.2094 -0.9693
   17CHL1    H8 1199   1.690   5.794   9.958  1.6141 -0.0455  3.0222
   17CHL1   C14 1200   1.772   5.753   9.758 -0.2842 -0.8232  0.2268
   17CHL1   H14 1201   1.848   5.682   9.719  0.3601 -0.7523  1.3130
   17CHL1   C15 1202   1.809   5.893   9.701 -0.0339 -0.4156  1.0005
   17CHL1  H15A 1203   1.777   5.981   9.761 -1.6583 -0.2765 -0.0089
   17CHL1  H15B 1204   1.920   5.885   9.698  0.4570  3.3306  2.6968
   17CHL1   C16 1205   1.749   5.893   9.551  0.0381  0.3793 -0.9110
   17CHL1  H16A 1206   1.672   5.973   9.555 -0.8380 -0.2865 -3.0150
   17CHL1  H16B 1207   1.827   5.914   9.476  0.3752  1.6259 -0.2444
   17CHL1   C17 1208   1.685   5.754   9.536 -0.5235 -0.1374 -0.7783
   17CHL1   H17 1209   1.773   5.699   9.497 -0.6950  0.8827 -2.7275
   17CHL1   C13 1210   1.651   5.701   9.682  0.4772 -0.4740  0.6788
   17CHL1   C18 1211   1.524   5.780   9.733  0.2556 -0.0238  0.3733
   17CHL1  H18A 1212   1.530   5.889   9.712 -0.9645 -0.0493 -0.1921
   17CHL1  H18B 1213   1.441   5.741   9.670 -0.1192  0.9576  0.2520
   17CHL1  H18C 1214   1.497   5.749   9.836 -0.5143 -1.5179 -0.2529
   17CHL1   C12 1215   1.645   5.551   9.694  0.0236 -0.3117 -0.0528
   17CHL1  H12A 1216   1.561   5.505   9.637 -0.3945 -2.1067  1.8650
   17CHL1  H12B 1217   1.741   5.512   9.656 -0.3180  0.8159 -2.2564
   17CHL1   C11 1218   1.636   5.516   9.847 -0.0697  0.2903 -0.0193
   17CHL1  H11A 1219   1.540   5.560   9.882  0.7319  1.3040  0.9627
   17CHL1  H11B 1220   1.627   5.410   9.880 -1.4926  0.8782  1.6470
   17CHL1    C9 1221   1.756   5.587   9.932  0.2975 -0.2764 -0.5700
   17CHL1    H9 1222   1.848   5.537   9.896  0.8690 -0.2525  0.7919
   17CHL1   C10 1223   1.758   5.556  10.091 -0.0127 -0.3408 -0.4345
   17CHL1   C19 1224   1.619   5.574  10.143 -0.2040 -0.5911 -1.1748
   17CHL1  H19A 1225   1.580   5.669  10.101  2.0270  0.8860 -0.1162
   17CHL1  H19B 1226   1.548   5.495  10.111  0.2859 -1.0458 -1.1652
   17CHL1  H19C 1227   1.612   5.569  10.254 -0.3251 -0.1510 -1.1618
   17CHL1    C1 1228   1.803   5.410  10.105  0.0047 -0.0373  0.3223
   17CHL1   H1A 1229   1.730   5.346  10.051 -1.2283  0.0938  1.7888
   17CHL1   H1B 1230   1.902   5.407  10.054  0.6059 -2.6714  1.5187
   17CHL1    C2 1231   1.811   5.364  10.254  0.0140 -0.9853  0.5790
   17CHL1   H2A 1232   1.847   5.262  10.280  3.8189 -0.0587 -0.4216
   17CHL1   H2B 1233   1.717   5.378  10.310 -0.0172 -0.5354  0.4180
   17CHL1   C20 1234   1.577   5.757   9.426  0.0969  0.2261  0.0255
   17CHL1   H20 1235   1.510   5.842   9.451  1.1240  1.1134 -0.2040
   17CHL1   C21 1236   1.517   5.618   9.401 -0.1625  0.7274 -0.0405
   17CHL1  H21A 1237   1.454   5.601   9.491 -0.5709  0.3592 -0.3956
   17CHL1  H21B 1238   1.593   5.541   9.379 -1.1575  0.2614 -2.0347
   17CHL1  H21C 1239   1.438   5.608   9.324 -0.0143 -1.4265  0.0366
   17CHL1   C22 1240   1.642   5.803   9.288 -0.1306 -0.4517 -0.0256
   17CHL1  H22A 1241   1.675   5.909   9.299  0.6857 -0.7669  0.6388
   17CHL1  H22B 1242   1.721   5.730   9.262 -0.2696 -0.3362 -0.8175
   17CHL1   C23 1243   1.554   5.800   9.159 -0.0748  0.1065 -0.6179
   17CHL1  H23A 1244   1.529   5.695   9.133 -2.0396  0.4704 -0.3697
   17CHL1  H23B 1245   1.461   5.858   9.177 -0.4838 -0.8467  0.4457
   17CHL1   C24 1246   1.626   5.855   9.035 -0.5724 -0.0646  0.4959
   17CHL1  H24A 1247   1.623   5.966   9.041  2.5336  0.0812  1.6383
   17CHL1  H24B 1248   1.735   5.837   9.050  0.4822  3.1089 -2.1180
   17CHL1   C25 1249   1.558   5.802   8.906 -0.5816  0.1716 -0.2848
   17CHL1   H25 1250   1.583   5.695   8.886 -3.1499 -0.2770 -1.4765
   17CHL1   C26 1251   1.404   5.817   8.922  0.3329 -0.3807  0.1101
   17CHL1  H26A 1252   1.361   5.770   8.831  0.3120  0.0041 -0.0795
   17CHL1  H26B 1253   1.359   5.756   9.003  1.6162 -2.1365 -0.4363
   17CHL1  H26C 1254   1.376   5.924   8.920  0.9718 -0.2206 -0.9316
   17CHL1   C27 1255   1.607   5.890   8.794  0.3028  0.1917  0.7480
   17CHL1  H27A 1256   1.619   5.996   8.827  0.0332 -0.5306  3.3671
   17CHL1  H27B 1257   1.707   5.867   8.752  0.4309  1.8367  0.0617
   17CHL1  H27C 1258   1.545   5.889   8.702 -0.0218  2.1025  0.8919
   18CHL1    C3 1259   0.787   5.100  10.025 -0.8223  0.6904  0.3724
   18CHL1    H3 1260   0.816   4.993  10.030 -0.7969  0.6582 -0.2966
   18CHL1    O3 1261   0.785   5.152  10.161 -0.2831  0.3723  0.4472
   18CHL1   H3' 1262   0.742   5.238  10.153  0.7394  0.7368 -1.5481
   18CHL1    C4 1263   0.892   5.175   9.943 -0.9502 -0.2834 -0.0988
   18CHL1   H4A 1264   0.882   5.285   9.955  0.5659 -0.2077  0.7516
   18CHL1   H4B 1265   0.995   5.160   9.983 -0.5932  1.4184 -0.3400
   18CHL1    C5 1266   0.892   5.139   9.793 -0.6866  0.2821 -0.5246
   18CHL1    C6 1267   0.997   5.067   9.731  0.5527  0.3076 -0.1168
   18CHL1    H6 1268   1.087   5.057   9.793 -1.0565 -2.3165  2.0165
   18CHL1    C7 1269   1.011   5.032   9.589  0.0738  0.0720 -0.4989
   18CHL1   H7A 1270   1.105   5.079   9.555  1.0752  0.2744  2.2968
   18CHL1   H7B 1271   1.016   4.922   9.573  0.6317  0.0811 -0.3824
   18CHL1    C8 1272   0.893   5.098   9.512 -0.5196  0.4372  0.1224
   18CHL1    H8 1273   0.903   5.209   9.508 -0.8538  0.5209  1.1877
   18CHL1   C14 1274   0.881   5.048   9.367  0.7199 -0.2523 -0.9461
   18CHL1   H14 1275   0.865   4.938   9.374  1.0118 -0.3322 -1.4346
   18CHL1   C15 1276   1.005   5.050   9.284 -0.4889  0.3869  0.1670
   18CHL1  H15A 1277   1.047   5.152   9.291 -1.5056  0.9146 -1.1521
   18CHL1  H15B 1278   1.082   4.980   9.324 -0.9114  0.9635  2.1009
   18CHL1   C16 1279   0.956   5.027   9.141  0.5407  0.7335  0.3154
   18CHL1  H16A 1280   1.005   5.094   9.067 -0.1884 -0.0471 -0.9050
   18CHL1  H16B 1281   0.982   4.921   9.119  1.6469  1.1390 -0.4832
   18CHL1   C17 1282   0.801   5.034   9.151  0.4695  0.3817  0.0429
   18CHL1   H17 1283   0.770   4.928   9.155  1.4548  0.0488 -0.8537
   18CHL1   C13 1284   0.765   5.103   9.280 -0.3362 -0.4098 -0.7141
   18CHL1   C18 1285   0.782   5.264   9.268 -0.6658  0.2823  0.1420
   18CHL1  H18A 1286   0.746   5.314   9.361 -0.2196  1.7671 -0.4525
   18CHL1  H18B 1287   0.888   5.293   9.257 -0.8695  0.5600 -1.2135
   18CHL1  H18C 1288   0.714   5.299   9.188 -2.3117 -0.2797  1.2383
   18CHL1   C12 1289   0.637   5.058   9.356 -1.0197 -0.5578  0.2602
   18CHL1  H12A 1290   0.554   5.094   9.291 -0.5568 -0.6729 -0.4016
   18CHL1  H12B 1291   0.634   4.947   9.366 -0.7507 -0.7125 -1.1385
   18CHL1   C11 1292   0.639   5.122   9.501  1.1135  0.0488  0.4288
   18CHL1  H11A 1293   0.613   5.229   9.487  1.0454 -0.2414 -1.9196
   18CHL1  H11B 1294   0.551   5.081   9.555  1.0907 -2.4433 -1.3291
   18CHL1    C9 1295   0.756   5.088   9.583  0.0281  0.0499  0.1780
   18CHL1    H9 1296   0.754   4.979   9.605 -1.8064  0.3642  1.8699
   18CHL1   C10 1297   0.761   5.160   9.722 -0.1979  0.1334  0.3936
   18CHL1   C19 1298   0.721   5.308   9.708 -0.2678 -0.3672 -0.2559
   18CHL1  H19A 1299   0.788   5.346   9.628  0.8816 -0.7019  0.5283
   18CHL1  H19B 1300   0.614   5.323   9.681 -0.0999  1.7260  0.0541
   18CHL1  H19C 1301   0.748   5.367   9.799 -1.3619 -0.2068 -0.0203
   18CHL1    C1 1302   0.654   5.078   9.815  0.3614  0.1133  0.2622
   18CHL1   H1A 1303   0.553   5.099   9.775  0.0933 -1.7700 -0.1536
   18CHL1   H1B 1304   0.673   4.969   9.801 -2.9073 -0.6013  0.7714
   18CHL1    C2 1305   0.650   5.116   9.962  0.5275  0.2589  0.2945
   18CHL1   H2A 1306   0.583   5.061  10.031 -0.8251 -0.0631 -1.2180
   18CHL1   H2B 1307   0.627   5.225   9.972  0.7249  0.0762  4.1314
   18CHL1   C20 1308   0.747   5.101   9.018 -0.3035  0.2390  0.1002
   18CHL1   H20 1309   0.788   5.203   9.005  0.8352  0.2545  2.9547
   18CHL1   C21 1310   0.590   5.123   9.023  0.1227 -0.4797  0.2478
   18CHL1  H21A 1311   0.543   5.027   9.053 -2.1490  0.6010  0.2987
   18CHL1  H21B 1312   0.556   5.150   8.921  0.2803  1.8117  0.7497
   18CHL1  H21C 1313   0.559   5.200   9.096 -0.2390  0.7206 -1.1293
   18CHL1   C22 1314   0.766   5.014   8.894 -0.2216 -0.1045  0.1941
   18CHL1  H22A 1315   0.811   4.916   8.921 -2.2910 -0.7631  1.5090
   18CHL1  H22B 1316   0.667   5.004   8.846 -0.5009  1.0111  0.5036
   18CHL1   C23 1317   0.861   5.078   8.798  0.6175  0.0956 -0.5990
   18CHL1  H23A 1318   0.809   5.164   8.751 -0.3833  0.5105  1.2150
   18CHL1  H23B 1319   0.941   5.126   8.858 -0.2791 -1.2288  1.7837
   18CHL1   C24 1320   0.906   4.981   8.687 -0.1977  0.3482  0.1130
   18CHL1  H24A 1321   0.961   4.892   8.726 -0.3733  0.4135  0.5105
   18CHL1  H24B 1322   0.815   4.934   8.644 -0.5013  0.8743  0.1702
   18CHL1   C25 1323   0.991   5.045   8.578  0.1548  0.2574  0.6219
   18CHL1   H25 1324   0.943   5.137   8.538 -1.0049 -1.1552 -1.3793
   18CHL1   C26 1325   1.136   5.079   8.622 -0.7624  0.0726 -0.1664
   18CHL1  H26A 1326   1.142   5.149   8.708  1.6435  1.6205 -1.4761
   18CHL1  H26B 1327   1.193   4.989   8.652 -0.9023  0.3706  1.0449
   18CHL1  H26C 1328   1.195   5.126   8.540 -0.3628 -0.7782 -0.3806
   18CHL1   C27 1329   0.989   4.951   8.454  0.0850  0.1438 -0.0558
   18CHL1  H27A 1330   1.043   4.997   8.368 -0.1142 -2.3587 -1.6258
   18CHL1  H27B 1331   1.033   4.850   8.469 -1.3063 -0.3571  0.7409
   18CHL1  H27C 1332   0.886   4.947   8.414  0.2481  0.8198 -0.5592
   19CHL1    C3 1333   1.604   6.769  10.088 -0.5708 -0.5627  0.8232
   19CHL1    H3 1334   1.571   6.872  10.111  2.5180  0.6875  0.2105
   19CHL1    O3 1335   1.634   6.716  10.217  0.4830 -0.3797 -0.0037
   19CHL1   H3' 1336   1.637   6.620  10.210  0.7119 -0.3376 -0.5512
   19CHL1    C4 1337   1.509   6.675  10.014  0.0575  0.1099 -0.0663
   19CHL1   H4A 1338   1.542   6.571  10.034 -1.1367 -0.2012  0.3726
   19CHL1   H4B 1339   1.415   6.675  10.074  1.1565  0.5917  1.7092
   19CHL1    C5 1340   1.484   6.702   9.870 -0.6655 -0.1055  0.3055
   19CHL1    C6 1341   1.366   6.733   9.811 -0.1955  0.1814 -1.1209
   19CHL1    H6 1342   1.282   6.733   9.881 -0.4416  2.5191 -1.3430
   19CHL1    C7 1343   1.346   6.763   9.671 -0.6014 -0.2050 -0.4580
   19CHL1   H7A 1344   1.253   6.709   9.644 -0.5233 -0.2545 -0.6278
   19CHL1   H7B 1345   1.324   6.872   9.661 -3.1838 -0.4626  1.4221
   19CHL1    C8 1346   1.472   6.729   9.590 -0.0320  0.8159 -0.1802
   19CHL1    H8 1347   1.492   6.621   9.579  0.4161  0.9925 -1.2291
   19CHL1   C14 1348   1.465   6.790   9.447  0.2376  0.0385  0.8970
   19CHL1   H14 1349   1.463   6.901   9.457  3.3245  0.7184 -2.9903
   19CHL1   C15 1350   1.352   6.732   9.354 -0.3377 -0.6267 -0.2345
   19CHL1  H15A 1351   1.352   6.622   9.362 -0.6033 -0.7387 -1.5420
   19CHL1  H15B 1352   1.256   6.780   9.383 -0.4204 -0.0607 -1.3568
   19CHL1   C16 1353   1.398   6.782   9.215  0.3964  0.7401 -0.4916
   19CHL1  H16A 1354   1.379   6.699   9.144  1.4871  0.8665 -0.9466
   19CHL1  H16B 1355   1.336   6.866   9.177  0.5104  0.9647 -0.1926
   19CHL1   C17 1356   1.553   6.838   9.228 -0.4124  0.6443  0.2473
   19CHL1   H17 1357   1.538   6.944   9.256 -0.4039  1.2850 -1.9785
   19CHL1   C13 1358   1.600   6.781   9.365  0.1481 -0.1656  0.5820
   19CHL1   C18 1359   1.651   6.640   9.336 -0.0200  0.4544 -0.5421
   19CHL1  H18A 1360   1.751   6.648   9.289  0.3680  3.1557  0.5363
   19CHL1  H18B 1361   1.677   6.590   9.432 -1.2881 -1.3182 -1.0761
   19CHL1  H18C 1362   1.582   6.579   9.275  1.6633 -0.8327 -1.2533
   19CHL1   C12 1363   1.698   6.872   9.431  0.1080  0.0092 -0.1810
   19CHL1  H12A 1364   1.789   6.870   9.367  0.1348 -0.6749 -0.1355
   19CHL1  H12B 1365   1.659   6.976   9.436  0.3737  0.0625  1.8076
   19CHL1   C11 1366   1.728   6.816   9.568  0.2449 -0.1547  0.2168
   19CHL1  H11A 1367   1.776   6.717   9.554 -1.5940 -0.9611 -0.7115
   19CHL1  H11B 1368   1.801   6.882   9.620 -0.4533 -0.0630  1.1037
   19CHL1    C9 1369   1.600   6.792   9.655  0.4597  0.4251 -0.1984
   19CHL1    H9 1370   1.577   6.898   9.679  0.3914  0.4620 -0.4306
   19CHL1   C10 1371   1.623   6.722   9.791 -0.2122 -0.2060 -0.6790
   19CHL1   C19 1372   1.688   6.582   9.766  0.2236 -0.0328 -0.5186
   19CHL1  H19A 1373   1.705   6.537   9.866 -2.3285 -0.7492 -0.3385
   19CHL1  H19B 1374   1.619   6.520   9.705  0.1374 -1.7968  1.2977
   19CHL1  H19C 1375   1.788   6.582   9.717  0.7038 -0.0195  0.4373
   19CHL1    C1 1376   1.729   6.814   9.873 -0.3439 -0.4665  0.0529
   19CHL1   H1A 1377   1.821   6.806   9.812 -1.6684  2.4669 -2.5676
   19CHL1   H1B 1378   1.707   6.923   9.882  1.2407 -0.2029  1.2984
   19CHL1    C2 1379   1.742   6.768  10.020  0.6915  0.1987  0.3518
   19CHL1   H2A 1380   1.806   6.846  10.067  0.9448  0.7396 -0.8483
   19CHL1   H2B 1381   1.800   6.674  10.025  1.7694  0.8781  0.8980
   19CHL1   C20 1382   1.657   6.826   9.117 -0.2134 -0.7208  1.1549
   19CHL1   H20 1383   1.757   6.824   9.167 -1.0221  1.5921  3.0333
   19CHL1   C21 1384   1.651   6.953   9.026  0.0136 -0.6140 -0.1200
   19CHL1  H21A 1385   1.685   7.034   9.095 -0.8970 -0.8895  0.6726
   19CHL1  H21B 1386   1.553   6.980   8.982  0.4189  0.8571 -0.1902
   19CHL1  H21C 1387   1.724   6.955   8.942  0.0152  0.7714 -0.1129
   19CHL1   C22 1388   1.627   6.699   9.027 -0.2969  0.5720  1.4847
   19CHL1  H22A 1389   1.604   6.604   9.080  2.2395 -1.3379 -0.5626
   19CHL1  H22B 1390   1.547   6.724   8.955 -0.0360 -1.5414  0.3865
   19CHL1   C23 1391   1.741   6.662   8.929  0.1932 -0.6750  0.3060
   19CHL1  H23A 1392   1.765   6.748   8.863  0.6940 -0.4428  0.7862
   19CHL1  H23B 1393   1.836   6.654   8.985  0.3465  3.9281  1.1070
   19CHL1   C24 1394   1.705   6.531   8.858  0.1810 -0.3517  0.9197
   19CHL1  H24A 1395   1.666   6.453   8.928 -2.0891 -0.2603 -0.1434
   19CHL1  H24B 1396   1.612   6.548   8.799  0.4732 -1.2891  0.1723
   19CHL1   C25 1397   1.820   6.480   8.758 -0.1218  0.1311  0.6610
   19CHL1   H25 1398   1.923   6.489   8.798  0.4509 -1.5250 -0.3637
   19CHL1   C26 1399   1.784   6.332   8.723  0.1996 -0.6149  0.1511
   19CHL1  H26A 1400   1.767   6.272   8.815  0.2425 -0.4431  0.2715
   19CHL1  H26B 1401   1.683   6.332   8.675 -0.0216  0.7349  0.5806
   19CHL1  H26C 1402   1.861   6.273   8.669  0.6626  0.7274 -0.7197
   19CHL1   C27 1403   1.832   6.564   8.627  0.2552 -0.5695  0.3205
   19CHL1  H27A 1404   1.763   6.534   8.545 -0.9811  1.1515  0.6776
   19CHL1  H27B 1405   1.809   6.667   8.660  0.3940 -0.5740  0.4329
   19CHL1  H27C 1406   1.927   6.557   8.569 -0.9136 -1.5504 -1.5816
   20CHL1    C3 1407   5.947   1.120  10.260 -0.3623  0.0583 -1.4903
   20CHL1    H3 1408   5.943   1.226  10.295 -2.0058 -0.7882  1.1830
   20CHL1    O3 1409   5.942   1.040  10.376  0.2565 -0.0533 -0.6046
   20CHL1   H3' 1410   5.848   1.036  10.398  0.8140 -2.1713  1.8375
   20CHL1    C4 1411   5.826   1.074  10.168  0.1804  0.2167  0.2118
   20CHL1   H4A 1412   5.836   0.963  10.170 -0.9617  0.1114  0.9456
   20CHL1   H4B 1413   5.728   1.099  10.215 -0.8482  1.1981 -2.2583
   20CHL1    C5 1414   5.839   1.127  10.022  0.7387  0.4014 -0.4071
   20CHL1    C6 1415   5.729   1.193   9.960 -0.2631  0.4513 -0.3861
   20CHL1    H6 1416   5.633   1.206  10.011 -0.1930  1.8316 -0.5826
   20CHL1    C7 1417   5.743   1.249   9.826  0.1953  0.0717 -0.9900
   20CHL1   H7A 1418   5.656   1.209   9.770 -0.2456 -0.6165  0.1575
   20CHL1   H7B 1419   5.733   1.358   9.843 -2.0853 -0.2118 -0.0847
   20CHL1    C8 1420   5.869   1.210   9.745 -0.0618  0.1607 -0.5917
   20CHL1    H8 1421   5.861   1.102   9.722 -2.4575  0.2839 -0.6608
   20CHL1   C14 1422   5.879   1.298   9.621 -0.1503  0.0572  0.4242
   20CHL1   H14 1423   5.885   1.404   9.653 -0.3763  1.8005 -4.4396
   20CHL1   C15 1424   5.760   1.296   9.521 -0.3025  0.9543 -0.6620
   20CHL1  H15A 1425   5.738   1.189   9.503 -1.6312  1.2236 -0.7850
   20CHL1  H15B 1426   5.668   1.349   9.556 -1.1384 -1.7004  1.4958
   20CHL1   C16 1427   5.823   1.366   9.392 -0.4034  0.3432 -0.5225
   20CHL1  H16A 1428   5.803   1.312   9.297  0.7928  0.9634 -1.1426
   20CHL1  H16B 1429   5.780   1.468   9.381 -1.4534  0.0242  0.4005
   20CHL1   C17 1430   5.974   1.373   9.417 -0.1639 -0.7443  0.8613
   20CHL1   H17 1431   5.988   1.475   9.459  1.2107 -0.6003  0.0764
   20CHL1   C13 1432   6.001   1.278   9.532 -0.1993  0.0653 -0.7591
   20CHL1   C18 1433   6.007   1.136   9.471 -0.8381  0.9591  0.5016
   20CHL1  H18A 1434   6.094   1.123   9.403 -1.4765  1.7720 -0.4983
   20CHL1  H18B 1435   6.017   1.059   9.550  2.5539  0.3633 -0.3505
   20CHL1  H18C 1436   5.923   1.116   9.401 -0.0578  1.4621 -0.6220
   20CHL1   C12 1437   6.133   1.298   9.622 -0.1951 -0.4807 -0.4902
   20CHL1  H12A 1438   6.224   1.273   9.563  0.3228  1.0799 -0.4076
   20CHL1  H12B 1439   6.147   1.407   9.635  2.4480 -0.7512 -0.6102
   20CHL1   C11 1440   6.125   1.205   9.749 -0.5688 -0.8378 -0.2680
   20CHL1  H11A 1441   6.141   1.102   9.709  0.5043 -0.1867 -1.5740
   20CHL1  H11B 1442   6.212   1.224   9.815 -0.6570  0.6670 -0.5700
   20CHL1    C9 1443   5.998   1.226   9.831  0.9887  0.9105 -0.0989
   20CHL1    H9 1444   5.996   1.334   9.854 -0.6590  1.0512 -0.8084
   20CHL1   C10 1445   5.985   1.130   9.962 -1.1444 -0.3905 -0.7232
   20CHL1   C19 1446   6.023   0.991   9.919  0.0717  0.1280  0.8144
   20CHL1  H19A 1447   5.954   0.958   9.838 -1.7641 -0.0370  2.3646
   20CHL1  H19B 1448   6.126   0.968   9.884 -0.5962 -2.2874  0.2696
   20CHL1  H19C 1449   6.012   0.918  10.002 -0.9746 -1.9360 -1.0244
   20CHL1    C1 1450   6.088   1.184  10.066 -0.1852 -0.3957 -0.4494
   20CHL1   H1A 1451   6.191   1.175  10.025  0.9488  0.5197  1.9782
   20CHL1   H1B 1452   6.074   1.289  10.100  1.3380 -0.8664  1.9030
   20CHL1    C2 1453   6.081   1.103  10.199 -0.1199  0.2457  0.3780
   20CHL1   H2A 1454   6.159   1.132  10.272  0.9838 -0.7993 -0.3421
   20CHL1   H2B 1455   6.097   0.994  10.184 -0.9058  0.1645  0.1039
   20CHL1   C20 1456   6.066   1.360   9.297 -0.2366 -0.4463  0.4424
   20CHL1   H20 1457   6.168   1.337   9.334 -0.2440 -0.3075  0.5497
   20CHL1   C21 1458   6.074   1.505   9.242  0.1588 -0.9963  0.8975
   20CHL1  H21A 1459   5.966   1.524   9.228 -0.2724 -2.1745  2.4025
   20CHL1  H21B 1460   6.124   1.515   9.143 -0.3376 -3.6638  0.2888
   20CHL1  H21C 1461   6.128   1.570   9.314  0.9482 -0.5947 -0.0331
   20CHL1   C22 1462   6.035   1.267   9.178 -0.1157  0.1768 -0.1485
   20CHL1  H22A 1463   5.996   1.165   9.199 -1.3063  0.3206 -1.4897
   20CHL1  H22B 1464   5.955   1.316   9.119  0.9221  1.3600 -0.6075
   20CHL1   C23 1465   6.150   1.256   9.074 -0.3199 -0.3032  0.5498
   20CHL1  H23A 1466   6.219   1.344   9.075  1.3721 -1.5495  2.9587
   20CHL1  H23B 1467   6.225   1.178   9.100  2.6400  1.1124 -2.8103
   20CHL1   C24 1468   6.098   1.229   8.925  0.3362 -0.6666  0.0284
   20CHL1  H24A 1469   6.048   1.130   8.938  0.0718 -0.4382  0.7861
   20CHL1  H24B 1470   6.018   1.305   8.909 -0.5542 -1.7659 -0.9825
   20CHL1   C25 1471   6.198   1.205   8.803  0.0486  0.1674  0.4027
   20CHL1   H25 1472   6.269   1.128   8.840  0.8774  0.1527 -1.1776
   20CHL1   C26 1473   6.122   1.154   8.685 -0.4680  0.4472 -0.2917
   20CHL1  H26A 1474   6.190   1.134   8.600  0.1887  0.1280  0.3074
   20CHL1  H26B 1475   6.075   1.062   8.726 -1.6204  2.2287  2.6700
   20CHL1  H26C 1476   6.052   1.230   8.642  0.3424  0.8956 -0.8328
   20CHL1   C27 1477   6.265   1.328   8.742  0.0706 -0.0774 -0.5964
   20CHL1  H27A 1478   6.192   1.397   8.695 -3.4211 -1.5542  2.1023
   20CHL1  H27B 1479   6.336   1.380   8.809  1.8945 -1.8571 -1.0642
   20CHL1  H27C 1480   6.335   1.296   8.662  0.9542  3.4788 -1.3849
   21CHL1    C3 1481   5.147   4.127  10.296  0.3946 -0.6008  0.1282
   21CHL1    H3 1482   5.043   4.148  10.265 -0.5275 -2.6758  1.6195
   21CHL1    O3 1483   5.143   4.132  10.440 -0.5374 -0.2155 -0.2040
   21CHL1   H3' 1484   5.160   4.046  10.479 -2.3579 -0.8320 -0.6652
   21CHL1    C4 1485   5.194   3.999  10.231 -0.4325 -0.4880  0.4334
   21CHL1   H4A 1486   5.290   3.969  10.278  0.1990 -1.1402 -1.1782
   21CHL1   H4B 1487   5.121   3.919  10.256 -0.5396 -0.9022 -1.0748
   21CHL1    C5 1488   5.207   4.012  10.080 -0.5037  0.8234 -0.0369
   21CHL1    C6 1489   5.149   3.918  10.000  0.3126 -0.3657  0.9885
   21CHL1    H6 1490   5.101   3.837  10.056 -0.7313  0.9180  2.0241
   21CHL1    C7 1491   5.168   3.916   9.847 -0.3002  0.2439  0.3093
   21CHL1   H7A 1492   5.198   3.817   9.808 -0.2575 -0.0099  0.9770
   21CHL1   H7B 1493   5.064   3.936   9.812 -0.4010  0.6395  0.8340
   21CHL1    C8 1494   5.283   4.017   9.800  0.1794  0.4156 -0.4838
   21CHL1    H8 1495   5.376   3.960   9.819 -0.7798 -0.9187  0.3961
   21CHL1   C14 1496   5.277   4.036   9.651  0.2817 -0.7962  0.1452
   21CHL1   H14 1497   5.188   4.101   9.631  0.7615 -0.8400 -2.4179
   21CHL1   C15 1498   5.258   3.927   9.548  0.1196 -0.4761 -0.8630
   21CHL1  H15A 1499   5.339   3.851   9.557 -1.2707 -1.8768  0.3432
   21CHL1  H15B 1500   5.159   3.878   9.561  0.9574 -1.7194  1.4916
   21CHL1   C16 1501   5.275   4.005   9.413  0.5576  0.5467  0.4917
   21CHL1  H16A 1502   5.358   3.965   9.351  2.6754  3.4880  1.2621
   21CHL1  H16B 1503   5.178   4.008   9.358 -0.1951  2.4833  1.8106
   21CHL1   C17 1504   5.325   4.157   9.439  0.2224  1.0878 -0.0602
   21CHL1   H17 1505   5.239   4.228   9.441  0.4717  1.3905 -0.0179
   21CHL1   C13 1506   5.377   4.143   9.585  0.7050  0.2183  0.1940
   21CHL1   C18 1507   5.515   4.077   9.586  0.3257  0.8339  0.5393
   21CHL1  H18A 1508   5.541   4.048   9.690  3.2385 -2.1751 -0.8353
   21CHL1  H18B 1509   5.516   3.985   9.523  0.7517  1.4298 -0.3353
   21CHL1  H18C 1510   5.590   4.148   9.544 -0.1536  0.4162 -1.1011
   21CHL1   C12 1511   5.377   4.270   9.662 -0.0585 -0.0504  0.5366
   21CHL1  H12A 1512   5.449   4.348   9.630 -1.1654  1.0471  0.6355
   21CHL1  H12B 1513   5.284   4.326   9.636 -0.3039 -0.6543  0.0828
   21CHL1   C11 1514   5.388   4.248   9.820  0.3535 -0.6574  0.1589
   21CHL1  H11A 1515   5.494   4.230   9.848  0.3324 -1.5138 -0.2706
   21CHL1  H11B 1516   5.367   4.344   9.872  2.2456 -1.5160  2.6876
   21CHL1    C9 1517   5.281   4.149   9.874  0.1405  0.1111 -0.0066
   21CHL1    H9 1518   5.183   4.195   9.849  0.2996 -0.2222 -1.3073
   21CHL1   C10 1519   5.283   4.133  10.029  0.4104 -0.1166 -0.2572
   21CHL1   C19 1520   5.432   4.118  10.068  0.1602 -0.3460 -0.0616
   21CHL1  H19A 1521   5.474   4.220  10.077  1.5079 -0.9052  0.2489
   21CHL1  H19B 1522   5.443   4.071  10.168 -0.8701 -1.1724 -0.3090
   21CHL1  H19C 1523   5.504   4.062  10.005  0.9949  1.6242 -0.9106
   21CHL1    C1 1524   5.225   4.258  10.097  0.1464 -0.1443 -0.5442
   21CHL1   H1A 1525   5.273   4.356  10.075 -2.1289  0.8220 -1.4834
   21CHL1   H1B 1526   5.122   4.284  10.064  0.6793  0.9492 -1.4181
   21CHL1    C2 1527   5.233   4.241  10.252 -0.1127 -0.2469  0.0039
   21CHL1   H2A 1528   5.193   4.336  10.295 -1.5781 -1.0405  0.4517
   21CHL1   H2B 1529   5.340   4.227  10.280 -0.6339 -2.1367  1.1880
   21CHL1   C20 1530   5.418   4.210   9.324 -0.0670  0.2660 -0.0990
   21CHL1   H20 1531   5.504   4.140   9.315 -1.0727 -0.8460 -1.3340
   21CHL1   C21 1532   5.470   4.346   9.359 -0.2650 -0.1104 -0.3102
   21CHL1  H21A 1533   5.384   4.410   9.386  0.9651  0.9133  1.3985
   21CHL1  H21B 1534   5.523   4.396   9.274  0.5115  2.0338  1.3320
   21CHL1  H21C 1535   5.526   4.348   9.455  0.5415  1.1473 -0.7755
   21CHL1   C22 1536   5.331   4.215   9.196 -0.2916  0.3154 -0.1352
   21CHL1  H22A 1537   5.272   4.121   9.189 -0.5433  0.5011 -0.4993
   21CHL1  H22B 1538   5.270   4.307   9.206  2.7153  2.2426  2.1251
   21CHL1   C23 1539   5.404   4.222   9.059  0.2177 -1.2170  0.0819
   21CHL1  H23A 1540   5.476   4.307   9.059 -0.6354 -0.4901 -0.0484
   21CHL1  H23B 1541   5.460   4.126   9.045  2.0568  0.1265 -2.6791
   21CHL1   C24 1542   5.309   4.235   8.946  0.2720  0.3617  0.4988
   21CHL1  H24A 1543   5.220   4.170   8.962  1.1684 -0.5501  1.9967
   21CHL1  H24B 1544   5.270   4.339   8.940  1.2030  0.7013  0.1210
   21CHL1   C25 1545   5.385   4.203   8.808 -0.5463  0.3045 -0.3440
   21CHL1   H25 1546   5.447   4.112   8.803  1.8245  1.7596  1.0270
   21CHL1   C26 1547   5.276   4.186   8.700 -0.8488 -0.4139  0.1997
   21CHL1  H26A 1548   5.195   4.261   8.693  0.2780  0.7532 -1.0085
   21CHL1  H26B 1549   5.327   4.188   8.601 -0.5982  1.6198  0.3266
   21CHL1  H26C 1550   5.230   4.085   8.704  0.6403 -1.0574  2.2564
   21CHL1   C27 1551   5.486   4.315   8.773 -0.2188 -0.2100 -0.5787
   21CHL1  H27A 1552   5.568   4.325   8.848 -3.0772  2.4812  2.4922
   21CHL1  H27B 1553   5.534   4.296   8.674  1.2412 -0.8742  0.2121
   21CHL1  H27C 1554   5.442   4.417   8.769 -1.0280 -0.5336 -0.0411
   22CHL1    C3 1555   5.919   5.184  10.288 -0.3818 -0.0988  0.1332
   22CHL1    H3 1556   5.839   5.108  10.291  0.1981 -0.7379 -0.1979
   22CHL1    O3 1557   5.975   5.212  10.417 -0.6924  1.0542  0.0598
   22CHL1   H3' 1558   6.059   5.165  10.418 -1.1510  0.0970  2.4495
   22CHL1    C4 1559   6.031   5.133  10.198 -0.7524 -0.4320 -0.2661
   22CHL1   H4A 1560   6.109   5.212  10.205 -0.5896 -0.4307 -1.7482
   22CHL1   H4B 1561   6.074   5.046  10.252 -0.9276 -1.2626 -1.4152
   22CHL1    C5 1562   5.993   5.112  10.057  0.4629  0.3332  0.7716
   22CHL1    C6 1563   6.016   4.995   9.989  0.0218 -0.7789 -0.0990
   22CHL1    H6 1564   6.069   4.912  10.040  2.2423  0.5905 -0.0185
   22CHL1    C7 1565   5.988   4.981   9.847 -0.1543 -0.0980 -0.0501
   22CHL1   H7A 1566   6.076   4.935   9.796 -1.3469 -1.8449 -0.6291
   22CHL1   H7B 1567   5.907   4.908   9.829 -0.0216 -0.0396 -0.9765
   22CHL1    C8 1568   5.964   5.110   9.772  0.0792  0.6457 -0.0270
   22CHL1    H8 1569   6.057   5.171   9.771 -0.6938  1.9996  2.5209
   22CHL1   C14 1570   5.896   5.066   9.637 -1.4129 -0.4115  0.6529
   22CHL1   H14 1571   5.803   5.013   9.665 -0.9782 -1.1474  0.7329
   22CHL1   C15 1572   5.971   4.966   9.552 -0.3806  0.0713  0.4922
   22CHL1  H15A 1573   6.074   5.008   9.543 -0.2018 -0.2018  1.1603
   22CHL1  H15B 1574   5.991   4.868   9.601 -1.3004 -0.0735  0.5987
   22CHL1   C16 1575   5.901   4.974   9.414  0.1527  0.4229  0.7249
   22CHL1  H16A 1576   5.978   4.967   9.334 -1.7798 -1.4342 -1.1023
   22CHL1  H16B 1577   5.837   4.884   9.413 -0.3471  0.7514  1.7085
   22CHL1   C17 1578   5.808   5.102   9.411  0.2853  0.1192 -0.1624
   22CHL1   H17 1579   5.711   5.056   9.440  0.0845 -0.6992 -2.0205
   22CHL1   C13 1580   5.852   5.177   9.547  0.0002 -0.5966  0.3576
   22CHL1   C18 1581   5.971   5.270   9.503  1.3449 -0.0990  0.5652
   22CHL1  H18A 1582   6.041   5.210   9.440  1.0147  1.5924 -1.5261
   22CHL1  H18B 1583   5.940   5.352   9.434  2.4495 -0.7488 -0.7688
   22CHL1  H18C 1584   6.030   5.314   9.586  1.5595 -0.0508  0.3903
   22CHL1   C12 1585   5.753   5.273   9.625 -0.4268  0.3694 -0.2730
   22CHL1  H12A 1586   5.745   5.369   9.570  1.0569  1.2097  0.8946
   22CHL1  H12B 1587   5.657   5.221   9.647 -0.1027  0.0605  0.4595
   22CHL1   C11 1588   5.807   5.314   9.764  0.2051  0.6803  0.3903
   22CHL1  H11A 1589   5.876   5.397   9.740  1.4402 -0.1897  0.8060
   22CHL1  H11B 1590   5.722   5.351   9.824 -1.3969  0.3712 -1.5850
   22CHL1    C9 1591   5.868   5.197   9.853 -0.2966 -0.0135  1.1487
   22CHL1    H9 1592   5.780   5.134   9.876 -0.2011 -0.5601  0.0812
   22CHL1   C10 1593   5.926   5.234   9.984 -0.0099  0.9972 -0.5599
   22CHL1   C19 1594   6.027   5.347   9.967  0.6035  0.0413  0.0479
   22CHL1  H19A 1595   6.076   5.379  10.061 -2.0587 -1.0746  1.9503
   22CHL1  H19B 1596   6.107   5.306   9.901 -0.5052 -2.5453  0.1629
   22CHL1  H19C 1597   5.987   5.444   9.932 -1.9615  0.1864  2.9557
   22CHL1    C1 1598   5.811   5.288  10.078 -0.3597 -0.6591 -0.2528
   22CHL1   H1A 1599   5.773   5.382  10.032 -0.0699 -0.8820 -0.9613
   22CHL1   H1B 1600   5.729   5.213  10.075  1.6521 -2.9411 -0.8641
   22CHL1    C2 1601   5.859   5.310  10.220 -0.1358  0.1752 -0.2789
   22CHL1   H2A 1602   5.776   5.335  10.290  0.1832 -1.2819  0.6734
   22CHL1   H2B 1603   5.939   5.386  10.226 -1.2180  1.3027  0.3648
   22CHL1   C20 1604   5.789   5.187   9.284  1.2811 -0.2782 -0.1377
   22CHL1   H20 1605   5.884   5.243   9.269 -0.0577  2.4488  0.9675
   22CHL1   C21 1606   5.674   5.292   9.307 -0.0284 -0.0299 -0.6207
   22CHL1  H21A 1607   5.708   5.364   9.385  1.2772 -0.7507 -0.4936
   22CHL1  H21B 1608   5.588   5.240   9.355  0.9431 -1.2852 -0.1964
   22CHL1  H21C 1609   5.652   5.340   9.209 -2.2631 -0.2563 -0.2791
   22CHL1   C22 1610   5.755   5.097   9.157 -0.2911  0.2153 -0.1487
   22CHL1  H22A 1611   5.826   5.011   9.151 -0.1311  0.2184  1.4636
   22CHL1  H22B 1612   5.654   5.051   9.164 -0.2844 -0.1184 -1.8043
   22CHL1   C23 1613   5.760   5.177   9.028  0.4027 -0.6690  0.2069
   22CHL1  H23A 1614   5.714   5.121   8.944 -0.0392  0.6977 -0.4915
   22CHL1  H23B 1615   5.691   5.264   9.022  1.0601 -0.1021  0.7680
   22CHL1   C24 1616   5.902   5.230   8.992  0.4821 -0.2643 -0.1481
   22CHL1  H24A 1617   5.945   5.285   9.078  0.1039  0.9289 -0.6936
   22CHL1  H24B 1618   5.961   5.136   8.991 -1.9721 -1.9071 -0.2721
   22CHL1   C25 1619   5.908   5.315   8.864 -0.2605 -0.6893 -0.0684
   22CHL1   H25 1620   5.835   5.398   8.876  1.1348  0.4391  0.8624
   22CHL1   C26 1621   6.045   5.377   8.842 -0.7272  0.6673  0.3838
   22CHL1  H26A 1622   6.127   5.303   8.833  1.2263  2.8224 -0.8231
   22CHL1  H26B 1623   6.043   5.437   8.748  1.2853 -1.7447 -1.3193
   22CHL1  H26C 1624   6.070   5.442   8.928  1.0980  0.9382 -0.3137
   22CHL1   C27 1625   5.874   5.232   8.734  0.3126 -0.7588 -0.6599
   22CHL1  H27A 1626   5.772   5.190   8.748 -1.2431  2.5829 -1.1993
   22CHL1  H27B 1627   5.863   5.302   8.649  1.1213  0.3872  0.1574
   22CHL1  H27C 1628   5.950   5.152   8.721  0.4412 -0.7066 -0.2468
   23CHL1    C3 1629   2.177   0.222   9.938  0.1991  0.0844 -0.0500
   23CHL1    H3 1630   2.197   0.332   9.933 -0.0274  0.0921 -0.9036
   23CHL1    O3 1631   2.187   0.164  10.069 -0.6252  0.0036  0.1593
   23CHL1   H3' 1632   2.279   0.190  10.074 -1.4885  3.5979  0.3835
   23CHL1    C4 1633   2.040   0.191   9.874  0.1392 -0.6296 -0.2790
   23CHL1   H4A 1634   2.014   0.084   9.874  0.7178 -0.7944  1.1457
   23CHL1   H4B 1635   1.970   0.232   9.949  0.1449 -1.9896  0.4972
   23CHL1    C5 1636   2.037   0.244   9.725 -0.2317  0.2249 -0.1413
   23CHL1    C6 1637   1.954   0.332   9.677  0.1807 -0.7755  0.2230
   23CHL1    H6 1638   1.878   0.377   9.742  0.5513  0.0232  0.1072
   23CHL1    C7 1639   1.943   0.369   9.535 -0.2639 -0.2623  0.4433
   23CHL1   H7A 1640   1.840   0.387   9.496  0.5306 -0.9860 -2.2193
   23CHL1   H7B 1641   1.990   0.469   9.520  1.4262 -1.2047 -0.7769
   23CHL1    C8 1642   2.019   0.280   9.431  0.2327  0.0491  0.0238
   23CHL1    H8 1643   1.948   0.196   9.422 -1.0270  1.0298  0.6009
   23CHL1   C14 1644   2.038   0.344   9.297 -0.2084  0.3696 -0.0845
   23CHL1   H14 1645   2.099   0.437   9.299  0.3386 -0.0060  1.9200
   23CHL1   C15 1646   1.913   0.400   9.225 -0.1184 -0.1516 -0.8013
   23CHL1  H15A 1647   1.822   0.344   9.252 -0.4129  1.8372  3.0037
   23CHL1  H15B 1648   1.897   0.498   9.274 -1.8315 -0.4528 -0.7122
   23CHL1   C16 1649   1.960   0.419   9.086  0.3996 -0.1449 -0.2287
   23CHL1  H16A 1650   1.892   0.364   9.017  0.1581  0.6802 -0.6577
   23CHL1  H16B 1651   1.962   0.526   9.057  1.7572 -0.2497 -0.5663
   23CHL1   C17 1652   2.107   0.353   9.072  0.6118  0.5145 -0.3214
   23CHL1   H17 1653   2.174   0.438   9.095  0.0392  1.0043 -0.4245
   23CHL1   C13 1654   2.112   0.255   9.193 -0.2623 -0.5968 -0.8430
   23CHL1   C18 1655   2.040   0.120   9.175  0.3576 -0.6962  0.0179
   23CHL1  H18A 1656   2.010   0.068   9.268 -0.5069 -0.8469 -0.3280
   23CHL1  H18B 1657   1.958   0.150   9.105  0.1938  0.1018  0.5338
   23CHL1  H18C 1658   2.100   0.045   9.119 -0.6553 -0.5414 -1.3418
   23CHL1   C12 1659   2.254   0.234   9.256 -0.1909  0.1431 -0.3487
   23CHL1  H12A 1660   2.326   0.174   9.197 -0.2212  1.1547 -1.4457
   23CHL1  H12B 1661   2.300   0.335   9.260  1.3641 -0.4255 -2.2763
   23CHL1   C11 1662   2.243   0.169   9.399 -0.6885 -0.0527 -0.2513
   23CHL1  H11A 1663   2.194   0.070   9.383  0.0023 -0.6403  1.1601
   23CHL1  H11B 1664   2.343   0.165   9.448 -0.5405  1.3596 -0.3792
   23CHL1    C9 1665   2.151   0.244   9.496 -0.0364  0.3838  0.3746
   23CHL1    H9 1666   2.206   0.336   9.528  0.3502  0.2704  0.0402
   23CHL1   C10 1667   2.140   0.177   9.634  0.6252  0.6008  0.8546
   23CHL1   C19 1668   2.107   0.024   9.619 -0.3254  0.1567  0.8466
   23CHL1  H19A 1669   2.059  -0.020   9.710 -2.4796  1.4834  0.4158
   23CHL1  H19B 1670   2.034   0.001   9.539 -1.3946 -1.0264  2.1006
   23CHL1  H19C 1671   2.206  -0.023   9.599 -0.1171  1.6288 -1.8920
   23CHL1    C1 1672   2.275   0.201   9.703 -0.9346 -0.4570 -0.0385
   23CHL1   H1A 1673   2.352   0.149   9.643 -0.3165  1.4322 -0.9722
   23CHL1   H1B 1674   2.292   0.311   9.709 -0.8364 -0.4199 -0.9203
   23CHL1    C2 1675   2.289   0.164   9.850 -0.2397  0.0025  0.1295
   23CHL1   H2A 1676   2.391   0.199   9.879  0.0278 -0.0178 -0.7309
   23CHL1   H2B 1677   2.279   0.054   9.860 -1.4266 -0.1294 -1.9371
   23CHL1   C20 1678   2.149   0.307   8.926  1.1344  0.2279  0.3248
   23CHL1   H20 1679   2.089   0.214   8.916  2.7253 -1.0015  1.5834
   23CHL1   C21 1680   2.297   0.267   8.922  0.0579  0.3001  0.1075
   23CHL1  H21A 1681   2.332   0.231   8.822  0.2749 -1.1252  0.6737
   23CHL1  H21B 1682   2.321   0.184   8.992  1.0123  1.2179  0.9068
   23CHL1  H21C 1683   2.360   0.352   8.955  0.1461  0.6214 -0.8596
   23CHL1   C22 1684   2.123   0.414   8.813  0.6706 -0.3317 -0.5661
   23CHL1  H22A 1685   2.030   0.473   8.831  0.7485 -0.8223  1.9037
   23CHL1  H22B 1686   2.212   0.480   8.823 -0.1134  0.7011 -0.2047
   23CHL1   C23 1687   2.093   0.364   8.667  0.0013 -0.5300 -0.2619
   23CHL1  H23A 1688   2.119   0.256   8.673 -0.5648 -0.6145  3.7550
   23CHL1  H23B 1689   1.986   0.377   8.640  0.5219  3.0479 -1.0466
   23CHL1   C24 1690   2.177   0.438   8.561 -0.0891  0.0036  0.7212
   23CHL1  H24A 1691   2.280   0.441   8.604 -1.0152 -0.4883  3.1106
   23CHL1  H24B 1692   2.184   0.389   8.461  1.5792  2.8664 -0.7119
   23CHL1   C25 1693   2.141   0.582   8.539 -0.4435 -0.5115  0.3763
   23CHL1   H25 1694   2.173   0.640   8.628 -0.3977  0.2844 -0.1446
   23CHL1   C26 1695   2.231   0.636   8.429  0.3215 -0.1094  0.2412
   23CHL1  H26A 1696   2.334   0.593   8.430  0.1569 -0.5017  0.2159
   23CHL1  H26B 1697   2.196   0.609   8.327  2.2493 -1.4594 -0.1240
   23CHL1  H26C 1698   2.243   0.747   8.426  2.0336 -0.2686 -2.7276
   23CHL1   C27 1699   1.989   0.602   8.512  0.8440 -0.6104 -0.0689
   23CHL1  H27A 1700   1.932   0.565   8.600  0.0402 -0.9935 -0.7421
   23CHL1  H27B 1701   1.968   0.709   8.488  2.3202 -0.3087 -0.0851
   23CHL1  H27C 1702   1.958   0.546   8.421  1.1731 -0.8476 -0.0342
   24CHL1    C3 1703   2.076   6.201  10.121 -1.0631 -0.0063 -0.2900
   24CHL1    H3 1704   2.104   6.094  10.108 -0.2118 -0.3630  3.2307
   24CHL1    O3 1705   2.073   6.217  10.263 -0.2206  0.2357  0.2921
   24CHL1   H3' 1706   2.164   6.223  10.290  0.2327 -1.3065 -0.7482
   24CHL1    C4 1707   2.181   6.296  10.066 -0.0138  0.5289  0.3096
   24CHL1   H4A 1708   2.162   6.395  10.115  2.2676  1.3146 -0.2384
   24CHL1   H4B 1709   2.281   6.270  10.108  1.0114  1.9447 -1.1206
   24CHL1    C5 1710   2.191   6.298   9.916  0.4983  0.3416 -1.1537
   24CHL1    C6 1711   2.299   6.264   9.844 -0.2143 -0.2014 -0.4370
   24CHL1    H6 1712   2.388   6.233   9.901  0.5477  1.4235 -0.6925
   24CHL1    C7 1713   2.305   6.266   9.692  0.3017  0.7964 -0.6410
   24CHL1   H7A 1714   2.397   6.308   9.645  0.0054  0.7892 -1.2424
   24CHL1   H7B 1715   2.309   6.161   9.654 -0.3950 -0.2116  1.8475
   24CHL1    C8 1716   2.177   6.336   9.630 -0.0973 -0.5343 -0.6159
   24CHL1    H8 1717   2.192   6.446   9.638 -2.2416 -0.0890 -2.1006
   24CHL1   C14 1718   2.173   6.299   9.485 -0.0136  0.2146  0.5201
   24CHL1   H14 1719   2.143   6.192   9.481  0.5339  0.0616  0.4346
   24CHL1   C15 1720   2.302   6.305   9.393  0.3119 -0.2169  0.1846
   24CHL1  H15A 1721   2.369   6.393   9.401 -0.5328  0.4718 -0.1917
   24CHL1  H15B 1722   2.359   6.210   9.403  1.8267  0.5754 -0.5909
   24CHL1   C16 1723   2.240   6.301   9.249 -0.0723 -0.2212  0.8173
   24CHL1  H16A 1724   2.271   6.394   9.195 -0.7980 -0.3516  0.1648
   24CHL1  H16B 1725   2.288   6.214   9.200  1.5513 -0.6918  3.0531
   24CHL1   C17 1726   2.086   6.285   9.265 -0.1640 -0.3412  0.0794
   24CHL1   H17 1727   2.066   6.176   9.270 -0.4931 -0.2853 -0.0155
   24CHL1   C13 1728   2.054   6.353   9.406  0.4900 -0.0375  0.7223
   24CHL1   C18 1729   2.077   6.504   9.396  0.0128  0.3761 -0.2518
   24CHL1  H18A 1730   2.089   6.537   9.501 -2.6587 -0.4698  0.3928
   24CHL1  H18B 1731   2.175   6.532   9.351  0.4650  0.8345  0.9955
   24CHL1  H18C 1732   1.995   6.557   9.343  1.8293  2.3703 -1.2520
   24CHL1   C12 1733   1.924   6.304   9.474 -0.0887 -0.3017  0.1117
   24CHL1  H12A 1734   1.836   6.362   9.439  1.7887  2.6439 -0.1557
   24CHL1  H12B 1735   1.913   6.194   9.466  1.6490 -0.4063 -1.5630
   24CHL1   C11 1736   1.923   6.351   9.622  0.3709 -0.5963 -0.1713
   24CHL1  H11A 1737   1.910   6.461   9.620 -1.4219 -0.7584  0.9447
   24CHL1  H11B 1738   1.830   6.309   9.664  1.5249 -1.5303  1.5647
   24CHL1    C9 1739   2.046   6.308   9.708  0.1502  0.0454  0.2082
   24CHL1    H9 1740   2.043   6.197   9.694  3.9055  0.0658 -2.3755
   24CHL1   C10 1741   2.054   6.336   9.863  0.3615  0.1864  0.7020
   24CHL1   C19 1742   2.017   6.481   9.885 -0.0547  0.0179 -0.5409
   24CHL1  H19A 1743   1.927   6.510   9.827 -0.8735 -2.9467 -0.9157
   24CHL1  H19B 1744   2.002   6.509   9.992  2.2973  0.5028 -0.2980
   24CHL1  H19C 1745   2.104   6.547   9.864 -1.4882  1.6813 -1.4953
   24CHL1    C1 1746   1.943   6.244   9.916  0.4338 -0.4220 -0.3699
   24CHL1   H1A 1747   1.843   6.274   9.878  0.6640  1.2470  0.2579
   24CHL1   H1B 1748   1.957   6.138   9.883  0.3470 -0.9572  1.2178
   24CHL1    C2 1749   1.939   6.240  10.066 -0.4979 -0.3272 -0.2925
   24CHL1   H2A 1750   1.874   6.158  10.103  3.6124 -2.8312  2.1649
   24CHL1   H2B 1751   1.917   6.344  10.099  1.0473 -0.8499  2.7069
   24CHL1   C20 1752   2.015   6.345   9.147 -0.5209 -0.3384 -0.1056
   24CHL1   H20 1753   2.025   6.455   9.151 -1.3182 -0.1845 -1.5529
   24CHL1   C21 1754   1.861   6.327   9.143  0.0345  0.3346  0.3595
   24CHL1  H21A 1755   1.808   6.391   9.217 -2.5180 -0.3103 -0.7828
   24CHL1  H21B 1756   1.829   6.227   9.179 -0.1434  0.6310  1.0457
   24CHL1  H21C 1757   1.826   6.349   9.039  1.3725  1.9525  0.2038
   24CHL1   C22 1758   2.075   6.302   9.008 -0.2844 -0.3443  0.1248
   24CHL1  H22A 1759   2.028   6.370   8.934 -1.5546 -0.1196  1.1000
   24CHL1  H22B 1760   2.184   6.324   9.002 -0.0479 -0.7835  2.0152
   24CHL1   C23 1761   2.066   6.154   8.969  0.0932 -0.0546 -0.0362
   24CHL1  H23A 1762   2.132   6.094   9.035 -0.1632  0.2087  0.4625
   24CHL1  H23B 1763   1.964   6.113   8.981 -0.3275  0.8707 -0.2888
   24CHL1   C24 1764   2.114   6.149   8.825 -0.1405 -0.3174  0.0269
   24CHL1  H24A 1765   2.045   6.208   8.761  0.5124  0.1662 -0.2535
   24CHL1  H24B 1766   2.216   6.190   8.810  0.4492 -0.7921  2.3500
   24CHL1   C25 1767   2.110   6.007   8.754 -0.3827  0.0609  0.0431
   24CHL1   H25 1768   2.135   6.028   8.648  0.3873  1.6273  0.5064
   24CHL1   C26 1769   2.213   5.902   8.803  0.2012 -0.6761 -0.6798
   24CHL1  H26A 1770   2.189   5.877   8.909 -0.8756 -1.7327 -1.1454
   24CHL1  H26B 1771   2.200   5.806   8.749 -0.1607 -1.3378  0.5367
   24CHL1  H26C 1772   2.312   5.948   8.787 -0.6241  1.7196  0.6504
   24CHL1   C27 1773   1.969   5.949   8.757 -0.9028 -0.7094  0.4254
   24CHL1  H27A 1774   1.930   5.920   8.858  0.3763  3.3980  2.2996
   24CHL1  H27B 1775   1.897   6.018   8.708 -0.2748  1.0405  1.8451
   24CHL1  H27C 1776   1.965   5.852   8.704 -1.4891 -0.6047  0.2746
   25CHL1    C3 1777   4.722   1.785  10.309 -0.7964  0.1423  0.0363
   25CHL1    H3 1778   4.629   1.734  10.275 -0.6096  0.0072 -0.2741
   25CHL1    O3 1779   4.733   1.794  10.449 -0.1196  0.2266 -0.5755
   25CHL1   H3' 1780   4.715   1.888  10.460  0.3290  0.3623 -0.9716
   25CHL1    C4 1781   4.848   1.719  10.245  0.3392 -0.0862 -0.5117
   25CHL1   H4A 1782   4.939   1.774  10.278  0.8451 -1.0156 -0.2850
   25CHL1   H4B 1783   4.861   1.618  10.291  1.0896  0.3305  0.2249
   25CHL1    C5 1784   4.825   1.706  10.088 -0.2449  0.1236 -1.2606
   25CHL1    C6 1785   4.829   1.585  10.036 -0.5588 -0.4449 -0.1952
   25CHL1    H6 1786   4.848   1.494  10.095 -3.4061 -1.1641 -0.2439
   25CHL1    C7 1787   4.825   1.568   9.889  0.0980 -0.1058  0.1854
   25CHL1   H7A 1788   4.912   1.507   9.855 -0.2935  0.1241 -1.2872
   25CHL1   H7B 1789   4.735   1.512   9.857 -1.3976  0.2119  3.3992
   25CHL1    C8 1790   4.845   1.698   9.803  0.2613  0.6745 -0.1535
   25CHL1    H8 1791   4.955   1.715   9.810  0.4102 -0.6708  1.4108
   25CHL1   C14 1792   4.801   1.681   9.655 -0.1345  0.2341 -0.4420
   25CHL1   H14 1793   4.693   1.656   9.653 -0.1170  0.1822 -0.9753
   25CHL1   C15 1794   4.855   1.563   9.566  0.4099 -0.4478  0.2449
   25CHL1  H15A 1795   4.964   1.555   9.586  0.4979 -0.6698 -0.3111
   25CHL1  H15B 1796   4.797   1.470   9.583  1.0588 -1.1876 -1.4116
   25CHL1   C16 1797   4.824   1.619   9.424  0.1831 -0.5174 -0.2369
   25CHL1  H16A 1798   4.906   1.609   9.350  1.2676 -0.0056  0.8383
   25CHL1  H16B 1799   4.744   1.555   9.384 -0.1785 -1.2460  1.5420
   25CHL1   C17 1800   4.759   1.760   9.437  0.0389  0.0134  0.1775
   25CHL1   H17 1801   4.648   1.752   9.442 -0.0113 -1.0195 -1.7992
   25CHL1   C13 1802   4.811   1.809   9.573  0.5358  0.4687 -0.5828
   25CHL1   C18 1803   4.959   1.849   9.555 -0.4702 -0.5717 -0.5210
   25CHL1  H18A 1804   5.010   1.869   9.652 -0.5381 -0.0066 -0.5973
   25CHL1  H18B 1805   5.016   1.763   9.514  1.4820  0.3739  0.0837
   25CHL1  H18C 1806   4.975   1.940   9.494  0.3006  0.6926  1.4480
   25CHL1   C12 1807   4.740   1.928   9.643  0.9194 -0.0756  0.4068
   25CHL1  H12A 1808   4.756   2.023   9.588  1.5295  0.4313  1.4292
   25CHL1  H12B 1809   4.631   1.907   9.646  0.9430 -0.3124 -0.1995
   25CHL1   C11 1810   4.791   1.951   9.788  0.2855 -0.1755 -0.2398
   25CHL1  H11A 1811   4.899   1.974   9.782  0.3490 -0.5332 -0.4728
   25CHL1  H11B 1812   4.744   2.043   9.830 -0.4079  0.3258 -1.9896
   25CHL1    C9 1813   4.782   1.820   9.866 -0.6595 -0.1014 -0.5121
   25CHL1    H9 1814   4.675   1.791   9.863 -0.0336 -2.8155  0.3961
   25CHL1   C10 1815   4.812   1.838  10.018 -0.2625 -0.3016  0.3215
   25CHL1   C19 1816   4.947   1.910  10.042  0.0586 -0.2965 -0.7970
   25CHL1  H19A 1817   4.952   2.011   9.997  1.2396 -0.5742 -1.3145
   25CHL1  H19B 1818   4.987   1.921  10.145  1.2230  2.3618 -1.4615
   25CHL1  H19C 1819   5.028   1.849   9.997  0.6159 -0.3921  0.3124
   25CHL1    C1 1820   4.699   1.911  10.090 -0.0788  0.3407  0.4220
   25CHL1   H1A 1821   4.695   2.007  10.035  1.7575 -0.2321 -0.8148
   25CHL1   H1B 1822   4.606   1.856  10.065 -0.1487 -0.2527  1.8705
   25CHL1    C2 1823   4.703   1.925  10.242  0.1786  0.0243 -0.6192
   25CHL1   H2A 1824   4.617   1.979  10.287 -0.7687 -1.5328 -0.4883
   25CHL1   H2B 1825   4.795   1.982  10.268 -1.4511  1.2700  3.1581
   25CHL1   C20 1826   4.778   1.837   9.301  0.4813 -0.0376  0.1120
   25CHL1   H20 1827   4.887   1.853   9.284  1.1202  0.4819  3.8099
   25CHL1   C21 1828   4.719   1.973   9.322 -0.2948 -0.4296  0.3883
   25CHL1  H21A 1829   4.718   2.030   9.227  1.5027 -0.9270  0.0369
   25CHL1  H21B 1830   4.784   2.026   9.394  0.7345 -2.3400  0.9358
   25CHL1  H21C 1831   4.619   1.955   9.368 -1.2218  0.4718 -1.1774
   25CHL1   C22 1832   4.708   1.757   9.183 -0.5312 -0.0929  0.2180
   25CHL1  H22A 1833   4.757   1.658   9.169  0.6567  0.6087 -0.9219
   25CHL1  H22B 1834   4.599   1.745   9.199 -0.9917  2.5037 -0.4936
   25CHL1   C23 1835   4.708   1.808   9.038 -0.0187 -0.1194  0.4477
   25CHL1  H23A 1836   4.669   1.722   8.979 -0.6032 -0.3686  1.1806
   25CHL1  H23B 1837   4.632   1.889   9.033  0.1346  0.0802  1.3130
   25CHL1   C24 1838   4.841   1.860   8.978 -0.3390  0.2891 -0.5628
   25CHL1  H24A 1839   4.860   1.946   9.046 -1.6046  0.0550  0.1181
   25CHL1  H24B 1840   4.918   1.782   8.992  0.2157  0.8298 -0.5174
   25CHL1   C25 1841   4.838   1.903   8.833  0.0686 -0.5591  0.3083
   25CHL1   H25 1842   4.941   1.934   8.806 -0.2071  0.2001  0.0819
   25CHL1   C26 1843   4.792   1.785   8.743 -0.1368 -0.0092 -0.1403
   25CHL1  H26A 1844   4.789   1.812   8.635  0.3350 -2.0406 -0.7006
   25CHL1  H26B 1845   4.859   1.697   8.744 -0.8752 -0.5673  0.6998
   25CHL1  H26C 1846   4.691   1.757   8.779 -0.0916  1.1804  0.9622
   25CHL1   C27 1847   4.745   2.031   8.825 -0.4351  0.6282 -0.3746
   25CHL1  H27A 1848   4.764   2.105   8.906  1.9209 -0.3095 -0.0112
   25CHL1  H27B 1849   4.779   2.078   8.731 -0.5607  2.3775  0.4089
   25CHL1  H27C 1850   4.635   2.021   8.812 -0.4724 -4.5238  1.7199
   26CHL1    C3 1851   6.531   5.825  10.068 -0.5147  0.2750  0.9362
   26CHL1    H3 1852   6.440   5.886  10.052 -0.2111  0.5238  0.1345
   26CHL1    O3 1853   6.572   5.874  10.189  0.3435 -1.0483 -0.3285
   26CHL1   H3' 1854   6.649   5.823  10.216  0.0734 -1.5549 -0.5065
   26CHL1    C4 1855   6.507   5.670  10.068 -0.2680 -0.0949  0.3757
   26CHL1   H4A 1856   6.596   5.622  10.114 -0.4686  0.2469  1.1510
   26CHL1   H4B 1857   6.423   5.653  10.139 -1.0721  0.6667 -0.3746
   26CHL1    C5 1858   6.470   5.625   9.925  0.1873  0.0537 -0.4423
   26CHL1    C6 1859   6.357   5.551   9.895  0.5589 -0.0869  0.3789
   26CHL1    H6 1860   6.284   5.532   9.976 -0.4733 -0.1691 -0.5538
   26CHL1    C7 1861   6.337   5.479   9.763  0.2085  0.0885  0.6948
   26CHL1   H7A 1862   6.286   5.381   9.775 -1.2438  0.6939 -0.1779
   26CHL1   H7B 1863   6.260   5.538   9.708  0.5559 -0.2216 -0.1289
   26CHL1    C8 1864   6.457   5.485   9.663  0.1808 -0.4644  0.1042
   26CHL1    H8 1865   6.534   5.411   9.697 -1.3184 -1.7263  0.9054
   26CHL1   C14 1866   6.417   5.456   9.519 -0.1734  0.7659 -0.0443
   26CHL1   H14 1867   6.340   5.533   9.497  1.1241  1.6089 -1.8884
   26CHL1   C15 1868   6.328   5.333   9.492 -0.4608 -0.3904  0.4745
   26CHL1  H15A 1869   6.361   5.246   9.552  0.3699 -1.1111 -0.9697
   26CHL1  H15B 1870   6.222   5.356   9.518 -0.3957 -1.1014  1.4243
   26CHL1   C16 1871   6.342   5.315   9.343  0.1849 -0.4881 -0.4713
   26CHL1  H16A 1872   6.377   5.211   9.322 -0.5835 -1.6499  3.2673
   26CHL1  H16B 1873   6.244   5.323   9.292  0.4649 -2.7136 -1.5029
   26CHL1   C17 1874   6.449   5.423   9.288 -0.9771 -0.0334 -0.1091
   26CHL1   H17 1875   6.397   5.516   9.258  1.9977  2.1489  0.9277
   26CHL1   C13 1876   6.532   5.466   9.416  0.2977  0.7625 -0.4311
   26CHL1   C18 1877   6.637   5.348   9.445 -0.0908  0.5314  0.6437
   26CHL1  H18A 1878   6.574   5.258   9.430 -0.2620  0.5989  0.9480
   26CHL1  H18B 1879   6.723   5.348   9.374  2.5404  0.5807  3.6181
   26CHL1  H18C 1880   6.688   5.351   9.544  0.0589 -0.1828  0.5890
   26CHL1   C12 1881   6.579   5.612   9.410 -0.1124 -0.4893 -0.7742
   26CHL1  H12A 1882   6.671   5.625   9.348  1.1691  1.8014  1.4117
   26CHL1  H12B 1883   6.491   5.678   9.394 -1.9417 -3.0782 -1.9689
   26CHL1   C11 1884   6.633   5.640   9.553  0.0787 -0.0052 -0.3817
   26CHL1  H11A 1885   6.715   5.568   9.572  0.0203 -0.2004 -0.8343
   26CHL1  H11B 1886   6.676   5.742   9.556  0.5971 -0.2055 -0.6669
   26CHL1    C9 1887   6.527   5.618   9.663  0.7065  0.3097  0.5947
   26CHL1    H9 1888   6.447   5.694   9.647 -0.1467 -0.0381  2.8845
   26CHL1   C10 1889   6.576   5.650   9.809  0.6032  0.0065 -0.3422
   26CHL1   C19 1890   6.710   5.576   9.837  0.5641  0.7757 -0.2795
   26CHL1  H19A 1891   6.710   5.470   9.804  0.8434  0.3940  0.8995
   26CHL1  H19B 1892   6.790   5.626   9.778  1.7604  1.7037  1.9800
   26CHL1  H19C 1893   6.733   5.579   9.946 -1.6216 -0.5128  0.2829
   26CHL1    C1 1894   6.588   5.804   9.819  0.3232  0.9250  0.1272
   26CHL1   H1A 1895   6.674   5.824   9.750  0.6985  0.0148  0.3187
   26CHL1   H1B 1896   6.494   5.858   9.797 -0.7011 -1.0881 -0.7682
   26CHL1    C2 1897   6.637   5.852   9.959  0.7172  0.0213 -0.5454
   26CHL1   H2A 1898   6.663   5.960   9.946  0.3964  0.7416  3.4122
   26CHL1   H2B 1899   6.726   5.792   9.989  0.2492 -0.9239 -1.0210
   26CHL1   C20 1900   6.520   5.377   9.164 -0.4233  0.2026  0.2956
   26CHL1   H20 1901   6.582   5.286   9.175 -1.3543 -0.3558  1.0560
   26CHL1   C21 1902   6.609   5.496   9.112  0.6465 -0.2553  0.1186
   26CHL1  H21A 1903   6.557   5.590   9.138 -0.4786 -1.3713  2.2286
   26CHL1  H21B 1904   6.624   5.490   9.003  1.2828  2.3207  0.0065
   26CHL1  H21C 1905   6.709   5.498   9.161  1.2579  0.5642 -1.1482
   26CHL1   C22 1906   6.419   5.349   9.047 -0.1025  0.4133 -0.2526
   26CHL1  H22A 1907   6.340   5.280   9.084  1.2875 -1.0696  0.0139
   26CHL1  H22B 1908   6.368   5.439   9.005 -0.6494 -0.3696 -1.3120
   26CHL1   C23 1909   6.485   5.265   8.937 -0.4666  0.1300 -0.2292
   26CHL1  H23A 1910   6.559   5.333   8.889 -0.2667  1.3095  1.6344
   26CHL1  H23B 1911   6.538   5.182   8.988 -0.0616 -0.3188 -1.3520
   26CHL1   C24 1912   6.379   5.220   8.836  1.0723 -0.2427  0.3319
   26CHL1  H24A 1913   6.302   5.157   8.885 -1.4888  0.4696 -2.4714
   26CHL1  H24B 1914   6.325   5.306   8.791  3.0915 -0.1295 -2.1005
   26CHL1   C25 1915   6.430   5.142   8.713  0.1838 -0.2401  0.5383
   26CHL1   H25 1916   6.512   5.196   8.661 -1.2886 -0.2297 -1.9525
   26CHL1   C26 1917   6.474   5.006   8.757  0.2951  0.0730  0.3370
   26CHL1  H26A 1918   6.537   4.953   8.682  0.5987  0.7339  0.1179
   26CHL1  H26B 1919   6.549   5.017   8.838 -0.3757  0.6401  0.8930
   26CHL1  H26C 1920   6.390   4.942   8.792 -0.4426 -0.0833 -1.5411
   26CHL1   C27 1921   6.321   5.138   8.603  0.0975  0.1993 -0.4098
   26CHL1  H27A 1922   6.349   5.080   8.512  1.2875  0.7194 -0.4031
   26CHL1  H27B 1923   6.226   5.104   8.649 -0.4188  0.3820 -1.3187
   26CHL1  H27C 1924   6.304   5.239   8.560  2.8689  1.7678  1.7577
   27CHL1    C3 1925   6.102   3.431  10.241 -0.2436 -0.1956 -0.3816
   27CHL1    H3 1926   6.058   3.333  10.214 -1.0022 -0.1715  0.7073
   27CHL1    O3 1927   6.072   3.453  10.381 -0.3748  0.5210  0.2156
   27CHL1   H3' 1928   6.153   3.451  10.431  2.0686  2.3833 -3.2361
   27CHL1    C4 1929   6.251   3.457  10.224  0.1679  0.7184 -0.9700
   27CHL1   H4A 1930   6.271   3.561  10.259  2.3743 -0.3010  1.1073
   27CHL1   H4B 1931   6.311   3.391  10.290 -1.0304 -1.2808 -1.7681
   27CHL1    C5 1932   6.292   3.444  10.081  0.4395 -0.1123  0.5424
   27CHL1    C6 1933   6.383   3.355  10.035 -0.1766 -0.5809  0.4816
   27CHL1    H6 1934   6.420   3.281  10.108 -0.6591 -0.8216  0.4858
   27CHL1    C7 1935   6.417   3.337   9.888  0.6617  0.0603 -0.0954
   27CHL1   H7A 1936   6.526   3.320   9.869  0.3663 -3.2146  0.4713
   27CHL1   H7B 1937   6.370   3.244   9.849  0.1718  0.6788 -1.0234
   27CHL1    C8 1938   6.370   3.451   9.796  0.0850  0.5617 -0.0496
   27CHL1    H8 1939   6.427   3.541   9.829 -3.3043  2.2481  1.8616
   27CHL1   C14 1940   6.391   3.414   9.652 -0.0842  0.4716 -0.0952
   27CHL1   H14 1941   6.333   3.322   9.630  1.0524 -0.8757  2.1757
   27CHL1   C15 1942   6.524   3.357   9.587  0.5966  0.0827 -0.6190
   27CHL1  H15A 1943   6.611   3.410   9.630  0.5866 -0.1025 -0.3623
   27CHL1  H15B 1944   6.531   3.248   9.611 -0.1491  0.1622 -0.0122
   27CHL1   C16 1945   6.503   3.370   9.435 -0.0269 -0.0316 -0.3870
   27CHL1  H16A 1946   6.588   3.436   9.407  0.0370  0.7045  1.4270
   27CHL1  H16B 1947   6.505   3.274   9.380 -2.2792 -0.6944  0.5747
   27CHL1   C17 1948   6.358   3.435   9.420 -0.4251  0.2218  0.2464
   27CHL1   H17 1949   6.279   3.357   9.429 -0.4881  0.3332  0.6822
   27CHL1   C13 1950   6.333   3.516   9.550 -0.2356  0.0619  0.3351
   27CHL1   C18 1951   6.417   3.640   9.550 -0.6372  0.5553 -0.6117
   27CHL1  H18A 1952   6.417   3.677   9.654  2.6090 -3.7158  1.1994
   27CHL1  H18B 1953   6.524   3.622   9.523 -0.4705 -0.4191  0.6297
   27CHL1  H18C 1954   6.370   3.705   9.473 -1.1272 -0.1265 -0.8988
   27CHL1   C12 1955   6.188   3.546   9.576  0.4479  0.0536  0.0243
   27CHL1  H12A 1956   6.145   3.630   9.518  1.8410 -0.5364 -1.9567
   27CHL1  H12B 1957   6.133   3.449   9.571  1.1617 -0.4713  1.5770
   27CHL1   C11 1958   6.161   3.590   9.723 -0.4782 -0.4484  0.0488
   27CHL1  H11A 1959   6.192   3.695   9.737  0.9254 -0.7441 -0.6651
   27CHL1  H11B 1960   6.052   3.586   9.747 -0.2609  1.5698  1.5986
   27CHL1    C9 1961   6.223   3.489   9.829  0.1240 -0.0778  0.4563
   27CHL1    H9 1962   6.161   3.399   9.811 -0.4056  0.5903 -1.1929
   27CHL1   C10 1963   6.211   3.534   9.976 -0.0682  0.4521  0.1674
   27CHL1   C19 1964   6.243   3.680  10.000 -0.3678 -0.8737  0.2155
   27CHL1  H19A 1965   6.170   3.738   9.940 -0.9281 -0.8595  0.9033
   27CHL1  H19B 1966   6.244   3.707  10.108  0.7812 -1.7679  0.4531
   27CHL1  H19C 1967   6.348   3.707   9.973 -1.1220  3.1301  0.6007
   27CHL1    C1 1968   6.059   3.514  10.008 -0.1135 -0.0706  0.0765
   27CHL1   H1A 1969   5.997   3.588   9.954  1.0478  1.6755  1.0624
   27CHL1   H1B 1970   6.029   3.415   9.967 -1.3360  0.0842  0.5507
   27CHL1    C2 1971   6.019   3.527  10.153  0.1700 -0.0412 -0.5511
   27CHL1   H2A 1972   5.910   3.508  10.159  0.2951 -0.3018  1.6944
   27CHL1   H2B 1973   6.041   3.624  10.204 -0.0046 -0.3448  0.1180
   27CHL1   C20 1974   6.343   3.497   9.283 -0.1891  0.1390  0.2559
   27CHL1   H20 1975   6.413   3.583   9.272 -0.2170  0.0683 -0.5792
   27CHL1   C21 1976   6.203   3.553   9.252 -0.3140 -0.1746 -0.1285
   27CHL1  H21A 1977   6.182   3.638   9.321  1.5361 -0.2284  0.5574
   27CHL1  H21B 1978   6.124   3.476   9.269 -0.4109  0.1924  1.2272
   27CHL1  H21C 1979   6.192   3.595   9.150 -0.8478  0.8298  0.3202
   27CHL1   C22 1980   6.380   3.394   9.168  0.4251 -0.0493 -0.1028
   27CHL1  H22A 1981   6.481   3.352   9.186  0.4552  0.5499  1.2736
   27CHL1  H22B 1982   6.301   3.315   9.176  1.1935 -0.8251  0.0004
   27CHL1   C23 1983   6.377   3.451   9.027  0.8249  0.2769  0.0931
   27CHL1  H23A 1984   6.272   3.469   8.995  0.5327  2.4756  2.0497
   27CHL1  H23B 1985   6.433   3.547   9.024 -0.7490  1.2211 -2.7052
   27CHL1   C24 1986   6.435   3.353   8.923  0.4285 -0.8522 -0.4593
   27CHL1  H24A 1987   6.537   3.327   8.958  0.9684  0.3910 -1.0109
   27CHL1  H24B 1988   6.376   3.262   8.901 -1.7740  0.6357 -1.0198
   27CHL1   C25 1989   6.456   3.412   8.784  0.4475 -0.2801  0.8595
   27CHL1   H25 1990   6.523   3.501   8.781  0.9821 -0.7039 -0.3991
   27CHL1   C26 1991   6.531   3.306   8.700  0.4379  0.5117  0.1161
   27CHL1  H26A 1992   6.635   3.280   8.730 -0.6065 -1.3247  2.4392
   27CHL1  H26B 1993   6.464   3.219   8.686  0.6824  0.3642 -0.1390
   27CHL1  H26C 1994   6.542   3.361   8.604  0.1767  1.0257  0.3748
   27CHL1   C27 1995   6.328   3.476   8.726 -0.2461 -0.0837 -0.0140
   27CHL1  H27A 1996   6.338   3.489   8.616  1.3633  1.9943  0.3084
   27CHL1  H27B 1997   6.233   3.424   8.751 -0.8140  1.2581  0.7589
   27CHL1  H27C 1998   6.312   3.579   8.763 -0.8620  0.0992 -0.7587
   28CHL1    C3 1999   5.248   0.992  10.220  0.8778 -0.2699  0.5171
   28CHL1    H3 2000   5.282   1.086  10.170 -0.6623 -0.0061 -0.0686
   28CHL1    O3 2001   5.252   1.017  10.360  0.5303  0.2352 -0.4113
   28CHL1   H3' 2002   5.256   0.928  10.396 -1.8500  0.1171 -0.2668
   28CHL1    C4 2003   5.110   0.941  10.184 -1.2484 -0.4482  0.4847
   28CHL1   H4A 2004   5.081   0.865  10.259 -0.7435  0.9665  2.2023
   28CHL1   H4B 2005   5.037   1.023  10.202  0.6964  1.8136 -1.2584
   28CHL1    C5 2006   5.099   0.905  10.035 -0.2474 -0.1779 -1.4355
   28CHL1    C6 2007   5.012   0.973   9.958  0.1905  0.5931  0.1582
   28CHL1    H6 2008   4.948   1.051  10.001  0.6672  1.4102 -0.5941
   28CHL1    C7 2009   5.006   0.933   9.810  1.0199 -1.2076 -0.0001
   28CHL1   H7A 2010   4.901   0.927   9.773  0.7620  0.3137  0.4029
   28CHL1   H7B 2011   5.050   1.021   9.757  0.4424 -0.4790  0.6953
   28CHL1    C8 2012   5.072   0.802   9.773 -0.1563 -0.0631 -0.1523
   28CHL1    H8 2013   5.004   0.726   9.817  0.0890 -1.2328 -1.7266
   28CHL1   C14 2014   5.088   0.782   9.627  0.4223 -0.6206  0.3869
   28CHL1   H14 2015   5.149   0.863   9.582 -2.0384  0.2631 -1.6304
   28CHL1   C15 2016   4.953   0.792   9.545 -0.6020 -0.3699  0.5985
   28CHL1  H15A 2017   4.876   0.732   9.599 -1.3214  0.9080  1.0314
   28CHL1  H15B 2018   4.910   0.894   9.538 -1.2947 -0.7476 -1.0651
   28CHL1   C16 2019   4.983   0.730   9.407  0.0671  0.1000  0.7739
   28CHL1  H16A 2020   4.908   0.654   9.376 -0.0937 -0.8494  3.2326
   28CHL1  H16B 2021   4.988   0.804   9.324 -0.2813  0.3735  0.9946
   28CHL1   C17 2022   5.126   0.661   9.421 -0.3480  0.0985 -0.0058
   28CHL1   H17 2023   5.192   0.744   9.387 -0.5240  1.2345  2.2522
   28CHL1   C13 2024   5.148   0.646   9.574 -0.0681  0.0289  0.0212
   28CHL1   C18 2025   5.057   0.526   9.622 -0.6308 -0.1512 -0.3564
   28CHL1  H18A 2026   5.101   0.425   9.613 -3.1039 -1.3446  0.1935
   28CHL1  H18B 2027   5.032   0.534   9.729 -2.7109 -0.5268 -0.7740
   28CHL1  H18C 2028   4.956   0.522   9.575 -1.2779  0.5915  0.9217
   28CHL1   C12 2029   5.293   0.648   9.631  0.5645 -0.1749 -0.4697
   28CHL1  H12A 2030   5.348   0.556   9.601 -0.3594 -1.0459  0.4324
   28CHL1  H12B 2031   5.345   0.734   9.584  1.0918  1.2335  2.4624
   28CHL1   C11 2032   5.292   0.668   9.785  0.4153 -1.1101 -0.8922
   28CHL1  H11A 2033   5.230   0.582   9.819 -0.0486  0.4308  2.5890
   28CHL1  H11B 2034   5.394   0.659   9.827 -0.2216 -1.5194  0.6344
   28CHL1    C9 2035   5.217   0.791   9.838 -0.5093  0.6874  0.1219
   28CHL1    H9 2036   5.269   0.880   9.798  1.1893  0.0334  0.7962
   28CHL1   C10 2037   5.207   0.803   9.985 -1.1191 -0.2684  0.6471
   28CHL1   C19 2038   5.166   0.671  10.059 -0.5424 -0.4163  0.6619
   28CHL1  H19A 2039   5.073   0.634  10.011 -0.4704  0.6080 -0.3220
   28CHL1  H19B 2040   5.253   0.603  10.055 -0.1157  0.1080  0.9736
   28CHL1  H19C 2041   5.148   0.679  10.169 -0.7468  1.2532  0.5445
   28CHL1    C1 2042   5.354   0.847  10.033 -0.3766  0.0889  0.1114
   28CHL1   H1A 2043   5.427   0.764  10.017 -0.3321  0.1222  0.1421
   28CHL1   H1B 2044   5.389   0.933   9.973 -2.4871  0.6687 -0.3576
   28CHL1    C2 2045   5.354   0.888  10.186 -0.8188 -0.8490 -0.2942
   28CHL1   H2A 2046   5.453   0.925  10.218 -0.3961 -0.6450 -1.7832
   28CHL1   H2B 2047   5.331   0.793  10.240 -1.9786 -0.6711 -0.4562
   28CHL1   C20 2048   5.171   0.540   9.333  0.3357  0.3501 -0.3697
   28CHL1   H20 2049   5.160   0.452   9.401 -0.0234  0.4973 -0.2331
   28CHL1   C21 2050   5.321   0.564   9.305  0.4748  0.3408  0.7929
   28CHL1  H21A 2051   5.326   0.647   9.232 -0.4115 -0.3457 -0.0715
   28CHL1  H21B 2052   5.368   0.474   9.259  1.4459  1.3010 -0.1615
   28CHL1  H21C 2053   5.393   0.589   9.386  1.5811  0.9000 -0.3252
   28CHL1   C22 2054   5.084   0.521   9.209  0.4329 -0.1690 -0.0595
   28CHL1  H22A 2055   5.135   0.437   9.159 -0.4137 -0.6043 -0.2127
   28CHL1  H22B 2056   4.981   0.487   9.233 -0.0305  0.7799 -0.6244
   28CHL1   C23 2057   5.083   0.636   9.099 -0.8686 -0.4874  0.0886
   28CHL1  H23A 2058   5.097   0.733   9.151  1.9097 -1.7617  1.9528
   28CHL1  H23B 2059   5.179   0.617   9.045 -0.0861 -1.8183  1.8446
   28CHL1   C24 2060   4.970   0.622   9.000 -0.6192 -0.1522 -0.0194
   28CHL1  H24A 2061   4.989   0.543   8.924  2.0220 -0.0402  0.4503
   28CHL1  H24B 2062   4.874   0.590   9.047  0.4457  0.3084  2.6455
   28CHL1   C25 2063   4.934   0.756   8.937 -0.7425  0.1133  0.6339
   28CHL1   H25 2064   5.023   0.808   8.894  0.2691  0.0885  2.5855
   28CHL1   C26 2065   4.854   0.734   8.806 -0.5477  0.4476  0.2834
   28CHL1  H26A 2066   4.909   0.665   8.739  0.1162  0.8921  0.3528
   28CHL1  H26B 2067   4.760   0.684   8.835 -0.7246  1.1338  0.9288
   28CHL1  H26C 2068   4.833   0.829   8.753 -0.7684 -0.0071 -0.4523
   28CHL1   C27 2069   4.862   0.850   9.033 -0.1871 -0.2627 -0.0656
   28CHL1  H27A 2070   4.939   0.894   9.100 -2.1790  0.4564  1.9138
   28CHL1  H27B 2071   4.816   0.933   8.974  1.3727  0.3108 -0.5123
   28CHL1  H27C 2072   4.780   0.796   9.086 -1.9903  1.9138 -0.4677
   29CHL1    C3 2073   2.996   6.537   6.572  0.0156  0.2769  0.0433
   29CHL1    H3 2074   3.071   6.618   6.559 -0.6714  1.0160  0.6137
   29CHL1    O3 2075   2.956   6.487   6.445  0.2742  0.1483  0.6933
   29CHL1   H3' 2076   2.916   6.561   6.399  0.9916  0.2190  0.1750
   29CHL1    C4 2077   3.068   6.431   6.650 -0.1132  0.4802 -0.1715
   29CHL1   H4A 2078   3.008   6.339   6.664 -0.0595  0.7676  2.3328
   29CHL1   H4B 2079   3.157   6.409   6.587  2.6210  0.6067  3.3652
   29CHL1    C5 2080   3.107   6.490   6.780 -0.0280 -0.3661  0.1508
   29CHL1    C6 2081   3.236   6.502   6.820  0.0924  0.0318  0.4295
   29CHL1    H6 2082   3.322   6.469   6.758  2.2762  1.7717  2.3417
   29CHL1    C7 2083   3.284   6.552   6.954  0.6642  0.4824 -0.1430
   29CHL1   H7A 2084   3.369   6.498   7.001  0.0760  0.5114  1.0062
   29CHL1   H7B 2085   3.313   6.659   6.952  1.5200  0.2976 -3.6863
   29CHL1    C8 2086   3.160   6.548   7.049 -0.5236  0.0446 -1.1081
   29CHL1    H8 2087   3.151   6.437   7.055  1.0111 -0.0177  0.4696
   29CHL1   C14 2088   3.210   6.599   7.186  0.3155  0.1737 -0.0481
   29CHL1   H14 2089   3.236   6.705   7.167 -1.2493  0.1289 -2.9230
   29CHL1   C15 2090   3.338   6.539   7.251  0.3390 -0.1873 -0.4758
   29CHL1  H15A 2091   3.344   6.428   7.250  0.3329 -0.3359  3.2327
   29CHL1  H15B 2092   3.422   6.582   7.193  0.3697  0.2246 -0.1294
   29CHL1   C16 2093   3.328   6.586   7.401 -0.3819 -0.5056 -0.3972
   29CHL1  H16A 2094   3.325   6.499   7.471 -1.3587  1.7485  2.5581
   29CHL1  H16B 2095   3.406   6.659   7.431 -2.3745  1.9138 -0.8056
   29CHL1   C17 2096   3.188   6.652   7.418  0.9086 -0.1650 -0.3937
   29CHL1   H17 2097   3.199   6.758   7.389  0.7833 -0.7782 -2.9834
   29CHL1   C13 2098   3.098   6.603   7.294 -0.9460  0.6804 -0.7953
   29CHL1   C18 2099   3.047   6.459   7.316  0.1158  0.3387 -0.1097
   29CHL1  H18A 2100   2.965   6.450   7.391  0.1492  0.5970 -0.0405
   29CHL1  H18B 2101   3.005   6.423   7.219  0.1887  0.1586 -0.0735
   29CHL1  H18C 2102   3.131   6.396   7.351  0.5991  1.5175  0.8960
   29CHL1   C12 2103   2.987   6.692   7.240  0.9152 -1.3020  0.4582
   29CHL1  H12A 2104   2.900   6.703   7.309 -0.1625 -1.7108 -0.7951
   29CHL1  H12B 2105   3.017   6.799   7.232  1.7073 -1.5093  0.5722
   29CHL1   C11 2106   2.928   6.644   7.106  0.3931  0.0395 -0.1575
   29CHL1  H11A 2107   2.867   6.556   7.136  0.9854  0.0423  1.1396
   29CHL1  H11B 2108   2.845   6.706   7.068 -0.6088 -0.0979  1.7184
   29CHL1    C9 2109   3.040   6.622   6.997 -0.3767  0.2100  0.3209
   29CHL1    H9 2110   3.070   6.727   6.977 -2.1148  0.7152  0.2524
   29CHL1   C10 2111   2.996   6.546   6.871  0.5856  0.1880  1.1006
   29CHL1   C19 2112   2.898   6.430   6.906  0.2837  0.7746  0.1733
   29CHL1  H19A 2113   2.799   6.461   6.944 -0.4880 -1.0711 -0.1968
   29CHL1  H19B 2114   2.880   6.364   6.818 -1.1636 -2.3010  2.5544
   29CHL1  H19C 2115   2.948   6.375   6.989 -0.9032 -0.2272  0.2606
   29CHL1    C1 2116   2.914   6.645   6.784  0.4670  0.1544  0.3085
   29CHL1   H1A 2117   2.822   6.678   6.836  0.2474 -0.0016  0.0196
   29CHL1   H1B 2118   2.979   6.735   6.775  0.2902  0.2445 -0.0548
   29CHL1    C2 2119   2.877   6.603   6.647  0.2030  0.7605  0.5161
   29CHL1   H2A 2120   2.838   6.687   6.586  0.2804  0.8335  0.5677
   29CHL1   H2B 2121   2.795   6.528   6.648 -0.7104  1.7255  2.2533
   29CHL1   C20 2122   3.124   6.648   7.558  0.6266 -0.2050 -0.3318
   29CHL1   H20 2123   3.103   6.541   7.579  0.1671 -0.7486 -3.2020
   29CHL1   C21 2124   2.987   6.709   7.559 -0.4097 -0.2317  0.6655
   29CHL1  H21A 2125   2.921   6.646   7.495 -1.0862  0.1439  0.9805
   29CHL1  H21B 2126   2.977   6.816   7.530  2.5572 -0.0121  0.2188
   29CHL1  H21C 2127   2.945   6.712   7.662  0.4952  1.4683  1.0148
   29CHL1   C22 2128   3.204   6.720   7.670 -0.3288  0.3172 -0.8225
   29CHL1  H22A 2129   3.307   6.679   7.662 -0.2843 -0.4465  2.3459
   29CHL1  H22B 2130   3.209   6.829   7.650  0.3484 -0.0462 -2.7449
   29CHL1   C23 2131   3.158   6.687   7.813  0.4914  0.4066 -0.3331
   29CHL1  H23A 2132   3.051   6.711   7.832  0.4892  0.4007 -0.3374
   29CHL1  H23B 2133   3.158   6.576   7.816 -1.0572  0.3929  0.0017
   29CHL1   C24 2134   3.251   6.753   7.921 -0.2691 -0.2046  0.6784
   29CHL1  H24A 2135   3.350   6.789   7.886  0.2098 -0.0580  2.1322
   29CHL1  H24B 2136   3.202   6.842   7.965  1.0286  0.0155  1.7185
   29CHL1   C25 2137   3.285   6.659   8.038 -0.2865 -0.4964 -0.2899
   29CHL1   H25 2138   3.193   6.603   8.063 -0.2352  0.9419  3.8692
   29CHL1   C26 2139   3.397   6.556   7.999 -0.1773 -0.7718 -0.3255
   29CHL1  H26A 2140   3.378   6.503   7.903  0.1086 -0.9934 -0.2632
   29CHL1  H26B 2141   3.490   6.615   7.989 -1.6431  1.3226 -2.5555
   29CHL1  H26C 2142   3.412   6.484   8.083  0.7145  0.8835  0.9897
   29CHL1   C27 2143   3.330   6.738   8.155 -0.6697  0.5061 -0.6244
   29CHL1  H27A 2144   3.355   6.671   8.240 -0.1264  2.4324  0.8254
   29CHL1  H27B 2145   3.425   6.794   8.140  0.9936 -1.5088  1.5953
   29CHL1  H27C 2146   3.261   6.817   8.194 -1.7492 -1.0243  0.7044
   30CHL1    C3 2147   2.399   4.075   7.010 -0.7185 -0.4600 -0.0376
   30CHL1    H3 2148   2.430   3.971   7.035  0.5991 -0.5225 -1.7089
   30CHL1    O3 2149   2.328   4.073   6.890 -0.6407 -0.4103 -0.0486
   30CHL1   H3' 2150   2.342   4.158   6.847  1.8022 -0.5444  0.3431
   30CHL1    C4 2151   2.308   4.106   7.136  0.8281 -0.0474  0.1875
   30CHL1   H4A 2152   2.260   4.204   7.114 -0.3665 -0.1851  1.9765
   30CHL1   H4B 2153   2.225   4.032   7.140  0.0977  0.8007  1.6149
   30CHL1    C5 2154   2.378   4.130   7.269  0.2488  0.0601  0.0384
   30CHL1    C6 2155   2.335   4.070   7.384 -0.0065  0.4391  0.3787
   30CHL1    H6 2156   2.257   3.993   7.380 -0.7680  1.2259 -0.1750
   30CHL1    C7 2157   2.398   4.095   7.515 -0.0917  0.1945 -0.1480
   30CHL1   H7A 2158   2.330   4.104   7.602 -0.7616 -0.0465 -0.6380
   30CHL1   H7B 2159   2.458   4.007   7.547 -0.8746  0.0952  1.1066
   30CHL1    C8 2160   2.494   4.215   7.518  0.0760  0.0567 -1.0326
   30CHL1    H8 2161   2.430   4.305   7.528  1.1342  0.7383 -0.1459
   30CHL1   C14 2162   2.586   4.195   7.644 -0.5959  0.3011 -0.2518
   30CHL1   H14 2163   2.650   4.110   7.613  2.0878  1.0440  2.6987
   30CHL1   C15 2164   2.536   4.167   7.786 -0.3007  0.1121  0.3935
   30CHL1  H15A 2165   2.453   4.238   7.808  0.7742  1.7904 -0.6987
   30CHL1  H15B 2166   2.499   4.063   7.796  0.8007 -0.1215  2.7230
   30CHL1   C16 2167   2.644   4.186   7.888  0.8255  0.8438  0.3023
   30CHL1  H16A 2168   2.612   4.239   7.980 -0.1006 -1.4858  1.3966
   30CHL1  H16B 2169   2.680   4.084   7.914 -0.1426  0.9648  2.2643
   30CHL1   C17 2170   2.750   4.259   7.803 -0.3238 -0.3204  0.2442
   30CHL1   H17 2171   2.822   4.184   7.763 -0.5762 -1.1399  1.2754
   30CHL1   C13 2172   2.694   4.306   7.667  0.5261 -0.5562 -0.6020
   30CHL1   C18 2173   2.617   4.440   7.702 -0.0106  0.9975 -1.3694
   30CHL1  H18A 2174   2.677   4.524   7.741 -2.6098  1.5479  1.8428
   30CHL1  H18B 2175   2.568   4.475   7.609  0.9007  2.8188 -1.2065
   30CHL1  H18C 2176   2.546   4.418   7.784 -1.2796 -0.6190 -2.8215
   30CHL1   C12 2177   2.784   4.305   7.546 -0.6570  0.4995  0.4167
   30CHL1  H12A 2178   2.871   4.374   7.552 -1.5546  1.8224 -1.0418
   30CHL1  H12B 2179   2.834   4.207   7.533 -1.0418  0.3592 -0.0319
   30CHL1   C11 2180   2.703   4.333   7.416 -0.9929  0.6758 -0.3939
   30CHL1  H11A 2181   2.674   4.441   7.419  1.2990  1.3169  1.5811
   30CHL1  H11B 2182   2.775   4.326   7.332 -0.4310  1.3143  0.0271
   30CHL1    C9 2183   2.588   4.226   7.393  0.3638 -0.0520  0.3212
   30CHL1    H9 2184   2.649   4.133   7.386  3.5943  1.9422 -0.0808
   30CHL1   C10 2185   2.501   4.227   7.264  0.3415  0.1853  0.0945
   30CHL1   C19 2186   2.448   4.372   7.249  0.0448 -0.2399 -0.3978
   30CHL1  H19A 2187   2.351   4.376   7.195  0.5538  1.1022 -1.2517
   30CHL1  H19B 2188   2.425   4.414   7.349  0.9203  0.4867 -0.4914
   30CHL1  H19C 2189   2.528   4.440   7.212 -3.1046  3.7311 -0.5360
   30CHL1    C1 2190   2.592   4.195   7.141  0.2068 -0.9442 -0.3110
   30CHL1   H1A 2191   2.656   4.284   7.124 -0.3229 -0.4102  0.4136
   30CHL1   H1B 2192   2.663   4.116   7.172  1.2016 -0.1282 -0.4766
   30CHL1    C2 2193   2.515   4.168   7.007 -0.2600  0.1049  0.0974
   30CHL1   H2A 2194   2.593   4.140   6.933  2.9857  4.5717  1.3892
   30CHL1   H2B 2195   2.471   4.260   6.962  3.0263  1.1113 -1.4229
   30CHL1   C20 2196   2.846   4.357   7.873 -0.1249  0.1538 -0.0517
   30CHL1   H20 2197   2.891   4.416   7.790  0.5427  2.7415  2.0019
   30CHL1   C21 2198   2.961   4.274   7.938  0.0717 -1.0107 -0.9385
   30CHL1  H21A 2199   2.917   4.224   8.028  0.0628 -0.7652 -0.8054
   30CHL1  H21B 2200   3.049   4.340   7.953 -1.6343  0.8615  1.7615
   30CHL1  H21C 2201   2.996   4.189   7.876  0.0373 -0.9787 -1.0018
   30CHL1   C22 2202   2.787   4.450   7.983 -0.3700  0.0306 -0.1061
   30CHL1  H22A 2203   2.677   4.455   7.970 -0.3912  0.3822  0.1835
   30CHL1  H22B 2204   2.819   4.413   8.082 -3.3430  2.2787  1.8672
   30CHL1   C23 2205   2.848   4.592   7.973  0.0976  0.1795 -0.3248
   30CHL1  H23A 2206   2.958   4.604   7.981 -0.0644  0.5268  2.1305
   30CHL1  H23B 2207   2.817   4.621   7.870 -0.7155 -2.4716 -0.9005
   30CHL1   C24 2208   2.766   4.707   8.043 -0.1655 -0.0285  0.2324
   30CHL1  H24A 2209   2.676   4.732   7.984  0.5049 -1.3411 -1.4606
   30CHL1  H24B 2210   2.732   4.675   8.144 -0.8914  2.4377  0.8392
   30CHL1   C25 2211   2.851   4.837   8.058  0.9556  0.0345 -0.5882
   30CHL1   H25 2212   2.941   4.814   8.119  0.9739  0.1563 -0.5686
   30CHL1   C26 2213   2.899   4.875   7.911 -0.7304  0.0078 -0.0110
   30CHL1  H26A 2214   2.932   4.981   7.908 -0.2721 -0.0554  1.5330
   30CHL1  H26B 2215   2.991   4.819   7.883 -0.6788 -0.5514  1.2060
   30CHL1  H26C 2216   2.819   4.872   7.835 -1.3082 -0.6658  0.6029
   30CHL1   C27 2217   2.773   4.949   8.122  0.0786  0.2369 -0.2602
   30CHL1  H27A 2218   2.689   4.982   8.057  0.7676  2.0667 -0.2703
   30CHL1  H27B 2219   2.718   4.919   8.214  0.1623  0.1745 -0.2313
   30CHL1  H27C 2220   2.847   5.030   8.134 -0.5545  0.7379  0.3153
   31CHL1    C3 2221   0.675   0.671   6.700 -0.3039 -0.8200  0.0900
   31CHL1    H3 2222   0.778   0.703   6.676 -0.2138 -1.7572 -0.8260
   31CHL1    O3 2223   0.622   0.644   6.571  0.4814 -0.3309 -0.0298
   31CHL1   H3' 2224   0.675   0.576   6.530 -1.0284  0.2080 -3.1618
   31CHL1    C4 2225   0.684   0.544   6.788 -0.3799  0.1163 -1.0901
   31CHL1   H4A 2226   0.587   0.490   6.781  0.6291 -3.0116  3.9891
   31CHL1   H4B 2227   0.760   0.471   6.755  0.0271  0.5200 -1.0476
   31CHL1    C5 2228   0.702   0.567   6.939  0.2032 -0.6000  0.1981
   31CHL1    C6 2229   0.796   0.506   7.006  0.4714  0.0511 -0.1406
   31CHL1    H6 2230   0.869   0.440   6.958  1.3711 -0.9467  2.4323
   31CHL1    C7 2231   0.822   0.532   7.161  1.1437 -0.2598 -0.1042
   31CHL1   H7A 2232   0.848   0.434   7.208 -1.4099 -1.0794 -0.2799
   31CHL1   H7B 2233   0.916   0.591   7.171  1.0349  0.0116 -0.6588
   31CHL1    C8 2234   0.702   0.603   7.228 -0.1769  0.5310  0.2598
   31CHL1    H8 2235   0.617   0.532   7.236  0.0819  0.4177  2.7594
   31CHL1   C14 2236   0.741   0.653   7.369 -0.5616  0.6533  0.3131
   31CHL1   H14 2237   0.828   0.720   7.353 -1.0912  1.6501  1.4616
   31CHL1   C15 2238   0.800   0.555   7.480 -1.0988 -0.3751  0.1732
   31CHL1  H15A 2239   0.756   0.454   7.464  1.3170 -1.2739 -1.5768
   31CHL1  H15B 2240   0.906   0.532   7.453 -0.8952  1.4307 -0.6622
   31CHL1   C16 2241   0.775   0.619   7.615 -0.2421  0.5389  0.2359
   31CHL1  H16A 2242   0.711   0.546   7.671  0.1159 -0.4551 -0.6182
   31CHL1  H16B 2243   0.873   0.633   7.665 -0.0208 -0.8699  0.2399
   31CHL1   C17 2244   0.699   0.751   7.583 -0.1493 -0.0939 -0.5352
   31CHL1   H17 2245   0.788   0.817   7.568 -0.9233  0.9590 -0.6221
   31CHL1   C13 2246   0.642   0.735   7.441  0.5716  0.7989 -0.3504
   31CHL1   C18 2247   0.511   0.649   7.453 -0.1755 -0.2421 -0.1563
   31CHL1  H18A 2248   0.529   0.554   7.507  0.2529  0.4974  1.0256
   31CHL1  H18B 2249   0.439   0.711   7.510  1.9243  3.0840 -0.8858
   31CHL1  H18C 2250   0.461   0.622   7.357 -2.8304 -1.1952  1.3737
   31CHL1   C12 2251   0.615   0.859   7.356 -0.3164 -1.0130  0.4053
   31CHL1  H12A 2252   0.531   0.922   7.394 -1.6948 -0.0076 -3.7505
   31CHL1  H12B 2253   0.706   0.922   7.370 -0.2613 -1.5984  3.2733
   31CHL1   C11 2254   0.581   0.834   7.206  0.5372 -0.0853 -0.4659
   31CHL1  H11A 2255   0.473   0.805   7.198  0.5096  0.4691 -2.6842
   31CHL1  H11B 2256   0.596   0.925   7.145  2.8294 -0.9062 -1.2362
   31CHL1    C9 2257   0.666   0.723   7.134  0.4139  0.7009  0.2706
   31CHL1    H9 2258   0.763   0.773   7.113  1.2244  0.5115  3.0843
   31CHL1   C10 2259   0.611   0.678   6.996 -0.1716  0.3295 -0.2745
   31CHL1   C19 2260   0.460   0.634   7.009 -0.3201 -0.2684  0.6339
   31CHL1  H19A 2261   0.409   0.578   6.927 -0.2723 -2.2371  1.8783
   31CHL1  H19B 2262   0.459   0.568   7.098  1.2787 -0.1156  0.7880
   31CHL1  H19C 2263   0.395   0.724   7.021  0.5025  0.1658  2.0068
   31CHL1    C1 2264   0.623   0.797   6.906 -0.1171 -0.3466  0.0939
   31CHL1   H1A 2265   0.551   0.875   6.940  1.1060  0.2038  1.5209
   31CHL1   H1B 2266   0.712   0.861   6.923 -1.6535  1.4717  1.8522
   31CHL1    C2 2267   0.590   0.784   6.756 -0.0057 -0.5037  0.4685
   31CHL1   H2A 2268   0.612   0.887   6.718  0.4057 -0.1429  1.6258
   31CHL1   H2B 2269   0.484   0.758   6.738 -0.1353  1.3854 -2.1874
   31CHL1   C20 2270   0.607   0.792   7.702 -0.1910 -0.3805  1.0522
   31CHL1   H20 2271   0.515   0.730   7.704  1.4899 -3.1644 -0.4023
   31CHL1   C21 2272   0.589   0.948   7.674  0.3778 -0.0964  0.4576
   31CHL1  H21A 2273   0.552   0.985   7.773 -2.7402  0.3269 -0.7607
   31CHL1  H21B 2274   0.502   0.965   7.607  0.4748 -0.2420  0.2944
   31CHL1  H21C 2275   0.677   1.002   7.635 -0.9049  1.0376 -0.9543
   31CHL1   C22 2276   0.679   0.770   7.836  0.1265  0.7233  0.4604
   31CHL1  H22A 2277   0.703   0.662   7.842  0.2889  0.8238  2.0941
   31CHL1  H22B 2278   0.773   0.828   7.846  0.2887  0.2284  2.1593
   31CHL1   C23 2279   0.594   0.790   7.962  0.0474  0.4646 -0.3889
   31CHL1  H23A 2280   0.558   0.895   7.967 -1.2532 -0.0161  3.1177
   31CHL1  H23B 2281   0.513   0.716   7.947  0.9866 -0.4552 -1.0980
   31CHL1   C24 2282   0.668   0.758   8.091 -0.2164 -0.3717 -0.1650
   31CHL1  H24A 2283   0.741   0.675   8.080 -0.3520 -0.6772  1.1082
   31CHL1  H24B 2284   0.724   0.846   8.128 -0.3238 -1.0472  1.7209
   31CHL1   C25 2285   0.570   0.701   8.204 -0.0204 -0.2969 -0.5180
   31CHL1   H25 2286   0.505   0.622   8.161 -0.5042  0.8771 -2.0450
   31CHL1   C26 2287   0.659   0.657   8.323  0.2357  0.4700  0.0748
   31CHL1  H26A 2288   0.599   0.609   8.404 -1.9639 -1.3372 -2.4298
   31CHL1  H26B 2289   0.743   0.595   8.285  2.0410  2.7727  0.0667
   31CHL1  H26C 2290   0.720   0.741   8.361  1.0751  0.1226 -0.4772
   31CHL1   C27 2291   0.471   0.809   8.257  1.0436 -0.4621 -0.2945
   31CHL1  H27A 2292   0.422   0.752   8.339 -0.3188  2.1670  0.8206
   31CHL1  H27B 2293   0.393   0.853   8.191  0.0894 -0.3483  0.8888
   31CHL1  H27C 2294   0.532   0.894   8.294  2.3774 -1.4680 -0.0861
   32CHL1    C3 2295   3.621   5.185   6.736 -0.5734  0.1102 -0.0463
   32CHL1    H3 2296   3.727   5.213   6.754 -0.7208  1.8344 -1.6731
   32CHL1    O3 2297   3.590   5.210   6.598 -0.2893 -0.3929 -0.4644
   32CHL1   H3' 2298   3.618   5.302   6.592  1.8420 -0.6928  2.6634
   32CHL1    C4 2299   3.606   5.036   6.768  0.2704 -0.1464 -0.1756
   32CHL1   H4A 2300   3.503   5.006   6.740  0.5085 -3.0861  1.6409
   32CHL1   H4B 2301   3.671   4.978   6.699  3.1303  1.0572  1.3343
   32CHL1    C5 2302   3.638   5.011   6.915 -0.3574 -1.2330 -1.4811
   32CHL1    C6 2303   3.733   4.914   6.952  0.4272 -0.2596  0.1612
   32CHL1    H6 2304   3.776   4.867   6.863  0.2080  0.6946 -0.4673
   32CHL1    C7 2305   3.773   4.887   7.093  0.1422 -0.1481 -0.2871
   32CHL1   H7A 2306   3.786   4.778   7.112  0.5587  0.3240  2.6374
   32CHL1   H7B 2307   3.867   4.946   7.108  0.0803  0.2962 -1.5405
   32CHL1    C8 2308   3.677   4.948   7.206 -0.4568  0.6794 -0.5791
   32CHL1    H8 2309   3.591   4.878   7.196  1.8943 -2.4899 -0.1564
   32CHL1   C14 2310   3.736   4.948   7.340  0.0196  0.7658  0.2475
   32CHL1   H14 2311   3.823   5.018   7.335  1.2093 -0.6754 -3.5393
   32CHL1   C15 2312   3.779   4.805   7.395  0.1278 -0.2343 -0.3565
   32CHL1  H15A 2313   3.713   4.721   7.367  2.1007 -1.5363 -1.3395
   32CHL1  H15B 2314   3.875   4.765   7.356  0.8437 -0.7469  1.7928
   32CHL1   C16 2315   3.767   4.818   7.550 -0.1828  0.1364  0.5024
   32CHL1  H16A 2316   3.711   4.734   7.596  1.2176 -0.2154  1.6392
   32CHL1  H16B 2317   3.864   4.806   7.601 -0.4187 -1.6006  0.5954
   32CHL1   C17 2318   3.708   4.957   7.578 -0.1389  0.1190  0.8605
   32CHL1   H17 2319   3.805   5.011   7.584  1.0113 -1.3596 -2.0696
   32CHL1   C13 2320   3.633   5.003   7.445  0.2667  0.1979  0.0050
   32CHL1   C18 2321   3.501   4.917   7.429  0.4365  0.4184  0.2230
   32CHL1  H18A 2322   3.451   4.916   7.329 -0.8350  0.5652  0.8326
   32CHL1  H18B 2323   3.508   4.807   7.447  3.0885  0.4118 -0.5362
   32CHL1  H18C 2324   3.424   4.958   7.498 -0.9248 -0.8456 -0.4765
   32CHL1   C12 2325   3.606   5.151   7.421 -0.1942 -0.1017  0.6637
   32CHL1  H12A 2326   3.547   5.202   7.500  0.5489  1.3294  0.3315
   32CHL1  H12B 2327   3.710   5.189   7.414  1.1310 -3.5184 -0.0325
   32CHL1   C11 2328   3.553   5.167   7.278 -0.1635  0.0715  1.0250
   32CHL1  H11A 2329   3.447   5.136   7.281 -0.3338  0.5925  0.5777
   32CHL1  H11B 2330   3.545   5.272   7.241 -0.6482 -0.0427  0.8074
   32CHL1    C9 2331   3.632   5.091   7.164 -0.5855  0.2429 -0.1464
   32CHL1    H9 2332   3.728   5.146   7.159 -0.2395 -0.1313  1.6421
   32CHL1   C10 2333   3.563   5.100   7.024 -0.0404 -0.1964 -0.4521
   32CHL1   C19 2334   3.415   5.054   7.029  0.1098 -0.1310  0.2449
   32CHL1  H19A 2335   3.362   5.056   6.931  1.0953  1.2783 -0.2727
   32CHL1  H19B 2336   3.396   4.957   7.081  0.5891 -1.5288 -2.0428
   32CHL1  H19C 2337   3.374   5.136   7.092  2.0687 -0.4720  2.0733
   32CHL1    C1 2338   3.577   5.244   6.975 -0.4485 -0.1811 -0.2630
   32CHL1   H1A 2339   3.520   5.314   7.040  2.8550  0.8416  1.7590
   32CHL1   H1B 2340   3.684   5.273   6.978  0.1201 -2.0487 -0.9854
   32CHL1    C2 2341   3.528   5.266   6.828  0.3672 -0.2324  0.9077
   32CHL1   H2A 2342   3.526   5.375   6.805 -1.5740 -0.8719 -2.7744
   32CHL1   H2B 2343   3.423   5.244   6.799  0.5973  0.2745 -0.4083
   32CHL1   C20 2344   3.629   4.978   7.710  0.0842 -0.1805  0.6885
   32CHL1   H20 2345   3.540   5.030   7.669  1.0277  0.4355 -0.6447
   32CHL1   C21 2346   3.702   5.079   7.804  0.2697 -0.3431 -0.1163
   32CHL1  H21A 2347   3.720   5.172   7.746  1.0527 -0.9003 -0.7856
   32CHL1  H21B 2348   3.792   5.024   7.840  1.0153  0.0132 -1.3651
   32CHL1  H21C 2349   3.639   5.104   7.892  1.3699  1.7194  0.1639
   32CHL1   C22 2350   3.582   4.849   7.779  0.0599 -0.3382  0.3645
   32CHL1  H22A 2351   3.545   4.785   7.697 -0.7774 -0.0425  0.5020
   32CHL1  H22B 2352   3.662   4.793   7.830 -0.1578 -1.6582 -0.6972
   32CHL1   C23 2353   3.472   4.865   7.886  0.2718  0.7802 -0.1044
   32CHL1  H23A 2354   3.511   4.923   7.972 -1.9307  1.4907  0.4853
   32CHL1  H23B 2355   3.380   4.915   7.847  0.0450 -0.1083 -0.7511
   32CHL1   C24 2356   3.427   4.733   7.952 -0.1957 -0.4560 -0.2076
   32CHL1  H24A 2357   3.369   4.675   7.877  0.2041  0.3466 -1.1737
   32CHL1  H24B 2358   3.520   4.678   7.981  0.8081  1.7090  0.9511
   32CHL1   C25 2359   3.343   4.759   8.073  0.0737  0.2702  0.5578
   32CHL1   H25 2360   3.393   4.839   8.132  0.0154  1.4506 -0.9331
   32CHL1   C26 2361   3.206   4.811   8.039  0.2375 -0.4998  0.4694
   32CHL1  H26A 2362   3.158   4.733   7.976 -2.8520  1.4602  0.1739
   32CHL1  H26B 2363   3.140   4.818   8.129  1.8575 -2.1333  1.8682
   32CHL1  H26C 2364   3.201   4.912   7.994 -2.6667 -1.3220 -1.3217
   32CHL1   C27 2365   3.333   4.624   8.149  0.6216 -0.7900  0.1614
   32CHL1  H27A 2366   3.436   4.583   8.156 -0.0909 -3.1887 -1.8853
   32CHL1  H27B 2367   3.285   4.636   8.249 -1.9173 -0.7515 -0.9960
   32CHL1  H27C 2368   3.281   4.549   8.085 -0.8611  1.0004 -0.8321
   33CHL1    C3 2369   2.722   3.624   6.979 -0.6634 -0.7079 -0.1277
   33CHL1    H3 2370   2.829   3.604   6.959 -0.4511  1.3486 -1.3932
   33CHL1    O3 2371   2.638   3.615   6.869 -0.4501  0.5069 -0.1313
   33CHL1   H3' 2372   2.668   3.681   6.805 -0.6731  1.0172  0.2913
   33CHL1    C4 2373   2.657   3.558   7.091 -0.1581  0.3247 -0.8727
   33CHL1   H4A 2374   2.552   3.597   7.088  0.0465  0.8446 -2.7043
   33CHL1   H4B 2375   2.652   3.452   7.058 -0.8580 -0.4348  1.4979
   33CHL1    C5 2376   2.707   3.573   7.232 -0.1170  0.2041 -0.0495
   33CHL1    C6 2377   2.750   3.463   7.299 -0.0140  0.4649 -0.3835
   33CHL1    H6 2378   2.725   3.368   7.248 -1.9048  1.4373 -1.3459
   33CHL1    C7 2379   2.817   3.465   7.432 -0.1467 -0.1630 -0.3292
   33CHL1   H7A 2380   2.767   3.393   7.500 -1.0038  1.6150  1.0202
   33CHL1   H7B 2381   2.920   3.433   7.406  1.1225  1.6423  2.0569
   33CHL1    C8 2382   2.804   3.604   7.501 -0.2812  0.1572  0.0059
   33CHL1    H8 2383   2.697   3.610   7.529 -1.2966  0.6234 -3.4238
   33CHL1   C14 2384   2.879   3.606   7.631  0.5770 -0.9864  0.9169
   33CHL1   H14 2385   2.985   3.589   7.604 -0.5025 -4.0255 -2.0796
   33CHL1   C15 2386   2.860   3.500   7.742  0.7073  0.4995 -0.2116
   33CHL1  H15A 2387   2.751   3.492   7.763  0.3448 -2.3347 -2.4791
   33CHL1  H15B 2388   2.896   3.399   7.712  0.1796  0.2447 -0.0016
   33CHL1   C16 2389   2.933   3.564   7.864 -0.1381 -0.2762 -0.6777
   33CHL1  H16A 2390   2.878   3.548   7.959 -0.1132 -1.7681 -0.8958
   33CHL1  H16B 2391   3.029   3.510   7.872 -0.9191 -1.9031 -1.8268
   33CHL1   C17 2392   2.968   3.706   7.826  0.3306  0.2315 -0.3426
   33CHL1   H17 2393   3.070   3.713   7.783  1.1172  1.9324  1.6027
   33CHL1   C13 2394   2.883   3.747   7.696 -0.6942  0.2415 -0.0060
   33CHL1   C18 2395   2.746   3.788   7.742  0.5668  0.3320 -0.1385
   33CHL1  H18A 2396   2.746   3.887   7.793 -0.4895  0.9372 -1.2590
   33CHL1  H18B 2397   2.672   3.799   7.659 -0.2945 -0.3741  0.5150
   33CHL1  H18C 2398   2.714   3.705   7.809  1.8742 -0.7138 -0.7738
   33CHL1   C12 2399   2.937   3.850   7.600  0.0328 -0.1093  0.1020
   33CHL1  H12A 2400   2.928   3.952   7.643  0.5000  0.7975 -1.8301
   33CHL1  H12B 2401   3.043   3.830   7.572  0.6667  0.7022  1.7219
   33CHL1   C11 2402   2.860   3.849   7.469  0.5879 -0.6029  0.6347
   33CHL1  H11A 2403   2.769   3.907   7.495  2.2024  2.5204 -0.2335
   33CHL1  H11B 2404   2.920   3.908   7.397 -2.4846  0.6011 -1.1614
   33CHL1    C9 2405   2.834   3.710   7.404 -0.2019 -0.1667  0.3094
   33CHL1    H9 2406   2.936   3.686   7.367  0.7599 -0.1884  2.8217
   33CHL1   C10 2407   2.739   3.716   7.281  0.6535 -0.0725  0.3057
   33CHL1   C19 2408   2.607   3.783   7.332  0.3118 -0.8322  0.0345
   33CHL1  H19A 2409   2.580   3.753   7.435 -2.1988 -0.1011 -0.3323
   33CHL1  H19B 2410   2.609   3.894   7.334  1.3297 -0.8435 -0.0073
   33CHL1  H19C 2411   2.522   3.764   7.262  0.4612  0.6169 -0.5902
   33CHL1    C1 2412   2.798   3.799   7.155  0.2807  0.0350 -0.8606
   33CHL1   H1A 2413   2.790   3.902   7.195  0.1353 -0.1503 -0.4000
   33CHL1   H1B 2414   2.904   3.770   7.143  0.7755  1.8906 -1.2182
   33CHL1    C2 2415   2.727   3.774   7.024  0.0257  0.3414 -0.0928
   33CHL1   H2A 2416   2.774   3.838   6.945  1.3205 -0.4825 -0.0037
   33CHL1   H2B 2417   2.624   3.815   7.029  0.4691  1.3443  1.5836
   33CHL1   C20 2418   2.975   3.809   7.937 -0.0578  0.4220 -0.0656
   33CHL1   H20 2419   2.959   3.908   7.888 -1.3623 -0.5080 -1.6153
   33CHL1   C21 2420   3.115   3.800   7.999 -0.0751 -1.0375  0.2464
   33CHL1  H21A 2421   3.130   3.696   8.035  1.0911 -1.1389 -0.4815
   33CHL1  H21B 2422   3.119   3.881   8.076  0.1614 -0.3343 -0.4915
   33CHL1  H21C 2423   3.198   3.821   7.929  0.1510  0.4147  0.8953
   33CHL1   C22 2424   2.867   3.798   8.051 -0.1492 -0.2488  0.5706
   33CHL1  H22A 2425   2.773   3.785   7.993  1.0755  0.7329 -1.7834
   33CHL1  H22B 2426   2.884   3.713   8.121  0.5365 -1.2389 -0.7518
   33CHL1   C23 2427   2.857   3.926   8.133  0.1417 -0.4483 -0.3353
   33CHL1  H23A 2428   2.947   3.946   8.194  0.2392 -0.2158 -0.5525
   33CHL1  H23B 2429   2.852   4.010   8.060  0.6547  1.2236  1.4683
   33CHL1   C24 2430   2.741   3.947   8.229  0.4139  0.2433  0.3481
   33CHL1  H24A 2431   2.646   3.970   8.176  1.8725  0.2138 -2.5030
   33CHL1  H24B 2432   2.719   3.857   8.290 -2.7559  1.1782  0.7161
   33CHL1   C25 2433   2.760   4.049   8.343  0.1002  0.0084  0.2015
   33CHL1   H25 2434   2.842   4.010   8.407 -0.0669 -1.0108 -0.1758
   33CHL1   C26 2435   2.776   4.193   8.292 -0.1897  0.8429 -0.1077
   33CHL1  H26A 2436   2.859   4.194   8.218 -1.1080 -0.7637 -1.2239
   33CHL1  H26B 2437   2.685   4.220   8.234 -1.6375 -0.4541  1.4567
   33CHL1  H26C 2438   2.784   4.258   8.382  0.2251  0.7758 -0.0948
   33CHL1   C27 2439   2.635   4.037   8.435 -0.1672  0.2029  0.1139
   33CHL1  H27A 2440   2.626   3.936   8.479  0.9790  0.0913  0.1330
   33CHL1  H27B 2441   2.662   4.114   8.510 -0.1191 -1.0006  1.3653
   33CHL1  H27C 2442   2.546   4.070   8.377 -0.9967 -2.3782 -0.2147
   34CHL1    C3 2443   5.472   3.328   6.995  0.1065  1.2407 -0.7373
   34CHL1    H3 2444   5.389   3.369   7.056  1.2890  1.6671  0.6210
   34CHL1    O3 2445   5.430   3.314   6.859  0.5422 -0.1276 -1.0395
   34CHL1   H3' 2446   5.391   3.228   6.846  2.1962 -1.0733 -0.1048
   34CHL1    C4 2447   5.596   3.418   7.005  0.5401 -0.0735  0.8341
   34CHL1   H4A 2448   5.683   3.388   6.943  0.4856  0.3587  0.5437
   34CHL1   H4B 2449   5.565   3.511   6.952 -1.2928 -0.3807  1.2852
   34CHL1    C5 2450   5.639   3.437   7.149  0.5637  0.0208 -0.0250
   34CHL1    C6 2451   5.648   3.558   7.197 -0.3574 -0.7342 -0.8793
   34CHL1    H6 2452   5.620   3.643   7.134  0.2485 -0.5142 -0.8654
   34CHL1    C7 2453   5.693   3.591   7.336 -1.0243  0.9167 -0.6196
   34CHL1   H7A 2454   5.777   3.664   7.332  1.5005 -1.6639  1.5355
   34CHL1   H7B 2455   5.607   3.630   7.395 -0.6480  0.4973  0.2250
   34CHL1    C8 2456   5.746   3.463   7.410  1.0488  0.4861 -0.4549
   34CHL1    H8 2457   5.847   3.441   7.371  0.5767  0.6467 -1.8190
   34CHL1   C14 2458   5.738   3.474   7.567  0.5403  0.0092  0.0216
   34CHL1   H14 2459   5.632   3.499   7.588  0.7651 -0.5372  2.0492
   34CHL1   C15 2460   5.814   3.596   7.633  0.1606  0.7135 -0.2609
   34CHL1  H15A 2461   5.914   3.614   7.588 -0.4837  1.1312 -1.5969
   34CHL1  H15B 2462   5.762   3.691   7.611 -1.1812  0.2776  0.8975
   34CHL1   C16 2463   5.834   3.555   7.781  0.3429  0.5984 -0.4811
   34CHL1  H16A 2464   5.939   3.572   7.814  0.0060  2.2666 -0.1916
   34CHL1  H16B 2465   5.766   3.618   7.842  0.8875 -1.0037  1.9130
   34CHL1   C17 2466   5.781   3.409   7.795 -0.3261  0.4975  0.0091
   34CHL1   H17 2467   5.672   3.406   7.815 -0.3574  1.1344 -0.0330
   34CHL1   C13 2468   5.785   3.357   7.647  0.2804 -0.0474  0.5354
   34CHL1   C18 2469   5.934   3.327   7.619  0.1472  0.2239  0.2107
   34CHL1  H18A 2470   5.963   3.251   7.695  0.9383  0.4180  0.1071
   34CHL1  H18B 2471   5.951   3.291   7.515  0.4214  0.1042  0.2950
   34CHL1  H18C 2472   6.002   3.414   7.626  1.0562 -0.4178 -0.4074
   34CHL1   C12 2473   5.687   3.246   7.604 -0.4428  0.0503  0.4928
   34CHL1  H12A 2474   5.691   3.159   7.673  3.1739  1.0241  1.6810
   34CHL1  H12B 2475   5.584   3.283   7.622 -0.3630  0.5343 -0.0169
   34CHL1   C11 2476   5.693   3.209   7.456 -0.0604 -0.2863  0.1709
   34CHL1  H11A 2477   5.784   3.153   7.424 -0.2867 -1.9772  2.2401
   34CHL1  H11B 2478   5.605   3.150   7.424  3.1637 -5.5795 -0.1839
   34CHL1    C9 2479   5.667   3.332   7.371  0.1367 -0.2125  0.0533
   34CHL1    H9 2480   5.566   3.367   7.401  0.5600  0.0205  1.2924
   34CHL1   C10 2481   5.671   3.302   7.224 -0.2764 -0.3437 -0.9766
   34CHL1   C19 2482   5.806   3.250   7.171 -0.5516 -0.3929  0.1833
   34CHL1  H19A 2483   5.821   3.153   7.225 -1.4835  0.4840  2.1064
   34CHL1  H19B 2484   5.820   3.228   7.063 -0.3518  0.6521 -0.0089
   34CHL1  H19C 2485   5.893   3.317   7.191  0.6607 -1.5461 -0.9754
   34CHL1    C1 2486   5.555   3.203   7.187 -0.0744  0.2168 -0.6329
   34CHL1   H1A 2487   5.573   3.103   7.232 -0.4294 -0.6835 -2.3785
   34CHL1   H1B 2488   5.464   3.250   7.231 -0.3832  0.8507 -1.9069
   34CHL1    C2 2489   5.515   3.191   7.047 -0.2905 -0.1013 -0.3492
   34CHL1   H2A 2490   5.429   3.121   7.043 -1.6028  1.4977 -1.4245
   34CHL1   H2B 2491   5.597   3.148   6.986 -0.1616 -0.4396  0.0586
   34CHL1   C20 2492   5.855   3.341   7.907 -0.5290  0.4358 -0.5850
   34CHL1   H20 2493   5.964   3.360   7.897 -0.5809  1.8001  1.0296
   34CHL1   C21 2494   5.805   3.187   7.928  0.1695 -0.9699  0.3444
   34CHL1  H21A 2495   5.858   3.134   8.009 -1.5309 -0.2605  1.9815
   34CHL1  H21B 2496   5.814   3.131   7.832 -1.5005 -1.1317  0.2500
   34CHL1  H21C 2497   5.695   3.180   7.940 -0.1536 -1.8786 -2.3690
   34CHL1   C22 2498   5.810   3.402   8.042  0.1458 -0.6133 -0.5203
   34CHL1  H22A 2499   5.805   3.513   8.033 -1.1675 -0.7691 -2.2392
   34CHL1  H22B 2500   5.706   3.366   8.059  0.7843 -1.4502  1.9987
   34CHL1   C23 2501   5.902   3.375   8.162  0.6441 -0.3773  0.8094
   34CHL1  H23A 2502   5.910   3.267   8.184 -2.7740 -0.6251  1.2794
   34CHL1  H23B 2503   6.002   3.413   8.131 -0.6597 -0.0073 -3.6736
   34CHL1   C24 2504   5.842   3.451   8.287 -0.0065 -0.7343  0.0558
   34CHL1  H24A 2505   5.878   3.556   8.289  1.8021 -1.3377  1.1579
   34CHL1  H24B 2506   5.732   3.463   8.275  0.1287  0.4240 -0.1431
   34CHL1   C25 2507   5.877   3.386   8.417 -0.0893  0.1079  0.4270
   34CHL1   H25 2508   5.866   3.276   8.402  1.8216  0.0232 -0.6284
   34CHL1   C26 2509   6.022   3.397   8.457  0.0781 -0.7433  0.2100
   34CHL1  H26A 2510   6.089   3.365   8.375  0.8935 -0.3515  0.6993
   34CHL1  H26B 2511   6.057   3.497   8.493  0.0822 -1.1201  1.2941
   34CHL1  H26C 2512   6.030   3.331   8.546  3.4204  1.3016  1.6477
   34CHL1   C27 2513   5.771   3.440   8.513  0.7087 -0.4614 -0.8648
   34CHL1  H27A 2514   5.800   3.547   8.522  1.3625 -0.5735 -1.5455
   34CHL1  H27B 2515   5.668   3.432   8.473 -0.3504  3.1138  0.7522
   34CHL1  H27C 2516   5.766   3.391   8.613 -0.7021  2.1101  0.4180
   35CHL1    C3 2517   1.245   3.911   7.220 -0.0816  0.7112 -0.2140
   35CHL1    H3 2518   1.152   3.955   7.262 -0.0466  1.5759 -0.9995
   35CHL1    O3 2519   1.259   3.951   7.083 -0.0200 -0.4059  0.3072
   35CHL1   H3' 2520   1.190   4.015   7.066  1.5691  1.1489 -0.6220
   35CHL1    C4 2521   1.367   3.954   7.311  0.7000 -0.4965 -0.0720
   35CHL1   H4A 2522   1.462   3.917   7.266  1.7580  1.3212  0.5275
   35CHL1   H4B 2523   1.380   4.064   7.310  1.8233 -0.5792  1.5058
   35CHL1    C5 2524   1.353   3.916   7.454 -0.3897  0.5954 -0.4856
   35CHL1    C6 2525   1.344   4.000   7.563  0.3268  0.6803  0.1502
   35CHL1    H6 2526   1.353   4.108   7.548  1.1566  0.6220  0.1994
   35CHL1    C7 2527   1.345   3.944   7.705 -0.1122  0.7489 -0.0842
   35CHL1   H7A 2528   1.417   4.000   7.768 -2.0281  0.7936  2.1875
   35CHL1   H7B 2529   1.242   3.955   7.746 -1.3018  0.0480 -2.6595
   35CHL1    C8 2530   1.385   3.795   7.717 -0.2590  0.0379  0.0416
   35CHL1    H8 2531   1.495   3.784   7.703 -0.4190  1.1686 -2.6892
   35CHL1   C14 2532   1.338   3.758   7.860  0.2749  0.4442  0.0107
   35CHL1   H14 2533   1.230   3.785   7.853  0.2297  0.6051  1.0844
   35CHL1   C15 2534   1.400   3.824   7.978 -0.2831  0.0462 -0.7124
   35CHL1  H15A 2535   1.511   3.824   7.983 -0.2914  1.8855  2.2150
   35CHL1  H15B 2536   1.371   3.931   7.986 -0.0496  0.1110 -0.6980
   35CHL1   C16 2537   1.355   3.735   8.100  0.2423 -0.2808 -0.2555
   35CHL1  H16A 2538   1.444   3.714   8.163  1.5965  1.7986 -1.3626
   35CHL1  H16B 2539   1.269   3.773   8.160  0.5312  0.9279 -0.5884
   35CHL1   C17 2540   1.306   3.597   8.035 -0.1457 -0.4141  0.0937
   35CHL1   H17 2541   1.196   3.612   8.023 -0.2487 -0.3500  1.0612
   35CHL1   C13 2542   1.348   3.606   7.887 -0.2656  0.3662  0.0777
   35CHL1   C18 2543   1.501   3.561   7.889 -0.3602 -0.2543  0.1397
   35CHL1  H18A 2544   1.543   3.602   7.983 -0.9120 -3.3848  1.9130
   35CHL1  H18B 2545   1.510   3.450   7.884 -1.0317 -0.2617 -1.8158
   35CHL1  H18C 2546   1.563   3.602   7.807  0.6548 -0.9904  0.5142
   35CHL1   C12 2547   1.278   3.532   7.769  0.5441  0.1715  0.1789
   35CHL1  H12A 2548   1.298   3.423   7.780  1.4490  0.2305 -0.6629
   35CHL1  H12B 2549   1.168   3.544   7.779  0.4568  2.0622 -2.1365
   35CHL1   C11 2550   1.328   3.573   7.631  0.0473  0.1923  0.9351
   35CHL1  H11A 2551   1.433   3.542   7.616 -0.2766  0.1782 -1.8555
   35CHL1  H11B 2552   1.270   3.514   7.557  0.5308 -0.4527  1.0619
   35CHL1    C9 2553   1.308   3.723   7.611  0.3411  0.1748  0.2139
   35CHL1    H9 2554   1.199   3.743   7.622 -0.1803 -1.3998 -1.6067
   35CHL1   C10 2555   1.345   3.763   7.472 -0.7045  0.3237  0.2132
   35CHL1   C19 2556   1.472   3.690   7.420 -0.6489 -0.6005 -0.2267
   35CHL1  H19A 2557   1.559   3.716   7.484  0.9078 -0.9508 -2.1051
   35CHL1  H19B 2558   1.457   3.580   7.414  1.6869 -1.0326  0.6075
   35CHL1  H19C 2559   1.507   3.733   7.324 -0.2627  2.0088  0.9959
   35CHL1    C1 2560   1.220   3.719   7.382 -0.4187 -0.9142 -0.6860
   35CHL1   H1A 2561   1.196   3.612   7.399  2.2485 -1.2182  1.7989
   35CHL1   H1B 2562   1.130   3.774   7.416  0.1818 -0.9005  0.9386
   35CHL1    C2 2563   1.232   3.758   7.234  0.5518 -0.5299  0.4279
   35CHL1   H2A 2564   1.139   3.729   7.182 -0.0254  1.3469  0.3243
   35CHL1   H2B 2565   1.313   3.708   7.177  0.2052  1.8499 -2.3832
   35CHL1   C20 2566   1.339   3.478   8.121 -0.5364 -0.3074 -0.3604
   35CHL1   H20 2567   1.447   3.455   8.124 -0.3594  0.5635  0.1213
   35CHL1   C21 2568   1.273   3.364   8.052 -0.2181  0.2210 -0.0402
   35CHL1  H21A 2569   1.313   3.340   7.951  1.2302  0.0028  0.5616
   35CHL1  H21B 2570   1.162   3.369   8.049 -0.1638  1.5290 -1.1370
   35CHL1  H21C 2571   1.293   3.266   8.101  0.5106  0.4389  0.1146
   35CHL1   C22 2572   1.278   3.481   8.267  0.6080  1.0529  0.0364
   35CHL1  H22A 2573   1.267   3.587   8.298  2.1275  1.0585  0.6461
   35CHL1  H22B 2574   1.175   3.439   8.264  1.3279 -1.3003  3.3537
   35CHL1   C23 2575   1.355   3.403   8.377  0.1300  0.6740  0.0743
   35CHL1  H23A 2576   1.377   3.302   8.335  0.7555  1.0645 -0.5690
   35CHL1  H23B 2577   1.452   3.451   8.403  0.3041  0.3534  0.0276
   35CHL1   C24 2578   1.285   3.404   8.522 -0.0286 -0.1060  0.3466
   35CHL1  H24A 2579   1.282   3.510   8.555 -1.1214 -0.5809  1.9066
   35CHL1  H24B 2580   1.178   3.377   8.511  0.0586 -0.8080  1.0575
   35CHL1   C25 2581   1.346   3.311   8.623  0.4780 -0.5680  0.3995
   35CHL1   H25 2582   1.455   3.331   8.610  0.7964 -1.8098  1.0174
   35CHL1   C26 2583   1.313   3.346   8.774 -0.3626 -0.1864  0.5613
   35CHL1  H26A 2584   1.376   3.297   8.851 -0.5406  0.9672  1.4717
   35CHL1  H26B 2585   1.336   3.454   8.777  2.3686 -0.6342 -0.8867
   35CHL1  H26C 2586   1.203   3.336   8.789 -0.8077  1.5106 -1.1438
   35CHL1   C27 2587   1.319   3.161   8.595  0.9447 -0.2007 -0.3430
   35CHL1  H27A 2588   1.335   3.132   8.489 -0.2757  0.7047 -0.7957
   35CHL1  H27B 2589   1.217   3.133   8.628 -0.1570  1.0244 -2.5102
   35CHL1  H27C 2590   1.395   3.108   8.656 -0.6502 -1.2386  0.7998
   36CHL1    C3 2591   2.888   2.569   7.078 -0.6172 -0.5726  0.2600
   36CHL1    H3 2592   2.851   2.465   7.065  1.2375 -1.0868 -1.5216
   36CHL1    O3 2593   2.864   2.636   6.954 -0.2668 -0.4630 -0.4216
   36CHL1   H3' 2594   2.922   2.591   6.893  0.8250  2.2520 -1.5577
   36CHL1    C4 2595   2.822   2.656   7.188  0.1817 -0.5108 -0.1219
   36CHL1   H4A 2596   2.845   2.764   7.174  0.0917 -0.3851  0.6591
   36CHL1   H4B 2597   2.713   2.642   7.177 -0.4080  2.4244  1.2378
   36CHL1    C5 2598   2.860   2.609   7.324  0.5735 -0.3276  0.1907
   36CHL1    C6 2599   2.767   2.582   7.415  0.2516 -0.1116 -0.3397
   36CHL1    H6 2600   2.661   2.581   7.387  0.6320 -1.3741 -1.8647
   36CHL1    C7 2601   2.802   2.557   7.561  0.6713 -0.1962  0.1614
   36CHL1   H7A 2602   2.742   2.621   7.629 -0.5136  1.6896 -2.5270
   36CHL1   H7B 2603   2.777   2.450   7.577 -0.9370  0.3979  2.0535
   36CHL1    C8 2604   2.947   2.598   7.591  0.1712  0.0989  0.3839
   36CHL1    H8 2605   2.945   2.709   7.595  0.6924  0.2887 -2.5022
   36CHL1   C14 2606   2.994   2.542   7.726  0.3856  0.2788  0.2284
   36CHL1   H14 2607   3.003   2.432   7.718 -4.4475 -0.4652  1.8752
   36CHL1   C15 2608   2.904   2.562   7.859 -0.2470  0.0790 -0.6720
   36CHL1  H15A 2609   2.858   2.663   7.850 -1.3536 -0.5604 -2.8787
   36CHL1  H15B 2610   2.820   2.489   7.858  0.1025 -0.3584  0.6353
   36CHL1   C16 2611   3.003   2.542   7.981 -0.0128 -0.3487  0.5284
   36CHL1  H16A 2612   2.985   2.632   8.044 -2.2293 -0.4865  0.1682
   36CHL1  H16B 2613   2.974   2.455   8.044 -1.3640 -0.0449  0.3557
   36CHL1   C17 2614   3.140   2.520   7.914 -0.3307 -0.8967 -0.1467
   36CHL1   H17 2615   3.149   2.411   7.891  2.0591 -0.7867 -0.0450
   36CHL1   C13 2616   3.137   2.581   7.772 -0.2268  0.0224  0.2773
   36CHL1   C18 2617   3.147   2.738   7.765 -0.4612  0.3258 -0.0972
   36CHL1  H18A 2618   3.251   2.768   7.786 -0.3343 -0.0081 -0.2316
   36CHL1  H18B 2619   3.135   2.771   7.659  3.3664  0.7921 -0.5141
   36CHL1  H18C 2620   3.079   2.793   7.834  1.3338  0.2801  1.7848
   36CHL1   C12 2621   3.233   2.514   7.675  0.0926 -0.2428  0.0545
   36CHL1  H12A 2622   3.333   2.554   7.701 -0.7867  1.1333  1.5384
   36CHL1  H12B 2623   3.233   2.405   7.696 -0.1848 -0.1940  0.3266
   36CHL1   C11 2624   3.201   2.545   7.526  0.4827 -0.0677  0.1530
   36CHL1  H11A 2625   3.236   2.648   7.504 -1.6948  0.2634 -2.2551
   36CHL1  H11B 2626   3.267   2.485   7.460 -0.7174  1.0901 -2.2500
   36CHL1    C9 2627   3.046   2.543   7.487 -0.0097  0.4392 -0.0181
   36CHL1    H9 2628   3.028   2.437   7.459  1.3955  0.3088 -0.4856
   36CHL1   C10 2629   3.015   2.602   7.351  0.1599 -0.4226  0.9515
   36CHL1   C19 2630   3.063   2.748   7.346 -0.4265  0.4516  0.0479
   36CHL1  H19A 2631   3.014   2.808   7.426  0.0267  1.9281 -0.7431
   36CHL1  H19B 2632   3.174   2.758   7.347 -0.2462 -0.9021 -1.8459
   36CHL1  H19C 2633   3.039   2.793   7.248  0.7737  0.7261 -0.1432
   36CHL1    C1 2634   3.085   2.516   7.241 -0.6082  0.2766  0.0395
   36CHL1   H1A 2635   3.196   2.519   7.246 -0.4159  0.6910 -2.6216
   36CHL1   H1B 2636   3.059   2.410   7.258 -3.1802  1.0431  1.4243
   36CHL1    C2 2637   3.041   2.561   7.099  0.1926 -0.3613 -0.6416
   36CHL1   H2A 2638   3.077   2.486   7.026  1.3400  0.3273 -0.8058
   36CHL1   H2B 2639   3.086   2.661   7.081 -1.8218  0.9821  1.2180
   36CHL1   C20 2640   3.263   2.551   8.004 -0.1221 -0.7466  0.4729
   36CHL1   H20 2641   3.348   2.584   7.941 -0.1952  2.3126  1.8305
   36CHL1   C21 2642   3.302   2.423   8.071  0.5987 -0.5445  0.1546
   36CHL1  H21A 2643   3.227   2.407   8.151 -0.0344 -1.8943 -0.6677
   36CHL1  H21B 2644   3.404   2.430   8.114  0.9862 -3.2388 -0.1530
   36CHL1  H21C 2645   3.308   2.333   8.006  1.7393 -2.3489  2.6014
   36CHL1   C22 2646   3.236   2.666   8.098 -0.2468 -0.6000  0.2700
   36CHL1  H22A 2647   3.183   2.747   8.044 -0.4875  0.2908  1.7704
   36CHL1  H22B 2648   3.183   2.621   8.185  1.9699  0.4226  2.2952
   36CHL1   C23 2649   3.358   2.719   8.172 -0.1185 -0.1790 -0.0339
   36CHL1  H23A 2650   3.328   2.774   8.264  0.9179 -1.0262  0.8378
   36CHL1  H23B 2651   3.424   2.637   8.208 -2.4482 -1.0143  2.8161
   36CHL1   C24 2652   3.444   2.815   8.092 -0.0429 -0.4321  0.1850
   36CHL1  H24A 2653   3.480   2.762   8.001 -2.2653  0.6807 -1.4281
   36CHL1  H24B 2654   3.384   2.901   8.054 -0.5259 -1.0901 -0.5788
   36CHL1   C25 2655   3.558   2.876   8.170 -0.0442  0.0821  0.0936
   36CHL1   H25 2656   3.515   2.925   8.260 -2.2443  0.6831 -1.2169
   36CHL1   C26 2657   3.651   2.751   8.197 -0.1014 -0.4791  0.6235
   36CHL1  H26A 2658   3.609   2.677   8.268 -0.5040  0.7407  1.6949
   36CHL1  H26B 2659   3.678   2.709   8.098 -0.7209  0.6238 -0.0221
   36CHL1  H26C 2660   3.745   2.799   8.234 -1.3167  1.2163  1.6683
   36CHL1   C27 2661   3.636   2.984   8.092 -0.6010 -0.1868 -0.0462
   36CHL1  H27A 2662   3.656   2.949   7.989 -1.8517 -0.0693 -0.3425
   36CHL1  H27B 2663   3.572   3.075   8.094 -2.7399 -1.5927  2.4276
   36CHL1  H27C 2664   3.735   3.005   8.137 -1.4586 -0.4296  2.0834
   37CHL1    C3 2665   5.327   6.545   6.880 -0.2869  0.4642 -0.5752
   37CHL1    H3 2666   5.285   6.451   6.922  1.2049 -0.9052 -2.0206
   37CHL1    O3 2667   5.347   6.524   6.739 -0.0718 -0.2956 -0.4705
   37CHL1   H3' 2668   5.262   6.492   6.708 -0.7939  0.9323  0.1408
   37CHL1    C4 2669   5.236   6.673   6.907 -0.0938  0.9423  0.6107
   37CHL1   H4A 2670   5.275   6.762   6.852  0.4040  1.1069  1.2093
   37CHL1   H4B 2671   5.137   6.643   6.868  0.2013 -1.7468  1.7552
   37CHL1    C5 2672   5.234   6.707   7.053  0.8395 -0.2951 -0.4419
   37CHL1    C6 2673   5.112   6.704   7.118  0.5513  0.3742  0.2028
   37CHL1    H6 2674   5.021   6.678   7.062 -0.8873 -0.7758  2.8632
   37CHL1    C7 2675   5.095   6.730   7.264 -0.2965  0.2834  0.2710
   37CHL1   H7A 2676   5.007   6.797   7.276  1.4597  2.4450  1.9447
   37CHL1   H7B 2677   5.071   6.640   7.323  3.1477 -2.2542 -1.8247
   37CHL1    C8 2678   5.223   6.797   7.320  0.0034  0.0879 -0.7170
   37CHL1    H8 2679   5.233   6.902   7.284  1.2140  0.5874  0.9270
   37CHL1   C14 2680   5.210   6.805   7.473  0.2049 -0.4014 -0.1378
   37CHL1   H14 2681   5.206   6.699   7.504  1.5865 -0.3169  0.3631
   37CHL1   C15 2682   5.090   6.854   7.548 -0.0391 -0.2586  0.9309
   37CHL1  H15A 2683   5.070   6.955   7.506  0.7422  0.2937  1.8424
   37CHL1  H15B 2684   5.009   6.781   7.524 -1.4738  1.1682  1.2936
   37CHL1   C16 2685   5.137   6.862   7.691  0.3404 -0.0719  0.2622
   37CHL1  H16A 2686   5.103   6.955   7.741 -1.3703 -1.7594  2.4348
   37CHL1  H16B 2687   5.092   6.772   7.737  0.0372 -0.4460 -0.7401
   37CHL1   C17 2688   5.292   6.850   7.689 -0.3378 -0.6800  0.6227
   37CHL1   H17 2689   5.313   6.743   7.706 -2.5339 -1.4669 -1.1161
   37CHL1   C13 2690   5.335   6.863   7.538  0.5426 -0.3855  0.4586
   37CHL1   C18 2691   5.353   7.018   7.521  0.7105 -0.4415 -0.3826
   37CHL1  H18A 2692   5.457   7.054   7.536  0.1506  1.8333 -1.4998
   37CHL1  H18B 2693   5.321   7.057   7.422 -2.5303  3.3776  1.8765
   37CHL1  H18C 2694   5.287   7.071   7.593  1.6503  0.2430 -0.0088
   37CHL1   C12 2695   5.470   6.797   7.502 -0.0262  0.8242 -0.0686
   37CHL1  H12A 2696   5.555   6.855   7.543  1.2660 -1.7568  1.1575
   37CHL1  H12B 2697   5.468   6.690   7.534 -1.8158 -0.1634 -3.0879
   37CHL1   C11 2698   5.482   6.788   7.354 -0.5466 -0.5807  0.2195
   37CHL1  H11A 2699   5.494   6.896   7.331 -0.8016 -0.8378 -1.2702
   37CHL1  H11B 2700   5.573   6.727   7.334  0.5384 -0.0214  2.9858
   37CHL1    C9 2701   5.357   6.727   7.281  0.1123  0.6167 -0.1629
   37CHL1    H9 2702   5.352   6.625   7.323  2.3671  0.0193 -1.1772
   37CHL1   C10 2703   5.374   6.717   7.128  0.5692  0.5956 -0.4791
   37CHL1   C19 2704   5.439   6.843   7.065 -0.2988 -0.0410 -0.0922
   37CHL1  H19A 2705   5.537   6.853   7.117 -0.2364  3.0365 -0.6039
   37CHL1  H19B 2706   5.472   6.821   6.961  0.0081 -1.9537  0.3720
   37CHL1  H19C 2707   5.390   6.939   7.091  3.0524  0.6714  5.2190
   37CHL1    C1 2708   5.456   6.586   7.091 -0.2372  0.3648  0.6701
   37CHL1   H1A 2709   5.560   6.601   7.125  0.4975  2.0038 -2.0127
   37CHL1   H1B 2710   5.424   6.491   7.139 -1.3166  0.0625 -0.5846
   37CHL1    C2 2711   5.469   6.566   6.942  0.2765  0.8325  0.0412
   37CHL1   H2A 2712   5.515   6.465   6.930 -1.3391  0.1054 -0.3781
   37CHL1   H2B 2713   5.523   6.642   6.882  2.3511 -1.4198 -1.1187
   37CHL1   C20 2714   5.357   6.932   7.809 -0.0002 -0.3738 -0.5756
   37CHL1   H20 2715   5.331   7.039   7.802 -2.2183 -0.9068 -1.2292
   37CHL1   C21 2716   5.510   6.904   7.800 -0.2973 -0.5364  0.2725
   37CHL1  H21A 2717   5.536   6.802   7.764  1.5234  0.4890 -1.5339
   37CHL1  H21B 2718   5.560   6.927   7.896  1.8197 -0.1797 -0.8524
   37CHL1  H21C 2719   5.547   6.971   7.719 -1.4581 -0.3416 -0.1089
   37CHL1   C22 2720   5.324   6.866   7.947 -0.6668 -0.6814  0.4616
   37CHL1  H22A 2721   5.312   6.756   7.935 -0.0173 -0.9267  1.8929
   37CHL1  H22B 2722   5.412   6.871   8.015 -0.9509 -1.8173  0.9437
   37CHL1   C23 2723   5.212   6.936   8.024  0.1806 -0.6716 -0.6344
   37CHL1  H23A 2724   5.241   7.043   8.038  0.7364 -0.9401  0.3323
   37CHL1  H23B 2725   5.120   6.925   7.963 -0.7590 -0.1639  0.6572
   37CHL1   C24 2726   5.185   6.874   8.160 -0.3945 -0.0865 -0.0098
   37CHL1  H24A 2727   5.088   6.918   8.192  0.6883  1.9257  0.6802
   37CHL1  H24B 2728   5.179   6.764   8.144  1.8311 -0.6144  2.1261
   37CHL1   C25 2729   5.294   6.911   8.264 -0.0844 -0.4703 -0.5604
   37CHL1   H25 2730   5.395   6.874   8.234  0.0390  1.2063 -2.4365
   37CHL1   C26 2731   5.301   7.063   8.299 -0.2852  0.3705  0.0526
   37CHL1  H26A 2732   5.380   7.077   8.375 -1.4392  0.1739  1.3159
   37CHL1  H26B 2733   5.324   7.126   8.210  3.0057  0.0837  0.5638
   37CHL1  H26C 2734   5.209   7.105   8.343 -1.5135 -2.1134  0.0176
   37CHL1   C27 2735   5.271   6.830   8.391  0.5271 -0.0096 -0.2803
   37CHL1  H27A 2736   5.344   6.857   8.470 -0.2429  1.9965 -0.2083
   37CHL1  H27B 2737   5.178   6.859   8.444 -0.2880  0.1681 -1.7444
   37CHL1  H27C 2738   5.278   6.722   8.366  2.3425 -0.3912  1.6050
   38CHL1    C3 2739   1.451   0.739   6.553 -0.4680 -1.0293 -0.0819
   38CHL1    H3 2740   1.348   0.714   6.584 -0.9506 -0.1720 -0.9560
   38CHL1    O3 2741   1.463   0.765   6.412  0.1179 -1.0715 -0.1249
   38CHL1   H3' 2742   1.556   0.771   6.390  0.2444  1.7660  0.7710
   38CHL1    C4 2743   1.493   0.868   6.630 -0.1345  0.7799 -0.1093
   38CHL1   H4A 2744   1.588   0.907   6.586  1.6274 -0.2513  2.5483
   38CHL1   H4B 2745   1.422   0.951   6.609  0.1900  1.5683  1.6723
   38CHL1    C5 2746   1.521   0.854   6.776  0.1765  0.3862 -0.1329
   38CHL1    C6 2747   1.451   0.934   6.856 -0.1010 -0.0471 -0.6522
   38CHL1    H6 2748   1.386   1.015   6.822 -0.7091  1.3099  3.1711
   38CHL1    C7 2749   1.468   0.926   7.001  0.0668  0.1316 -0.0949
   38CHL1   H7A 2750   1.459   1.029   7.041 -1.8927  0.6395 -1.6565
   38CHL1   H7B 2751   1.385   0.863   7.040  0.7876 -1.8092 -1.5307
   38CHL1    C8 2752   1.604   0.863   7.044 -0.7682 -0.4345 -0.5181
   38CHL1    H8 2753   1.683   0.935   7.014 -0.2265 -1.9164 -2.9234
   38CHL1   C14 2754   1.603   0.841   7.196 -0.7286  0.2723  0.4734
   38CHL1   H14 2755   1.520   0.768   7.211  0.1802 -1.3285 -1.7169
   38CHL1   C15 2756   1.553   0.956   7.298  0.0600 -0.9975  0.0844
   38CHL1  H15A 2757   1.586   1.058   7.269 -0.7365 -1.4674 -2.7726
   38CHL1  H15B 2758   1.443   0.970   7.312  0.4559  1.7488  1.0351
   38CHL1   C16 2759   1.620   0.911   7.428 -0.4655  0.4080 -0.2801
   38CHL1  H16A 2760   1.687   0.997   7.448  0.8715 -0.6259 -0.1515
   38CHL1  H16B 2761   1.541   0.908   7.506 -1.3131 -1.9999 -1.1276
   38CHL1   C17 2762   1.700   0.778   7.400 -0.1007  0.2119  0.0457
   38CHL1   H17 2763   1.628   0.696   7.423  1.1776 -0.7171  0.9569
   38CHL1   C13 2764   1.729   0.783   7.252  0.1453 -0.5801  1.0181
   38CHL1   C18 2765   1.850   0.879   7.225 -0.2344  0.4492  0.1679
   38CHL1  H18A 2766   1.872   0.894   7.117  1.7780 -0.3525  0.4184
   38CHL1  H18B 2767   1.822   0.977   7.269 -4.4128 -0.8171  0.7578
   38CHL1  H18C 2768   1.938   0.836   7.277 -0.7719 -0.3696  0.4313
   38CHL1   C12 2769   1.744   0.646   7.186 -0.1497 -0.6028  0.1683
   38CHL1  H12A 2770   1.831   0.587   7.224 -1.7079 -1.8059  2.0519
   38CHL1  H12B 2771   1.656   0.583   7.209 -0.4116 -1.3313 -2.5208
   38CHL1   C11 2772   1.754   0.661   7.038  0.3253 -0.2409  0.0593
   38CHL1  H11A 2773   1.845   0.716   7.006 -0.0775  0.1087 -0.5136
   38CHL1  H11B 2774   1.765   0.559   6.994 -1.0156  0.3037 -1.6834
   38CHL1    C9 2775   1.625   0.731   6.973  0.0205  0.4386  0.0937
   38CHL1    H9 2776   1.532   0.676   7.000 -1.0856  1.6581 -1.0364
   38CHL1   C10 2777   1.623   0.756   6.820 -0.1474 -0.2389 -0.1971
   38CHL1   C19 2778   1.766   0.784   6.777  0.6680 -0.6190  0.4604
   38CHL1  H19A 2779   1.816   0.869   6.829  1.3772 -0.6747 -0.1188
   38CHL1  H19B 2780   1.839   0.700   6.786  0.2484 -1.1168 -0.6793
   38CHL1  H19C 2781   1.769   0.806   6.669  1.2790  1.9864  0.9587
   38CHL1    C1 2782   1.558   0.627   6.756  0.3332 -0.0149  0.5274
   38CHL1   H1A 2783   1.620   0.539   6.783  0.5211 -0.2653 -0.6794
   38CHL1   H1B 2784   1.466   0.596   6.811 -0.2873  1.3413  0.2949
   38CHL1    C2 2785   1.545   0.626   6.602  0.9268 -0.4054 -0.1941
   38CHL1   H2A 2786   1.506   0.534   6.553  3.2521 -0.9120 -1.2484
   38CHL1   H2B 2787   1.645   0.636   6.554  0.6053  0.8677 -0.6484
   38CHL1   C20 2788   1.814   0.768   7.502 -0.0863 -1.1015  0.1024
   38CHL1   H20 2789   1.881   0.856   7.494 -0.4133 -0.9051 -0.5421
   38CHL1   C21 2790   1.902   0.646   7.471 -0.2505  0.6814 -0.2992
   38CHL1  H21A 2791   1.950   0.656   7.372  2.3347  0.2649  0.8403
   38CHL1  H21B 2792   1.838   0.555   7.474  4.3773 -2.9182  0.5032
   38CHL1  H21C 2793   1.979   0.628   7.549 -1.8614 -0.0383  1.2306
   38CHL1   C22 2794   1.771   0.764   7.652  0.5657 -0.3219 -0.0190
   38CHL1  H22A 2795   1.698   0.845   7.677  0.9414 -0.1594  0.5833
   38CHL1  H22B 2796   1.729   0.661   7.663  0.0005 -0.3526 -2.1019
   38CHL1   C23 2797   1.887   0.768   7.754 -0.4107  0.6614  0.3976
   38CHL1  H23A 2798   1.932   0.667   7.753  1.7797  1.5735 -1.0153
   38CHL1  H23B 2799   1.972   0.828   7.715  0.2554  0.3925  1.3820
   38CHL1   C24 2800   1.849   0.812   7.891  0.2192 -0.1153 -0.1278
   38CHL1  H24A 2801   1.807   0.915   7.891 -1.5019 -0.7834  0.5641
   38CHL1  H24B 2802   1.770   0.747   7.933 -0.3244  2.2234  2.9145
   38CHL1   C25 2803   1.962   0.802   7.999 -1.4460  0.4888 -0.0020
   38CHL1   H25 2804   2.047   0.850   7.947 -0.7494 -0.3239  0.3650
   38CHL1   C26 2805   1.934   0.887   8.125 -0.1708 -0.5396 -0.0826
   38CHL1  H26A 2806   1.864   0.970   8.102  2.7983  2.0846 -0.3097
   38CHL1  H26B 2807   1.882   0.813   8.190  0.4377 -1.5617 -0.7392
   38CHL1  H26C 2808   2.023   0.905   8.189  0.1853  0.1296 -0.7512
   38CHL1   C27 2809   1.981   0.659   8.040  0.0516  0.1635  0.0927
   38CHL1  H27A 2810   1.879   0.617   8.058 -0.7092  2.3194  1.0956
   38CHL1  H27B 2811   2.025   0.601   7.956 -2.7605  0.7698 -1.9620
   38CHL1  H27C 2812   2.045   0.647   8.130  0.2895  0.4536 -0.0396
   39CHL1    C3 2813   0.887   6.419   7.098  0.1480  0.1196  0.1440
   39CHL1    H3 2814   0.855   6.524   7.083  2.2673  0.5512 -1.9157
   39CHL1    O3 2815   0.842   6.335   6.997  0.3104 -0.1493  0.3180
   39CHL1   H3' 2816   0.892   6.364   6.920 -0.8870 -1.3574 -0.9843
   39CHL1    C4 2817   1.036   6.397   7.101 -0.3709 -0.1809 -0.6702
   39CHL1   H4A 2818   1.056   6.290   7.123  1.4225  0.3025  0.2465
   39CHL1   H4B 2819   1.074   6.405   6.997 -0.8219 -1.8756 -0.9942
   39CHL1    C5 2820   1.108   6.482   7.205 -0.0132  0.3758  0.2159
   39CHL1    C6 2821   1.196   6.580   7.176  0.1038 -0.1493 -0.1526
   39CHL1    H6 2822   1.211   6.599   7.069 -1.1281 -0.5954 -0.4219
   39CHL1    C7 2823   1.264   6.672   7.275 -0.2742 -0.2730 -0.4245
   39CHL1   H7A 2824   1.369   6.682   7.242  0.3026 -2.1272  0.6921
   39CHL1   H7B 2825   1.236   6.779   7.264 -0.2503 -0.2447 -0.2067
   39CHL1    C8 2826   1.251   6.623   7.414 -0.6475  0.9250  0.4452
   39CHL1    H8 2827   1.316   6.533   7.415 -1.6983  0.1575  0.5017
   39CHL1   C14 2828   1.301   6.725   7.528 -0.1492 -0.2026 -0.9869
   39CHL1   H14 2829   1.241   6.818   7.518 -1.9482 -1.2525 -0.5858
   39CHL1   C15 2830   1.442   6.776   7.524 -0.5318 -0.7814  0.4558
   39CHL1  H15A 2831   1.501   6.684   7.505 -0.0392 -0.2659 -0.6351
   39CHL1  H15B 2832   1.451   6.855   7.447  1.4601  0.8668  2.2501
   39CHL1   C16 2833   1.453   6.854   7.661 -0.2732 -0.2988 -0.4393
   39CHL1  H16A 2834   1.545   6.838   7.720 -0.0047 -1.9868 -1.2750
   39CHL1  H16B 2835   1.434   6.964   7.654  0.9479 -0.0250  0.2642
   39CHL1   C17 2836   1.338   6.804   7.748 -0.3722  0.9317  0.1830
   39CHL1   H17 2837   1.252   6.874   7.737  0.1014  1.4413 -0.3752
   39CHL1   C13 2838   1.282   6.674   7.676 -0.0602  0.7030 -0.0348
   39CHL1   C18 2839   1.368   6.554   7.713  0.1482 -0.1259 -0.3083
   39CHL1  H18A 2840   1.342   6.465   7.651  2.3588 -0.8633 -0.2699
   39CHL1  H18B 2841   1.478   6.566   7.697  0.4190  1.1110  2.1493
   39CHL1  H18C 2842   1.349   6.513   7.814  1.8084  0.8906  0.4611
   39CHL1   C12 2843   1.134   6.645   7.697  0.8473  0.2522  0.2530
   39CHL1  H12A 2844   1.127   6.598   7.798  0.7296 -0.9458 -0.2997
   39CHL1  H12B 2845   1.067   6.733   7.688 -1.9244 -1.6206  1.0566
   39CHL1   C11 2846   1.081   6.538   7.595  0.3984  0.0311  0.0029
   39CHL1  H11A 2847   1.137   6.445   7.621 -0.8908 -1.0685 -0.9775
   39CHL1  H11B 2848   0.972   6.523   7.615  0.5527  0.5075  1.2758
   39CHL1    C9 2849   1.106   6.570   7.447  0.3472 -0.2375  0.6447
   39CHL1    H9 2850   1.042   6.658   7.426 -0.2383 -1.4214 -3.3764
   39CHL1   C10 2851   1.053   6.463   7.346 -1.3051  0.1461 -0.6498
   39CHL1   C19 2852   1.102   6.325   7.397  0.6527 -0.8873  0.3197
   39CHL1  H19A 2853   1.057   6.248   7.331 -1.1902  0.4718 -0.1017
   39CHL1  H19B 2854   1.212   6.314   7.412  0.7960  0.1657  0.1618
   39CHL1  H19C 2855   1.051   6.312   7.494  1.7587  1.0963  1.2295
   39CHL1    C1 2856   0.895   6.466   7.341  0.1293  0.5241 -0.5002
   39CHL1   H1A 2857   0.870   6.431   7.444  3.9487  0.0487  0.4186
   39CHL1   H1B 2858   0.852   6.568   7.332  0.3060  0.7358  0.8043
   39CHL1    C2 2859   0.836   6.376   7.233 -0.0204  0.6148  0.2890
   39CHL1   H2A 2860   0.726   6.384   7.216  0.0506 -0.2836 -0.6910
   39CHL1   H2B 2861   0.868   6.270   7.248  1.3887  0.9056 -0.5329
   39CHL1   C20 2862   1.368   6.813   7.893  0.6640 -0.4477  0.1206
   39CHL1   H20 2863   1.440   6.732   7.914  0.6122 -1.1787 -2.2246
   39CHL1   C21 2864   1.239   6.783   7.978  0.5030  0.9102 -0.3105
   39CHL1  H21A 2865   1.264   6.775   8.086  0.9802 -0.6492 -0.5065
   39CHL1  H21B 2866   1.181   6.693   7.946 -2.1218  2.5549 -0.4861
   39CHL1  H21C 2867   1.156   6.854   7.956 -1.9224 -1.2312  1.2761
   39CHL1   C22 2868   1.445   6.951   7.936  0.3780  0.0393 -0.5106
   39CHL1  H22A 2869   1.554   6.950   7.916  1.3495  4.2086  3.0274
   39CHL1  H22B 2870   1.405   7.039   7.881  2.6196  0.3418 -1.7848
   39CHL1   C23 2871   1.445   6.977   8.084 -0.3398  0.0155  0.0820
   39CHL1  H23A 2872   1.344   7.006   8.119  0.8965  3.4946  1.1988
   39CHL1  H23B 2873   1.481   6.895   8.150  1.7088  2.6537  2.4852
   39CHL1   C24 2874   1.525   7.112   8.117 -0.4230  0.1122 -0.0926
   39CHL1  H24A 2875   1.629   7.093   8.082 -0.2041  0.4562  0.3696
   39CHL1  H24B 2876   1.475   7.193   8.060  0.5149  1.0172  0.3552
   39CHL1   C25 2877   1.535   7.140   8.269  0.6627  0.5929  0.4327
   39CHL1   H25 2878   1.569   7.043   8.311  1.7979  0.4784 -0.6678
   39CHL1   C26 2879   1.630   7.247   8.296 -0.1755 -0.3068 -0.2836
   39CHL1  H26A 2880   1.613   7.339   8.237 -0.0334  0.1042  0.3113
   39CHL1  H26B 2881   1.612   7.273   8.403  1.9197 -1.8913  0.5140
   39CHL1  H26C 2882   1.733   7.206   8.288 -0.7918 -1.9569 -0.2220
   39CHL1   C27 2883   1.405   7.167   8.335  0.1815 -0.1558  0.7680
   39CHL1  H27A 2884   1.347   7.248   8.286  0.6440  0.9570  2.0422
   39CHL1  H27B 2885   1.340   7.076   8.327 -1.9480  1.2067  1.7919
   39CHL1  H27C 2886   1.419   7.204   8.438  0.6265  1.9619 -0.0048
   40CHL1    C3 2887   4.639   4.332   7.053 -0.2868  0.8623  0.0468
   40CHL1    H3 2888   4.742   4.344   7.090 -0.7872 -0.7265  2.1608
   40CHL1    O3 2889   4.639   4.352   6.916  1.1355 -0.1785  0.4424
   40CHL1   H3' 2890   4.607   4.442   6.904 -0.3820 -0.5717  1.2912
   40CHL1    C4 2891   4.607   4.183   7.081  0.4117  0.5996 -0.3213
   40CHL1   H4A 2892   4.503   4.153   7.057  0.4074  1.2189 -1.1438
   40CHL1   H4B 2893   4.674   4.114   7.025  0.6778  1.1119 -0.6426
   40CHL1    C5 2894   4.624   4.167   7.230 -0.2353  1.1166  0.2454
   40CHL1    C6 2895   4.710   4.072   7.278 -0.9423 -0.3843  0.3556
   40CHL1    H6 2896   4.772   4.007   7.214  0.3114  1.1834 -0.1018
   40CHL1    C7 2897   4.716   4.037   7.421 -0.2324  0.0355 -0.0277
   40CHL1   H7A 2898   4.725   3.928   7.440 -0.4130  0.2956  1.6601
   40CHL1   H7B 2899   4.804   4.088   7.466 -1.5969  3.1922 -0.6793
   40CHL1    C8 2900   4.592   4.086   7.498  0.1286 -0.2987 -0.3248
   40CHL1    H8 2901   4.511   4.017   7.467 -0.1716 -1.0858  2.0233
   40CHL1   C14 2902   4.610   4.074   7.647 -1.2492  0.2669  1.3099
   40CHL1   H14 2903   4.692   4.147   7.662 -0.5217  0.3223 -2.0933
   40CHL1   C15 2904   4.652   3.944   7.712  0.0236  0.3518 -0.8413
   40CHL1  H15A 2905   4.598   3.861   7.663 -1.2863  0.5670  0.1936
   40CHL1  H15B 2906   4.760   3.925   7.694 -0.1838  0.6202 -2.4953
   40CHL1   C16 2907   4.625   3.956   7.861  0.0825  0.5839 -0.0601
   40CHL1  H16A 2908   4.552   3.879   7.892  0.7913  0.1798  0.6605
   40CHL1  H16B 2909   4.720   3.942   7.917 -0.1207  0.4617  0.2524
   40CHL1   C17 2910   4.557   4.096   7.880 -0.4683  0.4469  0.5467
   40CHL1   H17 2911   4.641   4.169   7.882  0.5636 -0.7130  1.1451
   40CHL1   C13 2912   4.495   4.120   7.741 -0.2410 -0.5813 -0.1571
   40CHL1   C18 2913   4.365   4.031   7.714 -0.4492 -0.2588 -0.9215
   40CHL1  H18A 2914   4.285   4.054   7.788  1.0562  0.9999  0.3932
   40CHL1  H18B 2915   4.321   4.053   7.615 -2.1230  0.0060 -0.1604
   40CHL1  H18C 2916   4.384   3.922   7.716 -1.7888 -0.5111  1.1117
   40CHL1   C12 2917   4.467   4.267   7.709 -0.6328  0.0330  0.3834
   40CHL1  H12A 2918   4.365   4.296   7.743 -1.4319 -2.0300 -0.0860
   40CHL1  H12B 2919   4.559   4.317   7.746  0.2121 -0.7371 -0.6189
   40CHL1   C11 2920   4.454   4.297   7.562  0.1218  0.4348  0.3518
   40CHL1  H11A 2921   4.351   4.267   7.534  0.9910 -0.7532 -1.7996
   40CHL1  H11B 2922   4.453   4.405   7.535 -0.0966 -0.5040 -4.0918
   40CHL1    C9 2923   4.563   4.233   7.467 -0.0644 -0.5987 -0.1338
   40CHL1    H9 2924   4.650   4.296   7.495 -0.5236 -0.1169  0.2338
   40CHL1   C10 2925   4.536   4.257   7.317  0.6736  0.0181  0.8411
   40CHL1   C19 2926   4.385   4.215   7.290  0.1523  0.0672 -0.1041
   40CHL1  H19A 2927   4.366   4.237   7.183  0.9203  2.1945  0.1450
   40CHL1  H19B 2928   4.372   4.106   7.309  0.9399 -0.0296 -0.1186
   40CHL1  H19C 2929   4.309   4.275   7.346  0.3276 -1.9472  2.5151
   40CHL1    C1 2930   4.551   4.413   7.276  0.6605  0.0766 -0.3164
   40CHL1   H1A 2931   4.471   4.479   7.314  0.3704 -0.0108 -0.7714
   40CHL1   H1B 2932   4.643   4.454   7.324  0.4289 -0.6590  0.8059
   40CHL1    C2 2933   4.557   4.435   7.123 -0.1596 -0.3561 -0.3077
   40CHL1   H2A 2934   4.611   4.531   7.105  0.4450 -0.8316 -1.1134
   40CHL1   H2B 2935   4.457   4.432   7.076 -1.4369  1.3545  2.0973
   40CHL1   C20 2936   4.464   4.112   8.004  0.5818  0.1977  0.0629
   40CHL1   H20 2937   4.367   4.062   7.984  1.4618 -2.1444  1.3054
   40CHL1   C21 2938   4.436   4.265   8.026 -0.2904  0.1479  0.4927
   40CHL1  H21A 2939   4.360   4.295   7.951  0.5835  0.6098 -0.2440
   40CHL1  H21B 2940   4.529   4.327   8.021 -0.5912  0.6960  1.4083
   40CHL1  H21C 2941   4.381   4.285   8.120  0.0693  1.5565  0.4277
   40CHL1   C22 2942   4.511   4.040   8.133  0.0122 -0.1500 -0.4026
   40CHL1  H22A 2943   4.430   4.026   8.208 -1.2345 -0.7430 -1.8360
   40CHL1  H22B 2944   4.539   3.936   8.107  0.8208 -0.5097  1.6540
   40CHL1   C23 2945   4.632   4.104   8.207  0.3203  0.0313  0.2599
   40CHL1  H23A 2946   4.720   4.084   8.142  0.7669 -0.4068  0.9815
   40CHL1  H23B 2947   4.624   4.214   8.217  2.8946  0.3404 -0.2893
   40CHL1   C24 2948   4.650   4.040   8.345 -0.0154  0.5786 -0.8657
   40CHL1  H24A 2949   4.553   4.061   8.394 -0.1755  1.3373 -1.4786
   40CHL1  H24B 2950   4.658   3.931   8.325 -1.0078  0.0856  1.2613
   40CHL1   C25 2951   4.765   4.084   8.436  0.4678  0.1207  0.4763
   40CHL1   H25 2952   4.855   4.088   8.371 -0.6974 -0.7209 -1.2691
   40CHL1   C26 2953   4.739   4.234   8.483  0.2127 -0.3625 -0.0256
   40CHL1  H26A 2954   4.637   4.254   8.524  1.2080  0.5518  2.1523
   40CHL1  H26B 2955   4.811   4.257   8.563 -0.5533 -0.2920  0.6541
   40CHL1  H26C 2956   4.761   4.306   8.401  0.2798  1.4395  1.5177
   40CHL1   C27 2957   4.787   3.991   8.557  0.5195  0.1936  0.4886
   40CHL1  H27A 2958   4.853   4.039   8.633  2.2834  0.3686 -1.0925
   40CHL1  H27B 2959   4.693   3.967   8.611  1.1105 -0.0046  1.4455
   40CHL1  H27C 2960   4.819   3.889   8.528 -0.1635 -0.2339  1.1901
   41CHL1    C3 2961   4.768   5.380   7.075 -0.7918 -1.1989 -0.1357
   41CHL1    H3 2962   4.761   5.269   7.085 -0.8079 -1.1430  0.5414
   41CHL1    O3 2963   4.782   5.411   6.938 -0.2924 -0.4571 -0.3135
   41CHL1   H3' 2964   4.853   5.355   6.905  0.1111  0.2174 -0.5961
   41CHL1    C4 2965   4.653   5.462   7.126 -0.3010  0.3596 -0.2405
   41CHL1   H4A 2966   4.653   5.571   7.104 -2.8113  0.8612  1.7053
   41CHL1   H4B 2967   4.560   5.424   7.077  1.0328 -1.9803 -1.1015
   41CHL1    C5 2968   4.638   5.434   7.271 -0.2643  0.2548  0.0526
   41CHL1    C6 2969   4.528   5.372   7.324 -0.7573  0.3251  0.0728
   41CHL1    H6 2970   4.453   5.327   7.257 -1.1283 -2.0650  1.9356
   41CHL1    C7 2971   4.509   5.361   7.475  0.4456 -0.2351  0.1689
   41CHL1   H7A 2972   4.407   5.394   7.505  1.0025 -0.7777  3.0017
   41CHL1   H7B 2973   4.522   5.254   7.503  0.0731 -0.9384 -2.1646
   41CHL1    C8 2974   4.606   5.454   7.555 -0.2650 -0.9696  0.4143
   41CHL1    H8 2975   4.569   5.557   7.537  1.3522 -0.2953  0.7628
   41CHL1   C14 2976   4.598   5.421   7.705 -0.4457  0.0419 -0.4563
   41CHL1   H14 2977   4.654   5.325   7.711 -0.8239 -0.1099  0.8353
   41CHL1   C15 2978   4.457   5.411   7.763 -0.9286 -0.1003  0.7022
   41CHL1  H15A 2979   4.406   5.502   7.724  0.8383  0.5005 -0.3391
   41CHL1  H15B 2980   4.395   5.322   7.739  2.6139 -3.2031  2.0873
   41CHL1   C16 2981   4.482   5.430   7.912  0.0076  0.4852 -0.2889
   41CHL1  H16A 2982   4.410   5.506   7.950 -0.6076 -0.3407  0.2385
   41CHL1  H16B 2983   4.453   5.344   7.976  0.4488  0.0925 -0.6145
   41CHL1   C17 2984   4.633   5.463   7.929  0.4869  0.4405 -0.3326
   41CHL1   H17 2985   4.688   5.371   7.957  1.2187  0.5644 -1.3234
   41CHL1   C13 2986   4.683   5.512   7.794  0.3623  0.8882 -0.8066
   41CHL1   C18 2987   4.638   5.663   7.775 -0.1429 -0.4103  0.1261
   41CHL1  H18A 2988   4.711   5.721   7.836  1.5422 -1.6821 -0.5857
   41CHL1  H18B 2989   4.653   5.691   7.669  0.2921 -2.1950 -0.3210
   41CHL1  H18C 2990   4.533   5.678   7.807 -1.7369 -3.1942 -3.1504
   41CHL1   C12 2991   4.829   5.485   7.755  0.0607 -0.4947 -0.0121
   41CHL1  H12A 2992   4.901   5.540   7.819 -0.5440  0.1629  0.1148
   41CHL1  H12B 2993   4.851   5.378   7.773  1.6377  0.0166  1.3381
   41CHL1   C11 2994   4.843   5.515   7.606 -0.1762 -0.0709  0.1230
   41CHL1  H11A 2995   4.847   5.625   7.597  0.5572 -0.1633 -0.8387
   41CHL1  H11B 2996   4.946   5.492   7.572  0.5467  2.3756  0.4607
   41CHL1    C9 2997   4.749   5.445   7.506  0.1080 -0.0687 -0.8106
   41CHL1    H9 2998   4.778   5.337   7.508  1.2257  0.2291 -0.4815
   41CHL1   C10 2999   4.757   5.486   7.356 -0.1450  0.6120  0.7503
   41CHL1   C19 3000   4.773   5.642   7.338  0.1500 -0.5826  0.6440
   41CHL1  H19A 3001   4.863   5.682   7.389  0.2061  0.9627 -0.5824
   41CHL1  H19B 3002   4.768   5.681   7.234 -0.7751 -2.3356  0.0008
   41CHL1  H19C 3003   4.686   5.692   7.387 -0.6329  1.3579 -2.4155
   41CHL1    C1 3004   4.887   5.413   7.299 -0.5179 -0.9441  0.1950
   41CHL1   H1A 3005   4.976   5.450   7.353 -1.1541 -0.3920  0.8882
   41CHL1   H1B 3006   4.876   5.308   7.334  1.0946 -0.3664  2.6437
   41CHL1    C2 3007   4.903   5.424   7.141 -0.2257 -0.8274  0.4239
   41CHL1   H2A 3008   4.993   5.374   7.098 -0.3052 -0.7277  0.1362
   41CHL1   H2B 3009   4.920   5.531   7.116  0.8787 -1.0148  0.3276
   41CHL1   C20 3010   4.649   5.553   8.054 -0.2036 -0.1119 -0.1277
   41CHL1   H20 3011   4.611   5.653   8.024 -1.0474 -0.2740  0.3706
   41CHL1   C21 3012   4.798   5.565   8.085  0.6828 -0.4256 -0.1276
   41CHL1  H21A 3013   4.803   5.609   8.187 -3.4210  3.0261 -1.1370
   41CHL1  H21B 3014   4.840   5.645   8.020  0.6458  1.3966  1.9419
   41CHL1  H21C 3015   4.848   5.466   8.084  0.2471 -0.6546 -1.9972
   41CHL1   C22 3016   4.572   5.505   8.184 -0.0238  0.7712  0.5611
   41CHL1  H22A 3017   4.470   5.466   8.161  0.8191 -1.9364  1.1571
   41CHL1  H22B 3018   4.626   5.417   8.224 -2.7002 -1.4112 -0.3478
   41CHL1   C23 3019   4.564   5.615   8.289 -0.0856 -0.1006  0.5067
   41CHL1  H23A 3020   4.667   5.628   8.328  0.5948 -2.4309 -0.3883
   41CHL1  H23B 3021   4.519   5.708   8.247  0.1497 -0.6266 -0.9865
   41CHL1   C24 3022   4.490   5.561   8.410  0.3171  0.6617 -0.0955
   41CHL1  H24A 3023   4.400   5.523   8.357  0.5324  0.2069 -0.1388
   41CHL1  H24B 3024   4.539   5.487   8.476 -2.1309 -0.5865  0.4298
   41CHL1   C25 3025   4.431   5.674   8.497  0.9242  0.5791 -0.0791
   41CHL1   H25 3026   4.380   5.753   8.437  1.6952 -0.2341 -1.8971
   41CHL1   C26 3027   4.313   5.638   8.598  0.0230  0.2888  0.2119
   41CHL1  H26A 3028   4.293   5.726   8.662 -0.6990  0.7060 -0.5738
   41CHL1  H26B 3029   4.223   5.596   8.549  1.7686 -1.9102 -1.3048
   41CHL1  H26C 3030   4.351   5.564   8.673  4.8160  2.1241 -0.0489
   41CHL1   C27 3031   4.543   5.743   8.570  1.1830  0.3688 -0.0414
   41CHL1  H27A 3032   4.608   5.798   8.499  0.5921 -0.8705 -1.5817
   41CHL1  H27B 3033   4.502   5.822   8.637 -0.1589  0.9663 -1.4935
   41CHL1  H27C 3034   4.604   5.661   8.613  0.3212  0.7744  2.0772
   42CHL1    C3 3035   5.032   1.732   7.001  0.6065  0.0095  0.4379
   42CHL1    H3 3036   4.937   1.782   7.029  0.7564  0.4841  0.1095
   42CHL1    O3 3037   5.041   1.710   6.862  0.2623 -0.1401  0.0283
   42CHL1   H3' 3038   5.049   1.794   6.816 -2.0881  1.7833  2.7665
   42CHL1    C4 3039   5.149   1.825   7.042 -0.8255 -0.4555  0.1517
   42CHL1   H4A 3040   5.242   1.773   7.009 -0.9487 -1.7012  1.6198
   42CHL1   H4B 3041   5.130   1.915   6.979 -0.5056 -0.6536 -0.2355
   42CHL1    C5 3042   5.141   1.840   7.190 -0.3970  0.8130  0.0546
   42CHL1    C6 3043   5.129   1.960   7.255 -0.3512  0.3112 -0.3682
   42CHL1    H6 3044   5.142   2.049   7.191 -1.4285  1.3760  0.8488
   42CHL1    C7 3045   5.138   1.988   7.401 -0.1078 -0.8649  0.0922
   42CHL1   H7A 3046   5.205   2.074   7.417 -0.0861 -0.9112  0.2526
   42CHL1   H7B 3047   5.041   2.024   7.443  0.4968  0.9637 -0.0264
   42CHL1    C8 3048   5.183   1.860   7.471  0.0120  0.2684 -0.7968
   42CHL1    H8 3049   5.291   1.839   7.453 -0.7440 -1.9362 -3.5630
   42CHL1   C14 3050   5.148   1.880   7.622 -0.3666  0.3110 -0.4170
   42CHL1   H14 3051   5.038   1.884   7.639 -0.3149 -1.0521  0.4374
   42CHL1   C15 3052   5.217   2.006   7.684 -0.2871  0.3576  0.3061
   42CHL1  H15A 3053   5.319   2.021   7.642 -1.7764  2.5211 -2.9520
   42CHL1  H15B 3054   5.144   2.088   7.664 -0.7556 -0.2322 -0.4680
   42CHL1   C16 3055   5.204   1.972   7.835 -0.2288  0.0762 -0.6402
   42CHL1  H16A 3056   5.301   1.991   7.888 -0.5556  0.8619 -0.3021
   42CHL1  H16B 3057   5.127   2.036   7.883  0.6891  0.1040  0.8552
   42CHL1   C17 3058   5.156   1.821   7.849 -0.8495  1.4471 -0.5959
   42CHL1   H17 3059   5.046   1.832   7.850 -0.8660  1.3107 -0.6970
   42CHL1   C13 3060   5.193   1.759   7.708  0.0500 -0.8502 -0.4311
   42CHL1   C18 3061   5.344   1.740   7.690  0.2436 -0.4628  0.0710
   42CHL1  H18A 3062   5.363   1.646   7.746 -0.8804 -0.9685 -0.3654
   42CHL1  H18B 3063   5.380   1.718   7.587  1.3535 -2.1480  0.7650
   42CHL1  H18C 3064   5.401   1.826   7.732 -0.4953 -0.3805  0.9324
   42CHL1   C12 3065   5.118   1.636   7.660  0.1220  0.0152  0.0830
   42CHL1  H12A 3066   5.143   1.541   7.712 -3.7379 -1.1894  0.0796
   42CHL1  H12B 3067   5.011   1.663   7.676  0.1935  0.2318  0.1952
   42CHL1   C11 3068   5.137   1.614   7.510  0.6514 -1.4944  0.6609
   42CHL1  H11A 3069   5.240   1.575   7.498  0.6210 -2.9491  4.0101
   42CHL1  H11B 3070   5.062   1.533   7.495 -3.3593  1.2680  3.7450
   42CHL1    C9 3071   5.113   1.736   7.416 -0.2005 -0.1473 -0.0302
   42CHL1    H9 3072   5.005   1.759   7.430 -0.1392 -0.3620  0.8516
   42CHL1   C10 3073   5.142   1.707   7.270 -0.6169 -0.5240  0.0944
   42CHL1   C19 3074   5.287   1.640   7.246  0.2880 -0.3410 -0.3479
   42CHL1  H19A 3075   5.365   1.709   7.285 -0.7300  1.4520 -1.3746
   42CHL1  H19B 3076   5.287   1.541   7.297  1.3997 -0.8814 -1.3300
   42CHL1  H19C 3077   5.305   1.618   7.139 -1.2048  0.6439 -0.8275
   42CHL1    C1 3078   5.039   1.609   7.216 -0.6500  0.2537  0.5008
   42CHL1   H1A 3079   5.047   1.507   7.259  0.0207  1.1762  2.7315
   42CHL1   H1B 3080   4.937   1.650   7.231 -0.4366  0.2820  2.0373
   42CHL1    C2 3081   5.048   1.592   7.070  0.3459  0.5240  0.9630
   42CHL1   H2A 3082   4.952   1.540   7.046  0.6325  0.6760 -0.6295
   42CHL1   H2B 3083   5.137   1.535   7.036 -1.2948 -1.6500 -0.0017
   42CHL1   C20 3084   5.189   1.752   7.982 -0.1523  0.1228  0.2923
   42CHL1   H20 3085   5.289   1.704   7.982 -0.5660 -0.8664 -1.8055
   42CHL1   C21 3086   5.075   1.645   8.001  0.3028 -0.4333 -0.7152
   42CHL1  H21A 3087   5.066   1.573   7.917  1.7182 -0.8752 -0.5215
   42CHL1  H21B 3088   4.973   1.688   8.007  0.6123  0.3183 -0.7766
   42CHL1  H21C 3089   5.090   1.588   8.095 -1.3131 -0.4901 -0.4630
   42CHL1   C22 3090   5.180   1.856   8.100 -0.0929 -0.3008 -0.6185
   42CHL1  H22A 3091   5.239   1.946   8.073 -1.0637  0.2980 -0.8282
   42CHL1  H22B 3092   5.074   1.890   8.106  0.7068  2.1047  1.1341
   42CHL1   C23 3093   5.211   1.803   8.234 -0.6312 -0.6699  0.1686
   42CHL1  H23A 3094   5.132   1.740   8.280 -1.5225  0.6390  0.4713
   42CHL1  H23B 3095   5.299   1.737   8.218 -0.0347  0.2829 -0.5994
   42CHL1   C24 3096   5.258   1.909   8.339 -0.4296  0.0941  0.3626
   42CHL1  H24A 3097   5.356   1.937   8.294 -1.0395  0.2781 -0.8823
   42CHL1  H24B 3098   5.191   1.996   8.353 -2.4216 -1.6661  2.5768
   42CHL1   C25 3099   5.284   1.854   8.475  0.5373 -1.0488  0.4754
   42CHL1   H25 3100   5.342   1.941   8.513  0.6768 -0.8751 -0.1187
   42CHL1   C26 3101   5.153   1.830   8.554 -0.1511  0.1967  0.0075
   42CHL1  H26A 3102   5.182   1.777   8.647  0.8543  0.8192  0.0629
   42CHL1  H26B 3103   5.100   1.925   8.578 -1.2808 -0.3466 -0.2595
   42CHL1  H26C 3104   5.084   1.770   8.491 -0.0913  0.6266 -0.4787
   42CHL1   C27 3105   5.376   1.727   8.473  0.5403  0.1285  0.0051
   42CHL1  H27A 3106   5.421   1.698   8.570  0.4569 -2.2170 -0.5984
   42CHL1  H27B 3107   5.463   1.746   8.408  0.6547 -0.0583  0.1024
   42CHL1  H27C 3108   5.324   1.633   8.445 -0.1677 -0.1497  2.0620
   43CHL1    C3 3109   6.070   0.734   6.899  0.1194 -0.0522  0.6419
   43CHL1    H3 3110   6.006   0.820   6.925 -1.3379 -1.0222  0.3715
   43CHL1    O3 3111   6.088   0.708   6.762 -0.1584  0.0562  0.2936
   43CHL1   H3' 3112   6.181   0.728   6.746  0.1529 -1.1950  0.3913
   43CHL1    C4 3113   6.210   0.760   6.954  0.3667  0.5056 -0.1855
   43CHL1   H4A 3114   6.273   0.676   6.920  2.8575  1.5200  1.6575
   43CHL1   H4B 3115   6.248   0.849   6.899 -2.1216  1.4064 -0.5980
   43CHL1    C5 3116   6.215   0.772   7.101 -0.8696 -0.4027 -0.8737
   43CHL1    C6 3117   6.280   0.885   7.150  0.8424  0.0907  0.3972
   43CHL1    H6 3118   6.335   0.951   7.082  1.5846 -0.6167  0.2990
   43CHL1    C7 3119   6.300   0.906   7.293 -0.8661  0.0406  0.3734
   43CHL1   H7A 3120   6.408   0.927   7.312 -0.2691 -3.5001  1.7205
   43CHL1   H7B 3121   6.246   0.996   7.329  0.0348  0.1433  1.5422
   43CHL1    C8 3122   6.256   0.791   7.381 -0.0052  0.0679 -0.0313
   43CHL1    H8 3123   6.340   0.719   7.375  1.7631  2.0636 -0.3697
   43CHL1   C14 3124   6.239   0.846   7.519 -0.0849 -0.1259  0.2350
   43CHL1   H14 3125   6.162   0.925   7.512  0.5182  0.3840 -1.0714
   43CHL1   C15 3126   6.372   0.897   7.583  0.2375 -0.0867  0.5038
   43CHL1  H15A 3127   6.455   0.825   7.567 -0.3984 -0.7394  0.0960
   43CHL1  H15B 3128   6.395   1.003   7.561 -0.8468  0.3010  1.1406
   43CHL1   C16 3129   6.330   0.896   7.734  0.1123  0.0397 -0.6579
   43CHL1  H16A 3130   6.413   0.849   7.789 -0.3030 -1.0833 -0.9621
   43CHL1  H16B 3131   6.330   1.002   7.768 -0.6643 -0.4169  0.8654
   43CHL1   C17 3132   6.192   0.826   7.753 -0.3500  0.5921 -0.1996
   43CHL1   H17 3133   6.113   0.903   7.738  0.9304  1.9065 -0.4153
   43CHL1   C13 3134   6.181   0.739   7.624  0.0662  0.2101  0.5513
   43CHL1   C18 3135   6.269   0.619   7.649 -0.3694 -0.0297  0.3850
   43CHL1  H18A 3136   6.350   0.636   7.723 -0.0289 -1.1722  0.2931
   43CHL1  H18B 3137   6.227   0.523   7.685  2.2086 -1.0992  0.7259
   43CHL1  H18C 3138   6.311   0.594   7.549 -1.3428  1.4545 -0.4373
   43CHL1   C12 3139   6.043   0.701   7.574 -0.4304 -0.1944 -0.3895
   43CHL1  H12A 3140   5.978   0.643   7.643 -0.1623  0.0797  0.1029
   43CHL1  H12B 3141   5.988   0.796   7.555  0.5101  1.0122  2.3190
   43CHL1   C11 3142   6.063   0.633   7.438  0.5831 -0.4060  0.5757
   43CHL1  H11A 3143   6.116   0.537   7.458  0.4768 -0.7099 -0.5255
   43CHL1  H11B 3144   5.959   0.610   7.405  0.7838 -1.8443  0.8584
   43CHL1    C9 3145   6.130   0.725   7.330 -0.6247  0.4731 -0.0686
   43CHL1    H9 3146   6.055   0.807   7.323 -1.1140  0.0200 -0.2135
   43CHL1   C10 3147   6.144   0.662   7.188  0.0963  0.3684  0.2993
   43CHL1   C19 3148   6.227   0.527   7.198 -0.0717 -0.5189 -0.0128
   43CHL1  H19A 3149   6.247   0.468   7.106 -1.2290  1.4764 -1.6101
   43CHL1  H19B 3150   6.323   0.548   7.250 -0.1644  1.0357 -0.4383
   43CHL1  H19C 3151   6.168   0.465   7.270 -2.3803  1.0069 -0.4752
   43CHL1    C1 3152   6.013   0.620   7.128  0.0415  0.3084  0.0203
   43CHL1   H1A 3153   5.966   0.534   7.181  0.2095 -0.6326 -1.3147
   43CHL1   H1B 3154   5.948   0.707   7.152  0.1859  0.0838  1.3409
   43CHL1    C2 3155   6.012   0.611   6.972 -0.0126  0.1856  0.2125
   43CHL1   H2A 3156   5.905   0.611   6.944 -0.7608  1.3792  2.7370
   43CHL1   H2B 3157   6.070   0.518   6.956  0.1584  0.3166  0.0642
   43CHL1   C20 3158   6.168   0.767   7.896  0.1630  0.6403  0.1239
   43CHL1   H20 3159   6.245   0.691   7.921 -0.1179  0.2032 -0.3200
   43CHL1   C21 3160   6.029   0.705   7.913  0.5658 -1.0252 -0.6527
   43CHL1  H21A 3161   5.954   0.785   7.896 -3.1255 -3.7851  1.2460
   43CHL1  H21B 3162   6.015   0.677   8.019  0.6617  0.8848 -0.1131
   43CHL1  H21C 3163   6.010   0.619   7.844  1.0345 -1.4775 -0.2272
   43CHL1   C22 3164   6.196   0.872   8.011 -0.3550  0.2584  1.1210
   43CHL1  H22A 3165   6.301   0.903   7.995 -0.1728 -1.3666 -1.2859
   43CHL1  H22B 3166   6.141   0.968   7.997 -1.8349 -0.1815  3.3288
   43CHL1   C23 3167   6.198   0.807   8.155  0.0409 -0.3490  0.5580
   43CHL1  H23A 3168   6.092   0.797   8.186 -0.4322 -1.1925 -1.2177
   43CHL1  H23B 3169   6.248   0.708   8.160 -0.2761 -0.4533  3.1592
   43CHL1   C24 3170   6.268   0.896   8.257 -0.7517  0.6710  0.4587
   43CHL1  H24A 3171   6.370   0.919   8.221 -1.0631 -0.2165 -1.0763
   43CHL1  H24B 3172   6.204   0.985   8.281 -1.7952 -0.1756  0.9226
   43CHL1   C25 3173   6.307   0.816   8.385  0.3567 -0.0884  0.7696
   43CHL1   H25 3174   6.346   0.719   8.348  2.3321  0.3699  1.5460
   43CHL1   C26 3175   6.411   0.895   8.473  1.2805 -0.3954 -0.1100
   43CHL1  H26A 3176   6.439   0.829   8.558 -1.6240 -0.2939  1.0221
   43CHL1  H26B 3177   6.490   0.945   8.413 -0.0933  1.3313 -0.5307
   43CHL1  H26C 3178   6.352   0.978   8.517 -0.3200 -0.5998 -1.7332
   43CHL1   C27 3179   6.179   0.803   8.473  0.5041 -0.3435  0.9622
   43CHL1  H27A 3180   6.092   0.758   8.421  0.2983  1.0485  0.0316
   43CHL1  H27B 3181   6.212   0.745   8.562  2.7242 -2.0065 -0.8148
   43CHL1  H27C 3182   6.149   0.903   8.512 -0.7848 -1.2673  2.4377
   44CHL1    C3 3183   6.184   5.299   6.829  0.0555 -1.1523 -0.4547
   44CHL1    H3 3184   6.227   5.202   6.794 -0.5965 -1.9013  0.7234
   44CHL1    O3 3185   6.156   5.382   6.717 -0.4255  0.0552  0.0993
   44CHL1   H3' 3186   6.137   5.461   6.770 -0.4707 -1.3132  2.2405
   44CHL1    C4 3187   6.049   5.263   6.892 -0.2514  0.0306 -0.2236
   44CHL1   H4A 3188   5.980   5.350   6.894  0.1588  0.3576  2.1163
   44CHL1   H4B 3189   6.003   5.204   6.810 -0.0707  2.3818 -2.0969
   44CHL1    C5 3190   6.064   5.193   7.025 -0.0444 -0.3161 -0.1231
   44CHL1    C6 3191   6.015   5.069   7.041  0.6703 -0.5366  0.7454
   44CHL1    H6 3192   5.965   5.012   6.962  1.7127  1.2968 -1.3521
   44CHL1    C7 3193   6.033   5.005   7.174 -0.0450 -0.4812 -0.3029
   44CHL1   H7A 3194   5.954   4.932   7.200  1.2680 -2.6331 -1.9666
   44CHL1   H7B 3195   6.125   4.943   7.165 -0.9489 -1.9898  0.6425
   44CHL1    C8 3196   6.060   5.104   7.289 -0.1975  0.6662 -0.1216
   44CHL1    H8 3197   5.971   5.170   7.300  0.1599  1.8556 -3.1678
   44CHL1   C14 3198   6.099   5.037   7.421  0.5159  0.5073  1.0266
   44CHL1   H14 3199   6.191   4.982   7.391  0.4441 -0.1704  2.0135
   44CHL1   C15 3200   5.997   4.930   7.476 -0.8297 -0.2590  0.2555
   44CHL1  H15A 3201   5.894   4.970   7.468 -1.0729 -0.9054  0.0688
   44CHL1  H15B 3202   6.005   4.842   7.408  0.0918 -1.4914  1.8937
   44CHL1   C16 3203   6.051   4.902   7.612 -0.3543 -0.5780  0.1310
   44CHL1  H16A 3204   5.967   4.908   7.684  0.9662  1.5069  1.6079
   44CHL1  H16B 3205   6.085   4.797   7.619  0.2192 -0.6450 -2.4936
   44CHL1   C17 3206   6.159   5.015   7.652  0.1807  0.0265  0.3357
   44CHL1   H17 3207   6.258   4.972   7.625 -1.5442 -2.5954 -2.5730
   44CHL1   C13 3208   6.131   5.121   7.538  0.1811  0.3143 -0.2964
   44CHL1   C18 3209   6.008   5.207   7.580  0.0227 -0.2376 -0.3806
   44CHL1  H18A 3210   5.982   5.287   7.506 -1.1869 -0.9859 -0.7935
   44CHL1  H18B 3211   5.918   5.143   7.590 -1.4132  1.6993 -0.3335
   44CHL1  H18C 3212   6.030   5.266   7.671 -2.5798 -0.3568  0.3856
   44CHL1   C12 3213   6.257   5.204   7.503  0.5523 -0.6287  0.3487
   44CHL1  H12A 3214   6.262   5.292   7.570  0.2631  0.0769 -0.5263
   44CHL1  H12B 3215   6.344   5.139   7.479  1.7419  0.9848  0.1355
   44CHL1   C11 3216   6.232   5.290   7.369 -0.1562  0.2919 -1.0861
   44CHL1  H11A 3217   6.160   5.371   7.395 -0.9994 -1.3189  2.1169
   44CHL1  H11B 3218   6.327   5.341   7.342  0.6207 -0.8975 -0.6849
   44CHL1    C9 3219   6.178   5.198   7.251 -1.2708 -0.2376 -0.9314
   44CHL1    H9 3220   6.263   5.128   7.237 -1.2189 -0.2418 -0.6055
   44CHL1   C10 3221   6.154   5.272   7.123 -0.6000 -0.4075  0.1503
   44CHL1   C19 3222   6.073   5.404   7.148 -0.1438  0.0906 -0.0373
   44CHL1  H19A 3223   6.044   5.459   7.055  2.5388 -0.0289 -1.0356
   44CHL1  H19B 3224   5.984   5.376   7.208  0.7443 -1.1234  0.7469
   44CHL1  H19C 3225   6.133   5.473   7.211 -1.4859 -0.1669  1.6063
   44CHL1    C1 3226   6.290   5.288   7.053 -0.1069 -0.2388 -0.1847
   44CHL1   H1A 3227   6.348   5.348   7.127  0.1049  0.2364 -0.7318
   44CHL1   H1B 3228   6.332   5.189   7.027  1.7510  0.3918  0.3082
   44CHL1    C2 3229   6.273   5.375   6.930  0.3569  0.0410  0.3215
   44CHL1   H2A 3230   6.379   5.389   6.899  0.4849  1.7044  1.4111
   44CHL1   H2B 3231   6.223   5.471   6.955 -2.1696 -0.8096 -1.1121
   44CHL1   C20 3232   6.150   5.040   7.798 -0.7382 -0.0229 -0.7516
   44CHL1   H20 3233   6.045   5.076   7.810 -1.1173 -1.5099  0.6089
   44CHL1   C21 3234   6.245   5.159   7.832 -0.9861 -0.5149 -0.1894
   44CHL1  H21A 3235   6.246   5.186   7.939  0.5305  0.3907 -0.3902
   44CHL1  H21B 3236   6.222   5.248   7.770 -0.3065  0.4810  0.9561
   44CHL1  H21C 3237   6.351   5.152   7.796 -0.2367  2.6061  1.1280
   44CHL1   C22 3238   6.181   4.910   7.874 -0.6055 -0.1364 -0.6822
   44CHL1  H22A 3239   6.095   4.842   7.858  0.5490 -1.8128 -0.0041
   44CHL1  H22B 3240   6.264   4.856   7.824 -1.4120 -3.3505  1.1945
   44CHL1   C23 3241   6.193   4.920   8.024 -0.2970  0.3691  0.4366
   44CHL1  H23A 3242   6.299   4.954   8.029  0.1986 -0.5974 -2.0710
   44CHL1  H23B 3243   6.127   4.998   8.068  0.2056  1.7234 -1.0835
   44CHL1   C24 3244   6.157   4.790   8.091  0.3287  0.3746 -0.0959
   44CHL1  H24A 3245   6.046   4.789   8.091  0.2943  1.1251 -1.4488
   44CHL1  H24B 3246   6.189   4.700   8.034  1.3315  1.0688 -0.6576
   44CHL1   C25 3247   6.227   4.772   8.229 -0.6003  0.0923  0.2371
   44CHL1   H25 3248   6.322   4.719   8.208 -0.6554  0.0530  0.0913
   44CHL1   C26 3249   6.253   4.900   8.304 -0.0079  0.3252 -0.1523
   44CHL1  H26A 3250   6.321   4.970   8.251 -0.7577  0.9105 -0.3677
   44CHL1  H26B 3251   6.153   4.942   8.332 -1.7360 -2.7353 -1.2425
   44CHL1  H26C 3252   6.309   4.871   8.395  2.3592 -1.8939 -2.1731
   44CHL1   C27 3253   6.144   4.673   8.310  0.5139  0.1927 -0.2306
   44CHL1  H27A 3254   6.125   4.577   8.258  0.4418 -1.2540  2.3308
   44CHL1  H27B 3255   6.196   4.639   8.402 -0.0630 -0.4330 -0.1250
   44CHL1  H27C 3256   6.038   4.696   8.335  0.2125 -0.0270 -1.2764
   45CHL1    C3 3257   0.197   4.172   6.801 -0.0867  0.4619  0.3921
   45CHL1    H3 3258   0.113   4.101   6.815 -1.1454  1.6213  0.0740
   45CHL1    O3 3259   0.230   4.160   6.668 -0.1635  0.4145  0.5940
   45CHL1   H3' 3260   0.326   4.154   6.662 -0.2086  0.1875 -0.0341
   45CHL1    C4 3261   0.142   4.309   6.831 -0.5913  0.0238  0.2651
   45CHL1   H4A 3262   0.216   4.385   6.799 -1.9438  1.1227 -0.3637
   45CHL1   H4B 3263   0.042   4.319   6.784 -0.7611  2.3994  0.9751
   45CHL1    C5 3264   0.124   4.345   6.977 -0.2435  0.2546  0.2498
   45CHL1    C6 3265   0.001   4.376   7.028 -1.0376 -0.9044 -0.6725
   45CHL1    H6 3266  -0.083   4.389   6.958 -1.3588 -0.8367 -0.2731
   45CHL1    C7 3267  -0.026   4.417   7.168 -0.5768  0.6249 -0.7826
   45CHL1   H7A 3268  -0.085   4.511   7.175 -0.0099  1.0852 -1.8924
   45CHL1   H7B 3269  -0.083   4.338   7.220  1.3706 -0.8227 -0.7416
   45CHL1    C8 3270   0.106   4.434   7.247 -0.2332 -0.9510  0.5383
   45CHL1    H8 3271   0.147   4.531   7.211 -1.5833 -0.5096  0.1101
   45CHL1   C14 3272   0.082   4.435   7.404 -0.6716 -0.2574  0.7547
   45CHL1   H14 3273   0.025   4.342   7.426 -1.9320  0.6057  1.2593
   45CHL1   C15 3274  -0.001   4.553   7.463  0.1543 -0.3018  0.1343
   45CHL1  H15A 3275   0.031   4.647   7.413  0.6402  0.6456  2.1314
   45CHL1  H15B 3276  -0.110   4.557   7.443  0.4156 -0.4092 -1.3906
   45CHL1   C16 3277   0.027   4.551   7.609 -0.5994 -0.7653 -0.0463
   45CHL1  H16A 3278   0.048   4.656   7.637 -1.5524 -0.2373 -1.2632
   45CHL1  H16B 3279  -0.062   4.523   7.669 -1.1702 -1.7606 -1.3272
   45CHL1   C17 3280   0.139   4.448   7.626  0.6291  0.0477 -0.2663
   45CHL1   H17 3281   0.089   4.350   7.644 -0.8885  0.6488 -0.9939
   45CHL1   C13 3282   0.205   4.435   7.484  0.1086 -0.0573 -0.1547
   45CHL1   C18 3283   0.290   4.565   7.440  0.0512  0.6055  0.0154
   45CHL1  H18A 3284   0.370   4.579   7.516  0.5794 -1.8865 -0.0060
   45CHL1  H18B 3285   0.332   4.562   7.337  3.6053 -3.5645  1.2945
   45CHL1  H18C 3286   0.229   4.658   7.447 -1.3766 -0.1860 -1.1400
   45CHL1   C12 3287   0.280   4.307   7.460 -0.5827 -0.2797 -0.1083
   45CHL1  H12A 3288   0.380   4.309   7.509 -1.1188 -0.5502  1.0364
   45CHL1  H12B 3289   0.226   4.217   7.495  0.7057 -0.6445  1.0428
   45CHL1   C11 3290   0.320   4.291   7.314  0.7467 -0.2582  0.0783
   45CHL1  H11A 3291   0.394   4.369   7.287 -0.1043  0.8496  0.8537
   45CHL1  H11B 3292   0.371   4.194   7.295  2.7698  0.2907  2.2598
   45CHL1    C9 3293   0.199   4.312   7.215 -0.4673 -0.9127 -0.1479
   45CHL1    H9 3294   0.136   4.222   7.233 -0.0419 -1.0414  0.7891
   45CHL1   C10 3295   0.239   4.312   7.067  0.2176 -0.1563 -0.3859
   45CHL1   C19 3296   0.347   4.424   7.042 -0.4157 -0.4091 -0.8283
   45CHL1  H19A 3297   0.358   4.447   6.934  2.1365  0.1133 -0.5233
   45CHL1  H19B 3298   0.308   4.522   7.077 -2.8578 -1.1673 -1.2588
   45CHL1  H19C 3299   0.447   4.399   7.084  0.0717  0.7194 -1.2555
   45CHL1    C1 3300   0.295   4.164   7.032  0.0965 -0.4711 -0.4752
   45CHL1   H1A 3301   0.389   4.149   7.088  0.0651 -0.3132 -0.3799
   45CHL1   H1B 3302   0.215   4.092   7.058 -2.2678  2.0437 -0.2754
   45CHL1    C2 3303   0.327   4.136   6.880 -0.1370 -0.0043 -0.2655
   45CHL1   H2A 3304   0.364   4.033   6.863  1.1309  0.2637  0.7771
   45CHL1   H2B 3305   0.407   4.210   6.858 -0.8060  1.1769  1.1186
   45CHL1   C20 3306   0.233   4.454   7.749  0.4872 -0.7468  0.8755
   45CHL1   H20 3307   0.314   4.529   7.732 -0.0365 -0.4682 -0.5385
   45CHL1   C21 3308   0.293   4.316   7.777 -0.0526 -0.3802  0.1048
   45CHL1  H21A 3309   0.222   4.235   7.749 -1.9732  0.7696  1.4479
   45CHL1  H21B 3310   0.318   4.303   7.884  0.3503  0.9730  0.1850
   45CHL1  H21C 3311   0.380   4.307   7.709 -0.7658  0.1761 -0.9152
   45CHL1   C22 3312   0.153   4.504   7.881 -0.6845  0.5779 -0.4168
   45CHL1  H22A 3313   0.086   4.589   7.856  0.3257  1.0798 -1.5068
   45CHL1  H22B 3314   0.081   4.420   7.894 -0.4331  0.4108 -0.0932
   45CHL1   C23 3315   0.248   4.533   8.000  0.6840 -0.0415  0.4257
   45CHL1  H23A 3316   0.188   4.555   8.090 -0.4188 -0.2166 -0.2464
   45CHL1  H23B 3317   0.303   4.439   8.025  1.1341 -0.2757 -1.2947
   45CHL1   C24 3318   0.337   4.653   7.968  0.8126  0.0705 -0.2945
   45CHL1  H24A 3319   0.393   4.633   7.875 -1.3528  0.3030 -1.7096
   45CHL1  H24B 3320   0.274   4.744   7.957  2.2950  0.8073 -4.0589
   45CHL1   C25 3321   0.437   4.682   8.077 -0.1590  0.0665 -0.3766
   45CHL1   H25 3322   0.387   4.696   8.175  0.2950 -1.1681  0.0552
   45CHL1   C26 3323   0.537   4.565   8.088 -0.3234 -0.1759 -0.0262
   45CHL1  H26A 3324   0.488   4.465   8.090  0.9619 -0.8125  0.9875
   45CHL1  H26B 3325   0.602   4.558   7.998  2.4241  0.0398  1.8356
   45CHL1  H26C 3326   0.601   4.580   8.177  0.6396 -1.1973 -0.5320
   45CHL1   C27 3327   0.514   4.812   8.054 -0.6550 -0.0403  0.2502
   45CHL1  H27A 3328   0.588   4.814   7.972 -0.0474  1.5145  0.7939
   45CHL1  H27B 3329   0.454   4.901   8.025  0.6040  0.6020 -0.4925
   45CHL1  H27C 3330   0.573   4.844   8.143  2.2096  2.3233 -2.2557
   46CHL1    C3 3331   0.215   5.461   6.999 -0.2506 -0.7691 -0.0452
   46CHL1    H3 3332   0.165   5.376   7.049 -0.9983 -0.2327  0.1468
   46CHL1    O3 3333   0.287   5.425   6.881  0.4041 -0.4781 -0.1977
   46CHL1   H3' 3334   0.218   5.398   6.820 -1.6733 -1.7365  2.5069
   46CHL1    C4 3335   0.109   5.562   6.965  0.4554  0.1806  0.3143
   46CHL1   H4A 3336   0.166   5.646   6.919 -0.6425  0.9733  0.3634
   46CHL1   H4B 3337   0.043   5.513   6.891  0.9012  0.8892 -0.5771
   46CHL1    C5 3338   0.042   5.622   7.089 -0.2972  0.5404 -0.3531
   46CHL1    C6 3339  -0.093   5.621   7.102 -0.1942  0.1286 -0.5619
   46CHL1    H6 3340  -0.153   5.591   7.015 -0.5024  3.2549 -1.5741
   46CHL1    C7 3341  -0.166   5.661   7.227 -0.4365 -0.0480 -0.9528
   46CHL1   H7A 3342  -0.245   5.734   7.198  0.0463  0.2383 -1.5843
   46CHL1   H7B 3343  -0.203   5.574   7.285  1.1716  0.8612  1.5481
   46CHL1    C8 3344  -0.071   5.747   7.320 -0.1601 -0.7234 -0.2308
   46CHL1    H8 3345  -0.063   5.844   7.268  0.8424 -1.3347 -1.2623
   46CHL1   C14 3346  -0.135   5.761   7.456  0.8760 -0.7952 -0.6910
   46CHL1   H14 3347  -0.146   5.656   7.489  1.5398 -0.2956  1.2469
   46CHL1   C15 3348  -0.272   5.827   7.463  0.0616 -0.2147  0.5926
   46CHL1  H15A 3349  -0.272   5.912   7.392  1.8763  0.1598  0.9956
   46CHL1  H15B 3350  -0.354   5.755   7.442 -1.2558  1.6766 -1.0450
   46CHL1   C16 3351  -0.284   5.865   7.616  0.3821 -0.2169  0.1197
   46CHL1  H16A 3352  -0.306   5.974   7.626 -2.3895 -0.7263  0.2776
   46CHL1  H16B 3353  -0.371   5.816   7.664 -1.3513  2.0801 -0.4848
   46CHL1   C17 3354  -0.144   5.835   7.670 -0.2946  0.0375  0.2458
   46CHL1   H17 3355  -0.144   5.728   7.700  0.8788 -0.3641 -1.0958
   46CHL1   C13 3356  -0.043   5.829   7.553 -0.0198  0.1680 -1.0635
   46CHL1   C18 3357  -0.015   5.974   7.519 -0.2819  0.1501 -0.1716
   46CHL1  H18A 3358   0.072   6.014   7.575 -0.3152  0.5356 -0.3949
   46CHL1  H18B 3359   0.018   5.980   7.413  0.9970  2.3266  0.2902
   46CHL1  H18C 3360  -0.108   6.031   7.542 -2.4364 -2.9116 -0.6928
   46CHL1   C12 3361   0.086   5.747   7.584  0.7272  0.2129 -0.5847
   46CHL1  H12A 3362   0.151   5.801   7.656 -0.3424  0.7123  0.0406
   46CHL1  H12B 3363   0.060   5.650   7.631  3.0504  0.9158  2.4918
   46CHL1   C11 3364   0.160   5.721   7.456  0.0365 -0.0451 -0.1946
   46CHL1  H11A 3365   0.193   5.819   7.415  0.1954 -0.1261 -0.2616
   46CHL1  H11B 3366   0.246   5.655   7.480 -1.1967 -0.9046  2.1562
   46CHL1    C9 3367   0.066   5.668   7.341 -0.0817 -0.3583 -0.2689
   46CHL1    H9 3368   0.036   5.569   7.382 -0.1616 -0.3897 -0.4036
   46CHL1   C10 3369   0.141   5.656   7.202 -0.1425 -0.0337 -0.6174
   46CHL1   C19 3370   0.207   5.797   7.174 -0.7880 -0.1111 -0.1588
   46CHL1  H19A 3371   0.133   5.879   7.180  0.7635  1.5346 -2.0526
   46CHL1  H19B 3372   0.303   5.816   7.226 -0.4189  0.7138 -1.1049
   46CHL1  H19C 3373   0.229   5.802   7.065 -2.3860 -0.1178 -0.5063
   46CHL1    C1 3374   0.252   5.553   7.221  0.2471 -0.0740 -0.0926
   46CHL1   H1A 3375   0.328   5.584   7.296  1.6896 -1.5937 -0.8727
   46CHL1   H1B 3376   0.222   5.463   7.279 -1.2020  0.7357  0.4669
   46CHL1    C2 3377   0.317   5.523   7.090  0.2485 -0.1980  0.0705
   46CHL1   H2A 3378   0.397   5.447   7.104  0.3284  0.1109  1.4271
   46CHL1   H2B 3379   0.359   5.619   7.053  0.1298 -0.1998 -0.0680
   46CHL1   C20 3380  -0.078   5.916   7.786  0.0350  0.7318  0.1053
   46CHL1   H20 3381   0.014   5.975   7.763 -0.6781  1.8694  0.1082
   46CHL1   C21 3382  -0.052   5.800   7.894  0.5107  0.0747 -0.0456
   46CHL1  H21A 3383  -0.029   5.857   7.987 -2.5292  0.6308  0.4774
   46CHL1  H21B 3384   0.027   5.732   7.856 -0.8828 -2.0421  0.6407
   46CHL1  H21C 3385  -0.145   5.742   7.909  1.8162 -2.1344 -0.0387
   46CHL1   C22 3386  -0.178   6.022   7.837  0.2623 -0.9932 -0.1107
   46CHL1  H22A 3387  -0.193   6.092   7.752  2.8204  0.7517  0.7454
   46CHL1  H22B 3388  -0.265   5.962   7.870 -0.0988 -1.1957 -1.3699
   46CHL1   C23 3389  -0.125   6.108   7.959  0.0884  0.3995 -0.3030
   46CHL1  H23A 3390  -0.217   6.141   8.012 -0.8635 -1.4844 -0.7043
   46CHL1  H23B 3391  -0.072   6.038   8.027 -1.5168  0.0781  0.6666
   46CHL1   C24 3392  -0.040   6.229   7.931 -0.0107 -0.2118 -0.4666
   46CHL1  H24A 3393   0.055   6.185   7.894  1.0062  1.5635 -0.0811
   46CHL1  H24B 3394  -0.083   6.286   7.846  0.7832  0.5985 -0.3438
   46CHL1   C25 3395  -0.012   6.326   8.048  0.0939 -0.0339 -0.0769
   46CHL1   H25 3396   0.079   6.383   8.021  0.5950  0.2599  2.0991
   46CHL1   C26 3397  -0.127   6.413   8.074  0.8447 -0.6460 -0.9003
   46CHL1  H26A 3398  -0.215   6.348   8.096  0.4073  0.1574 -0.2052
   46CHL1  H26B 3399  -0.105   6.474   8.164  1.2825 -2.0117 -0.0640
   46CHL1  H26C 3400  -0.152   6.487   7.994  0.9006  0.8495  0.4039
   46CHL1   C27 3401   0.031   6.255   8.183  0.4311 -0.6279  0.0686
   46CHL1  H27A 3402   0.071   6.323   8.262 -1.2532  0.8965 -0.3271
   46CHL1  H27B 3403  -0.052   6.193   8.223  2.0345 -1.3669  2.5047
   46CHL1  H27C 3404   0.118   6.191   8.158  1.4047  0.6180  0.1357
   47CHL1    C3 3405   5.780   5.426   6.683 -0.3799  0.1215  0.1621
   47CHL1    H3 3406   5.886   5.418   6.715 -0.5551 -2.5111  0.2808
   47CHL1    O3 3407   5.771   5.409   6.542 -0.0257  1.1006  0.0323
   47CHL1   H3' 3408   5.771   5.497   6.504  3.3562  0.7725 -1.0264
   47CHL1    C4 3409   5.694   5.324   6.755  0.4629  0.3788  0.1699
   47CHL1   H4A 3410   5.596   5.342   6.705  0.7889  1.0627 -0.2441
   47CHL1   H4B 3411   5.720   5.219   6.729  1.6412  0.9138 -0.9541
   47CHL1    C5 3412   5.677   5.343   6.903  0.4848 -0.1468  0.0668
   47CHL1    C6 3413   5.704   5.241   6.991 -0.0158  0.0639  0.2273
   47CHL1    H6 3414   5.728   5.144   6.947 -4.0217 -0.4420 -1.3104
   47CHL1    C7 3415   5.700   5.240   7.138 -0.0783  0.4827  0.6950
   47CHL1   H7A 3416   5.660   5.144   7.178 -0.7476 -0.6072 -2.3206
   47CHL1   H7B 3417   5.810   5.242   7.158  0.0059  3.6037  0.4066
   47CHL1    C8 3418   5.636   5.364   7.188  0.0985 -0.4464 -0.5849
   47CHL1    H8 3419   5.529   5.345   7.165 -0.1429 -0.4255  0.5126
   47CHL1   C14 3420   5.671   5.389   7.336 -0.5516 -0.0360 -0.2724
   47CHL1   H14 3421   5.781   5.405   7.329 -0.7543  2.9507  1.8583
   47CHL1   C15 3422   5.677   5.279   7.442  0.0506 -0.1001  0.7722
   47CHL1  H15A 3423   5.588   5.213   7.434  0.5598 -0.6701 -0.6047
   47CHL1  H15B 3424   5.757   5.203   7.424  2.7046  2.5278  0.7393
   47CHL1   C16 3425   5.679   5.352   7.577  0.6416 -0.0929 -0.5386
   47CHL1  H16A 3426   5.596   5.312   7.638 -0.0537  0.9399 -0.7846
   47CHL1  H16B 3427   5.778   5.336   7.625  1.8278 -1.7134 -3.2872
   47CHL1   C17 3428   5.657   5.504   7.541 -0.4800  0.0943 -0.0323
   47CHL1   H17 3429   5.757   5.552   7.532 -0.1598 -0.7058 -0.8740
   47CHL1   C13 3430   5.603   5.507   7.399 -0.1236  0.1964  0.0505
   47CHL1   C18 3431   5.446   5.483   7.403 -1.1481  0.5931 -0.1209
   47CHL1  H18A 3432   5.386   5.577   7.415 -0.7318  1.1996 -2.2910
   47CHL1  H18B 3433   5.404   5.439   7.310 -0.7017 -1.0925  0.4412
   47CHL1  H18C 3434   5.430   5.412   7.486  1.6167 -0.0244 -0.0457
   47CHL1   C12 3435   5.652   5.635   7.313  0.3782  0.4379  0.0396
   47CHL1  H12A 3436   5.613   5.725   7.364  0.2078  0.3296  0.1043
   47CHL1  H12B 3437   5.762   5.639   7.308  0.3997  0.3467  0.3652
   47CHL1   C11 3438   5.625   5.616   7.167 -0.1160  0.9799 -0.0213
   47CHL1  H11A 3439   5.514   5.616   7.157 -0.1322 -1.2902 -0.5324
   47CHL1  H11B 3440   5.663   5.710   7.122  1.3279  1.0837  1.3309
   47CHL1    C9 3441   5.677   5.487   7.102  0.2644  0.2600  0.1247
   47CHL1    H9 3442   5.788   5.488   7.109  0.2119  1.2423  1.1851
   47CHL1   C10 3443   5.654   5.486   6.950  0.3918  0.8223 -0.6267
   47CHL1   C19 3444   5.510   5.536   6.922  0.7916  0.0409  0.0438
   47CHL1  H19A 3445   5.499   5.644   6.947  1.7618 -0.1880  1.5153
   47CHL1  H19B 3446   5.472   5.520   6.818  1.5100 -1.2820 -0.0349
   47CHL1  H19C 3447   5.448   5.474   6.990  0.3807 -0.6957 -0.9817
   47CHL1    C1 3448   5.750   5.585   6.879 -0.0379 -0.0650  0.1963
   47CHL1   H1A 3449   5.721   5.689   6.905 -0.4116  0.2742 -1.4568
   47CHL1   H1B 3450   5.857   5.572   6.905 -0.3472 -0.3725  1.4062
   47CHL1    C2 3451   5.736   5.571   6.729  0.4414  0.9649 -0.3934
   47CHL1   H2A 3452   5.801   5.648   6.681 -1.0451  3.1718  0.9397
   47CHL1   H2B 3453   5.632   5.590   6.694 -0.8404 -1.7770  1.5670
   47CHL1   C20 3454   5.579   5.572   7.654 -0.1896  0.4110 -0.6232
   47CHL1   H20 3455   5.480   5.527   7.677  0.1974 -1.0078 -1.6111
   47CHL1   C21 3456   5.573   5.724   7.628 -0.0786 -0.2227 -0.0712
   47CHL1  H21A 3457   5.538   5.783   7.716 -0.1726 -0.2581 -0.0845
   47CHL1  H21B 3458   5.501   5.748   7.547  0.0369 -0.1011 -0.1405
   47CHL1  H21C 3459   5.672   5.764   7.597  0.6530 -1.9465 -0.0590
   47CHL1   C22 3460   5.664   5.555   7.782 -0.0034 -0.2035 -0.3322
   47CHL1  H22A 3461   5.701   5.453   7.805  2.4205  0.9939  1.4911
   47CHL1  H22B 3462   5.763   5.605   7.778  0.3413 -0.4843  2.5560
   47CHL1   C23 3463   5.593   5.605   7.914  0.0592 -1.0765  0.4552
   47CHL1  H23A 3464   5.602   5.715   7.930 -0.9555 -0.9875  0.5151
   47CHL1  H23B 3465   5.485   5.591   7.895 -0.1410  1.4397 -0.5970
   47CHL1   C24 3466   5.630   5.519   8.030  0.5497 -0.7575 -0.0071
   47CHL1  H24A 3467   5.633   5.412   8.001  0.7820 -0.2523 -1.9617
   47CHL1  H24B 3468   5.734   5.544   8.063  0.9575 -2.4171  0.0804
   47CHL1   C25 3469   5.539   5.534   8.160 -0.8531  0.3434 -0.3244
   47CHL1   H25 3470   5.445   5.477   8.144 -0.2989 -0.9015  0.7851
   47CHL1   C26 3471   5.602   5.462   8.285 -0.7126  0.2288  0.1183
   47CHL1  H26A 3472   5.614   5.354   8.263  4.6348  0.4264  0.9128
   47CHL1  H26B 3473   5.703   5.506   8.299  0.8329 -3.0726  0.0528
   47CHL1  H26C 3474   5.541   5.484   8.375  0.1258  1.1541  0.4818
   47CHL1   C27 3475   5.529   5.681   8.196  0.3706 -0.5525 -0.0897
   47CHL1  H27A 3476   5.486   5.738   8.111 -2.6740  0.8309  2.1799
   47CHL1  H27B 3477   5.465   5.701   8.284 -1.0419  0.4961 -1.3038
   47CHL1  H27C 3478   5.630   5.723   8.215 -0.2183  1.0341 -0.3350
   48CHL1    C3 3479   3.738   0.342   6.359 -0.6768 -0.7775  0.6141
   48CHL1    H3 3480   3.777   0.446   6.363  1.1558 -1.4378  1.3898
   48CHL1    O3 3481   3.716   0.301   6.224 -0.3144 -0.1679  0.2006
   48CHL1   H3' 3482   3.708   0.205   6.225  2.9407 -0.5804  1.7960
   48CHL1    C4 3483   3.840   0.250   6.429 -0.0100 -0.3473 -0.1649
   48CHL1   H4A 3484   3.813   0.145   6.405  0.2800 -0.2541 -0.9266
   48CHL1   H4B 3485   3.939   0.280   6.390 -0.2903 -1.0712 -1.4906
   48CHL1    C5 3486   3.851   0.256   6.581 -0.5052  0.2555 -0.0401
   48CHL1    C6 3487   3.967   0.255   6.646 -0.2988 -0.6544 -0.5800
   48CHL1    H6 3488   4.059   0.247   6.586 -0.1834  0.7117 -0.6261
   48CHL1    C7 3489   3.979   0.267   6.790 -0.1132  0.0928 -1.0901
   48CHL1   H7A 3490   4.052   0.192   6.829 -1.5110 -0.9198 -0.3150
   48CHL1   H7B 3491   4.022   0.365   6.820  0.1702 -0.3406 -0.0259
   48CHL1    C8 3492   3.845   0.237   6.864  0.5524  0.0523  0.5188
   48CHL1    H8 3493   3.822   0.129   6.859 -1.1644  0.4100  0.2464
   48CHL1   C14 3494   3.860   0.275   7.010 -0.4888 -0.3510 -0.3233
   48CHL1   H14 3495   3.875   0.385   7.019  0.0039 -0.4505  0.0631
   48CHL1   C15 3496   3.981   0.209   7.088 -0.3200 -0.0564 -0.4689
   48CHL1  H15A 3497   3.998   0.106   7.053 -1.1175  0.0351 -1.1354
   48CHL1  H15B 3498   4.075   0.268   7.082 -0.0246 -0.4466  0.2545
   48CHL1   C16 3499   3.930   0.218   7.229  0.6499 -0.2390 -0.3017
   48CHL1  H16A 3500   3.940   0.117   7.273 -2.8139  0.0812  1.5311
   48CHL1  H16B 3501   3.984   0.290   7.295  0.1371 -0.2141  0.0903
   48CHL1   C17 3502   3.781   0.259   7.229  0.7244 -0.1578 -0.3618
   48CHL1   H17 3503   3.790   0.369   7.243  2.8668 -0.3318  0.0275
   48CHL1   C13 3504   3.730   0.235   7.083 -0.5076 -0.1709  0.2752
   48CHL1   C18 3505   3.697   0.080   7.071 -0.3322  0.4966  0.5194
   48CHL1  H18A 3506   3.611   0.045   7.132  0.1672 -0.8122  0.4979
   48CHL1  H18B 3507   3.674   0.056   6.965  1.0085  0.2970  0.2663
   48CHL1  H18C 3508   3.787   0.025   7.104 -1.2999 -2.1059 -0.8599
   48CHL1   C12 3509   3.621   0.329   7.034  0.4071  0.5383  1.0671
   48CHL1  H12A 3510   3.520   0.313   7.077  0.4445 -0.6365  0.7410
   48CHL1  H12B 3511   3.656   0.433   7.053 -1.0682  0.9368  1.7293
   48CHL1   C11 3512   3.603   0.302   6.883  0.5565 -0.0123  0.7176
   48CHL1  H11A 3513   3.563   0.199   6.872 -1.6406  0.8729  0.0010
   48CHL1  H11B 3514   3.527   0.370   6.839  2.9433  2.2393 -0.2548
   48CHL1    C9 3515   3.727   0.312   6.797 -0.3649  0.5381  0.0161
   48CHL1    H9 3516   3.764   0.417   6.801 -0.4473  0.6318 -1.2961
   48CHL1   C10 3517   3.706   0.264   6.647 -0.1270 -0.0133  0.2467
   48CHL1   C19 3518   3.640   0.128   6.644  0.2940  0.7862 -0.1759
   48CHL1  H19A 3519   3.637   0.089   6.540 -0.1047 -0.6884  0.3645
   48CHL1  H19B 3520   3.683   0.049   6.709 -1.2995  0.3257  0.3432
   48CHL1  H19C 3521   3.533   0.134   6.670  0.2875 -0.5072  0.1892
   48CHL1    C1 3522   3.613   0.368   6.576 -0.0091  0.3613  0.0717
   48CHL1   H1A 3523   3.519   0.368   6.634  0.7082 -0.9974  1.3233
   48CHL1   H1B 3524   3.659   0.469   6.583 -0.5616  0.5991  0.3380
   48CHL1    C2 3525   3.598   0.341   6.428  0.3168 -0.1677  0.5746
   48CHL1   H2A 3526   3.531   0.414   6.378  0.2005 -0.4782  0.2678
   48CHL1   H2B 3527   3.557   0.240   6.405 -2.6511  1.1890 -0.7087
   48CHL1   C20 3528   3.698   0.210   7.348 -0.0450 -0.0849  0.5559
   48CHL1   H20 3529   3.679   0.102   7.331 -1.2655  0.1986 -0.0623
   48CHL1   C21 3530   3.561   0.281   7.366 -0.0574  0.9610 -0.2141
   48CHL1  H21A 3531   3.568   0.386   7.402 -0.6025  1.2021 -0.7778
   48CHL1  H21B 3532   3.492   0.236   7.440  1.1288 -1.4986 -0.5184
   48CHL1  H21C 3533   3.515   0.279   7.265  1.0568 -0.3457 -0.7291
   48CHL1   C22 3534   3.779   0.227   7.475  0.5231  0.2837  0.3228
   48CHL1  H22A 3535   3.876   0.173   7.473  0.5944  0.4097 -1.8496
   48CHL1  H22B 3536   3.804   0.335   7.479  0.8138  0.2277  0.0010
   48CHL1   C23 3537   3.707   0.192   7.606 -0.0520  0.2692  0.0135
   48CHL1  H23A 3538   3.616   0.257   7.606 -0.9861 -0.9820 -1.0079
   48CHL1  H23B 3539   3.669   0.088   7.596  0.6205 -0.1574  1.6196
   48CHL1   C24 3540   3.779   0.204   7.734  0.4108  0.3712  0.1603
   48CHL1  H24A 3541   3.837   0.112   7.760 -1.3176 -0.8970 -0.2518
   48CHL1  H24B 3542   3.850   0.289   7.728  0.4960  0.3729  1.0756
   48CHL1   C25 3543   3.686   0.255   7.856  0.3124  0.1633 -0.2567
   48CHL1   H25 3544   3.643   0.352   7.825  2.1311  0.6410 -1.3870
   48CHL1   C26 3545   3.578   0.149   7.890  0.3087 -0.4822 -0.7025
   48CHL1  H26A 3546   3.603   0.069   7.963 -0.0250  0.3803  0.3925
   48CHL1  H26B 3547   3.494   0.207   7.933  2.2587  1.6594  0.4367
   48CHL1  H26C 3548   3.549   0.095   7.798  0.6452 -0.9479 -0.5383
   48CHL1   C27 3549   3.771   0.293   7.976  0.7003 -0.0166 -0.5835
   48CHL1  H27A 3550   3.720   0.348   8.058 -1.2934 -2.2014 -0.2675
   48CHL1  H27B 3551   3.814   0.201   8.023 -0.1322 -1.6648 -2.8828
   48CHL1  H27C 3552   3.853   0.363   7.947  0.7376  1.0051  1.7646
   49CHL1    C3 3553   1.068   1.072   6.672  0.6841  0.4024  0.0310
   49CHL1    H3 3554   1.170   1.028   6.678  1.8201  2.5278 -1.9798
   49CHL1    O3 3555   1.029   1.082   6.534 -0.1392 -0.2146 -0.2004
   49CHL1   H3' 3556   1.054   1.001   6.488  0.6559  0.6463 -1.3224
   49CHL1    C4 3557   0.977   0.978   6.741  0.7438 -0.0459  0.0308
   49CHL1   H4A 3558   0.875   1.016   6.718  0.5869 -1.5860 -2.1915
   49CHL1   H4B 3559   0.964   0.880   6.689 -0.4115  0.7629 -1.2587
   49CHL1    C5 3560   1.005   0.981   6.889  0.2267  0.4131 -0.1811
   49CHL1    C6 3561   1.037   0.867   6.953 -0.0463 -0.0177 -0.4758
   49CHL1    H6 3562   1.046   0.771   6.899  0.3262  0.0843 -0.5992
   49CHL1    C7 3563   1.063   0.860   7.103  0.0042  0.2163  0.1836
   49CHL1   H7A 3564   1.016   0.769   7.146 -0.5231  1.1734  1.7004
   49CHL1   H7B 3565   1.169   0.834   7.121 -0.0442 -0.1722 -0.0852
   49CHL1    C8 3566   1.027   0.990   7.174  0.1878 -0.6850 -0.7131
   49CHL1    H8 3567   0.918   0.981   7.192  0.0979  0.1693 -0.7467
   49CHL1   C14 3568   1.096   0.987   7.317  0.1204 -0.0810  0.5891
   49CHL1   H14 3569   1.204   0.998   7.297  0.2853 -1.6447  0.4793
   49CHL1   C15 3570   1.099   0.854   7.396 -0.0473 -0.3196 -0.6647
   49CHL1  H15A 3571   0.995   0.815   7.407  0.2792 -2.1416 -3.1208
   49CHL1  H15B 3572   1.158   0.768   7.358 -1.3030 -0.7521 -1.7436
   49CHL1   C16 3573   1.145   0.899   7.539  0.3680 -0.2740  0.2214
   49CHL1  H16A 3574   1.064   0.856   7.601  0.0440 -0.1797 -0.1346
   49CHL1  H16B 3575   1.246   0.862   7.567  0.3046  0.1975  1.0837
   49CHL1   C17 3576   1.140   1.057   7.538  0.1270  0.9242 -1.3310
   49CHL1   H17 3577   1.247   1.083   7.523  0.6322  1.2551  2.0722
   49CHL1   C13 3578   1.065   1.099   7.411 -0.2892 -0.3769 -0.5517
   49CHL1   C18 3579   0.913   1.109   7.426  0.1479  0.0279  0.2025
   49CHL1  H18A 3580   0.873   1.019   7.478 -0.4267 -0.9108 -1.7871
   49CHL1  H18B 3581   0.894   1.198   7.491 -0.7392 -0.7325  1.0252
   49CHL1  H18C 3582   0.871   1.139   7.328  1.4338 -0.4995 -0.5185
   49CHL1   C12 3583   1.120   1.228   7.337  0.3268  0.0605 -0.2832
   49CHL1  H12A 3584   1.102   1.324   7.390 -0.0828 -0.4053  0.4309
   49CHL1  H12B 3585   1.230   1.217   7.328  0.2426  0.0359 -1.5064
   49CHL1   C11 3586   1.058   1.247   7.190 -0.2030 -0.2470 -0.0891
   49CHL1  H11A 3587   0.957   1.290   7.209 -0.1403  0.1494 -0.6298
   49CHL1  H11B 3588   1.120   1.327   7.144  0.4055  0.1390  1.3534
   49CHL1    C9 3589   1.065   1.113   7.105  0.4837  0.2693  0.0575
   49CHL1    H9 3590   1.174   1.099   7.086  0.6524  2.1142 -0.4830
   49CHL1   C10 3591   1.002   1.115   6.963  0.6358  0.1864  0.1083
   49CHL1   C19 3592   0.856   1.169   6.973  0.4165  0.1434  0.0795
   49CHL1  H19A 3593   0.835   1.261   7.033 -0.6176 -0.6176  0.9198
   49CHL1  H19B 3594   0.824   1.199   6.871 -0.1065  0.1316  0.2349
   49CHL1  H19C 3595   0.790   1.087   7.009  0.7205 -0.4299 -0.6430
   49CHL1    C1 3596   1.084   1.220   6.882 -0.3081  0.9339  0.4163
   49CHL1   H1A 3597   1.067   1.320   6.927  0.5276  0.7761  1.1072
   49CHL1   H1B 3598   1.192   1.204   6.901  0.4450  2.2281 -2.2349
   49CHL1    C2 3599   1.062   1.214   6.731 -0.2124 -0.3189  0.6237
   49CHL1   H2A 3600   1.115   1.301   6.686 -0.8040  1.4868  3.1819
   49CHL1   H2B 3601   0.959   1.251   6.711 -0.0352  0.9002  1.7933
   49CHL1   C20 3602   1.089   1.121   7.663  0.5151  0.4038 -0.1180
   49CHL1   H20 3603   0.986   1.082   7.678  0.2146  0.1649 -2.5005
   49CHL1   C21 3604   1.102   1.280   7.645  0.6081  0.0354 -0.6062
   49CHL1  H21A 3605   1.010   1.329   7.607  1.4310  2.2438  0.0916
   49CHL1  H21B 3606   1.189   1.300   7.579 -0.0749 -0.3007 -1.6317
   49CHL1  H21C 3607   1.108   1.320   7.749  3.0531 -1.2868 -0.1761
   49CHL1   C22 3608   1.172   1.062   7.778  0.6449  0.3942 -0.1173
   49CHL1  H22A 3609   1.170   0.951   7.781  0.7988  0.4076  1.5364
   49CHL1  H22B 3610   1.280   1.077   7.756  0.4261  0.2543 -1.3846
   49CHL1   C23 3611   1.130   1.104   7.917  0.1745  0.2637 -0.6572
   49CHL1  H23A 3612   1.198   1.051   7.988  1.0702  0.9209 -0.9940
   49CHL1  H23B 3613   1.154   1.211   7.933  0.4170  0.0939  0.1907
   49CHL1   C24 3614   0.976   1.079   7.951 -0.2151 -0.3742  0.6419
   49CHL1  H24A 3615   0.930   1.135   7.867  1.6104 -3.6712 -2.8253
   49CHL1  H24B 3616   0.946   0.975   7.930  2.0664 -0.5460 -2.4312
   49CHL1   C25 3617   0.926   1.129   8.086 -0.1218  0.3504  0.2084
   49CHL1   H25 3618   0.960   1.233   8.104  0.4377  0.5449 -1.7886
   49CHL1   C26 3619   0.770   1.140   8.085 -1.3842  0.7704  0.1285
   49CHL1  H26A 3620   0.734   1.159   8.188 -1.9120  0.2863  0.0391
   49CHL1  H26B 3621   0.740   1.225   8.020 -2.5780  1.3585  1.4025
   49CHL1  H26C 3622   0.723   1.049   8.041  0.8626 -1.1572  1.5005
   49CHL1   C27 3623   0.973   1.045   8.208 -0.7166 -0.1302 -0.0501
   49CHL1  H27A 3624   1.079   1.010   8.201 -0.2932  0.9174  0.7456
   49CHL1  H27B 3625   0.957   1.112   8.295  0.1786  0.3088 -0.2055
   49CHL1  H27C 3626   0.914   0.955   8.233  0.2038 -0.5673  0.6270
   50CHL1    C3 3627   3.477   2.865   7.221  0.4808 -0.4066 -0.4725
   50CHL1    H3 3628   3.418   2.930   7.289  0.8659  2.0040 -2.3094
   50CHL1    O3 3629   3.435   2.892   7.085  0.1592  0.3345 -0.0051
   50CHL1   H3' 3630   3.494   2.840   7.031  1.0766  0.3997  0.8851
   50CHL1    C4 3631   3.622   2.908   7.227  0.4735  0.2927 -0.3397
   50CHL1   H4A 3632   3.678   2.860   7.144  0.2610 -1.2620  0.3814
   50CHL1   H4B 3633   3.620   3.018   7.207  0.7503  0.3381 -0.1266
   50CHL1    C5 3634   3.690   2.872   7.365 -0.3890  0.4990  0.2750
   50CHL1    C6 3635   3.761   2.968   7.435 -0.3196  0.9280 -0.4305
   50CHL1    H6 3636   3.786   3.064   7.388  0.4705  1.0001  0.1073
   50CHL1    C7 3637   3.833   2.933   7.566 -0.2096 -0.8153 -0.4927
   50CHL1   H7A 3638   3.937   2.973   7.560 -0.7775  0.6910 -0.5422
   50CHL1   H7B 3639   3.787   2.988   7.650  4.5667  1.5579  0.9289
   50CHL1    C8 3640   3.850   2.781   7.581 -0.0372 -0.2642  0.4280
   50CHL1    H8 3641   3.928   2.750   7.509  0.3710  2.7546 -0.5899
   50CHL1   C14 3642   3.894   2.750   7.719  0.4157 -0.0066  0.0142
   50CHL1   H14 3643   3.813   2.794   7.780  1.7645  4.1900 -0.8641
   50CHL1   C15 3644   4.016   2.833   7.770 -0.1000 -0.2669  0.2521
   50CHL1  H15A 3645   4.103   2.857   7.705 -1.4342 -1.1197 -1.9693
   50CHL1  H15B 3646   3.977   2.929   7.809  1.0759  0.5648 -0.5561
   50CHL1   C16 3647   4.055   2.749   7.890  0.6050  0.0674 -0.2660
   50CHL1  H16A 3648   4.157   2.708   7.876  0.7872  0.7671 -1.1111
   50CHL1  H16B 3649   4.056   2.803   7.987 -1.9841  0.6213 -0.4654
   50CHL1   C17 3650   3.961   2.621   7.896 -0.0177  0.1114 -0.7360
   50CHL1   H17 3651   3.884   2.649   7.972  0.5564 -1.5544  0.5252
   50CHL1   C13 3652   3.912   2.602   7.759  0.4562 -0.3128  0.6370
   50CHL1   C18 3653   4.011   2.548   7.658  0.2534 -0.0748  0.0601
   50CHL1  H18A 3654   3.985   2.550   7.550  2.0732 -0.6811 -0.4184
   50CHL1  H18B 3655   4.110   2.597   7.666  1.0540 -1.8564  2.0528
   50CHL1  H18C 3656   4.033   2.441   7.680 -0.7150 -0.5524 -1.1704
   50CHL1   C12 3657   3.770   2.543   7.737 -0.4289  0.2954  0.1010
   50CHL1  H12A 3658   3.759   2.435   7.762 -4.2850  0.4002 -0.5379
   50CHL1  H12B 3659   3.706   2.598   7.809  0.5286  1.9345 -0.2465
   50CHL1   C11 3660   3.721   2.568   7.592  0.0596 -1.1534 -0.3366
   50CHL1  H11A 3661   3.788   2.511   7.525 -0.6483 -0.4170 -1.7122
   50CHL1  H11B 3662   3.621   2.520   7.589  0.3019 -1.6615 -0.2851
   50CHL1    C9 3663   3.718   2.716   7.553  0.5114 -0.0110  0.7346
   50CHL1    H9 3664   3.648   2.771   7.619 -2.9028  0.6056 -2.9790
   50CHL1   C10 3665   3.667   2.725   7.405 -0.2053 -0.1292 -0.2775
   50CHL1   C19 3666   3.754   2.642   7.309 -0.2421  0.1931 -0.4615
   50CHL1  H19A 3667   3.703   2.549   7.278  1.8802 -1.0483 -0.3867
   50CHL1  H19B 3668   3.775   2.690   7.210 -1.1905 -0.4309 -0.9718
   50CHL1  H19C 3669   3.853   2.605   7.344 -0.4950 -1.0434 -1.0125
   50CHL1    C1 3670   3.521   2.689   7.390  0.7388 -0.0798  0.4957
   50CHL1   H1A 3671   3.504   2.580   7.407 -0.6224 -0.0453 -0.5329
   50CHL1   H1B 3672   3.463   2.759   7.453  0.6966  0.4242 -0.0935
   50CHL1    C2 3673   3.464   2.714   7.249  0.2021  0.4782 -0.1683
   50CHL1   H2A 3674   3.358   2.680   7.242  0.8995 -1.8007 -0.3769
   50CHL1   H2B 3675   3.509   2.649   7.172  1.2221  0.0294  0.7855
   50CHL1   C20 3676   4.032   2.501   7.965  0.4868 -0.0828 -0.2022
   50CHL1   H20 3677   4.115   2.463   7.901 -0.4453  0.2169 -1.6398
   50CHL1   C21 3678   3.932   2.392   8.003  0.4285 -0.2035  0.8092
   50CHL1  H21A 3679   3.883   2.366   7.907  3.9022 -0.7424 -0.9972
   50CHL1  H21B 3680   3.867   2.434   8.083 -0.7045 -0.5027  0.0750
   50CHL1  H21C 3681   3.981   2.299   8.040  2.0561 -0.1266 -1.0007
   50CHL1   C22 3682   4.110   2.544   8.099 -0.5884  0.0508  0.4012
   50CHL1  H22A 3683   4.193   2.608   8.065  0.7488 -1.1725  1.2726
   50CHL1  H22B 3684   4.023   2.586   8.153 -1.0956  0.9235 -1.0389
   50CHL1   C23 3685   4.181   2.430   8.178 -0.4372  0.5784  0.2002
   50CHL1  H23A 3686   4.116   2.341   8.189 -1.9316  1.4255 -1.2657
   50CHL1  H23B 3687   4.270   2.407   8.115  0.3509  1.9835  0.7538
   50CHL1   C24 3688   4.222   2.493   8.310  0.0374  0.5729  0.4255
   50CHL1  H24A 3689   4.304   2.565   8.289  0.2283 -0.4842 -3.0846
   50CHL1  H24B 3690   4.134   2.546   8.352  0.0748  1.2114 -0.2791
   50CHL1   C25 3691   4.266   2.390   8.419 -0.0475  0.1560  0.3163
   50CHL1   H25 3692   4.182   2.322   8.444 -0.8469 -0.0524 -2.6180
   50CHL1   C26 3693   4.375   2.298   8.363 -0.1420  0.0444 -0.7299
   50CHL1  H26A 3694   4.460   2.360   8.327  0.1308 -0.7894 -1.5684
   50CHL1  H26B 3695   4.418   2.236   8.445 -1.9090  0.3566  0.4847
   50CHL1  H26C 3696   4.335   2.234   8.282 -0.4418 -0.5694 -0.1093
   50CHL1   C27 3697   4.320   2.472   8.536  0.6091  0.6127  0.5294
   50CHL1  H27A 3698   4.251   2.559   8.548 -1.4425 -0.4645 -2.2836
   50CHL1  H27B 3699   4.332   2.412   8.629  0.1698  2.5558  1.8976
   50CHL1  H27C 3700   4.418   2.516   8.506  0.3004  0.3366 -0.9903
   51CHL1    C3 3701   3.019   1.464   6.766 -0.5746  0.8771 -0.3685
   51CHL1    H3 3702   2.938   1.388   6.771 -0.1837  0.5294  0.9383
   51CHL1    O3 3703   3.058   1.473   6.625 -0.6779  0.3139 -0.4915
   51CHL1   H3' 3704   2.976   1.514   6.598 -0.8350  1.0330  0.9775
   51CHL1    C4 3705   2.982   1.601   6.823 -0.6154 -0.2474  0.0430
   51CHL1   H4A 3706   3.058   1.677   6.796  1.1979 -1.6793  0.9242
   51CHL1   H4B 3707   2.893   1.626   6.760  0.2215  0.2816 -0.9566
   51CHL1    C5 3708   2.955   1.608   6.966  0.5718  0.5690  0.4110
   51CHL1    C6 3709   2.850   1.676   7.012  0.5597 -0.1346  0.0089
   51CHL1    H6 3710   2.775   1.714   6.940 -0.3911 -0.2508  0.9255
   51CHL1    C7 3711   2.822   1.702   7.156 -0.2205  0.2635 -0.0290
   51CHL1   H7A 3712   2.791   1.807   7.170 -0.4854 -0.1661  3.1837
   51CHL1   H7B 3713   2.738   1.636   7.185  0.0021  0.8488  2.0863
   51CHL1    C8 3714   2.935   1.669   7.246 -0.3936 -0.1911 -0.0418
   51CHL1    H8 3715   3.009   1.752   7.240  1.2155 -1.3378  2.3540
   51CHL1   C14 3716   2.887   1.655   7.386  0.0274  0.1899 -1.2048
   51CHL1   H14 3717   2.825   1.562   7.387 -0.4079  0.4752 -1.4398
   51CHL1   C15 3718   2.810   1.771   7.450 -0.1039  0.0708 -0.3778
   51CHL1  H15A 3719   2.861   1.869   7.438 -0.6286  0.6308  1.4886
   51CHL1  H15B 3720   2.703   1.784   7.420 -0.2977  1.1068  0.6573
   51CHL1   C16 3721   2.812   1.747   7.606 -0.3615 -0.1795 -0.2625
   51CHL1  H16A 3722   2.843   1.836   7.664 -1.3295  0.3095 -0.4833
   51CHL1  H16B 3723   2.720   1.699   7.647  0.4497 -0.8865  0.8133
   51CHL1   C17 3724   2.920   1.632   7.629  0.1018 -0.1638  0.7843
   51CHL1   H17 3725   2.865   1.536   7.623 -1.4318  0.7049  0.3182
   51CHL1   C13 3726   2.997   1.623   7.491  0.0268  0.1477  0.6660
   51CHL1   C18 3727   3.112   1.723   7.504 -0.0829 -0.3547 -0.0583
   51CHL1  H18A 3728   3.172   1.727   7.411  0.7134 -0.3014  0.4491
   51CHL1  H18B 3729   3.081   1.828   7.519  1.1149 -0.1887  1.4604
   51CHL1  H18C 3730   3.181   1.692   7.586 -1.8745  2.0053  2.5126
   51CHL1   C12 3731   3.058   1.482   7.458 -0.1450  1.1695  0.1971
   51CHL1  H12A 3732   3.148   1.454   7.517  0.0006 -0.4957 -0.7426
   51CHL1  H12B 3733   2.973   1.411   7.467 -1.0984  1.9445 -2.0886
   51CHL1   C11 3734   3.117   1.485   7.313  0.7890  0.8908 -0.0298
   51CHL1  H11A 3735   3.196   1.563   7.307 -0.3952  2.5382  3.2529
   51CHL1  H11B 3736   3.152   1.386   7.277 -0.0433  0.2255  0.9140
   51CHL1    C9 3737   3.005   1.532   7.207  0.0512  0.4125  0.1046
   51CHL1    H9 3738   2.931   1.449   7.206  0.1971  0.2886 -0.3223
   51CHL1   C10 3739   3.049   1.539   7.063  0.2668  0.3206  0.0886
   51CHL1   C19 3740   3.175   1.631   7.055 -0.0115  0.2622  0.0293
   51CHL1  H19A 3741   3.168   1.710   7.132 -0.3788 -0.6968  0.9976
   51CHL1  H19B 3742   3.259   1.561   7.073 -0.9608 -1.4940 -1.9696
   51CHL1  H19C 3743   3.197   1.669   6.953  0.6670 -1.8143 -0.6493
   51CHL1    C1 3744   3.092   1.398   7.000 -0.0962 -0.9591  0.0676
   51CHL1   H1A 3745   3.168   1.351   7.066  0.9833 -0.3626 -0.7324
   51CHL1   H1B 3746   3.002   1.333   7.010 -0.4540 -0.5990 -0.7049
   51CHL1    C2 3747   3.134   1.406   6.853  0.4410 -0.1392  0.2507
   51CHL1   H2A 3748   3.154   1.305   6.811 -0.9305  0.2869 -1.5830
   51CHL1   H2B 3749   3.226   1.462   6.827  1.2682 -2.0394 -1.1373
   51CHL1   C20 3750   2.999   1.624   7.759 -0.0789 -0.1278  0.4525
   51CHL1   H20 3751   3.078   1.701   7.757 -0.0626 -0.1547 -0.4894
   51CHL1   C21 3752   3.068   1.492   7.785  0.8090  0.1848 -0.2015
   51CHL1  H21A 3753   3.007   1.402   7.760 -0.1418 -0.1546  2.8730
   51CHL1  H21B 3754   3.110   1.477   7.887 -0.0223 -0.3124  0.0742
   51CHL1  H21C 3755   3.151   1.488   7.711  0.8948 -0.3892 -0.0840
   51CHL1   C22 3756   2.915   1.660   7.889 -0.3538  0.5523  1.2190
   51CHL1  H22A 3757   2.851   1.750   7.876 -0.2670  0.5972  1.1025
   51CHL1  H22B 3758   2.857   1.567   7.908 -0.2489 -0.3673 -2.2296
   51CHL1   C23 3759   2.991   1.689   8.025 -0.1296 -0.2429  0.4682
   51CHL1  H23A 3760   2.931   1.728   8.110 -0.3893 -1.3366  0.7947
   51CHL1  H23B 3761   3.043   1.595   8.054  0.0787 -0.2965 -0.0656
   51CHL1   C24 3762   3.095   1.799   7.995  0.0109  0.0423  0.0050
   51CHL1  H24A 3763   3.188   1.764   7.945 -0.5819 -1.2212 -0.2447
   51CHL1  H24B 3764   3.055   1.875   7.925 -1.4494 -0.7821 -0.0849
   51CHL1   C25 3765   3.140   1.873   8.122 -1.0720 -0.6274  0.0506
   51CHL1   H25 3766   3.046   1.892   8.178 -0.9393 -0.8750  0.3575
   51CHL1   C26 3767   3.219   1.786   8.211 -0.0117  0.0216  0.0628
   51CHL1  H26A 3768   3.304   1.736   8.161 -0.3087 -1.5504  1.0544
   51CHL1  H26B 3769   3.237   1.837   8.308 -3.6216 -0.4605  1.1223
   51CHL1  H26C 3770   3.148   1.711   8.252  0.0703  0.4002  0.9275
   51CHL1   C27 3771   3.220   1.993   8.087 -0.2177 -0.2812  0.0009
   51CHL1  H27A 3772   3.176   2.059   8.010  0.0787 -1.4776 -1.2245
   51CHL1  H27B 3773   3.239   2.060   8.173 -1.4893 -1.8554  1.5902
   51CHL1  H27C 3774   3.315   1.965   8.037  1.9190  2.2241  2.3056
   52CHL1    C3 3775   4.260   1.173   6.876  0.7277  0.0774  0.6620
   52CHL1    H3 3776   4.230   1.279   6.896  1.5135  0.4752 -0.2071
   52CHL1    O3 3777   4.266   1.140   6.738  0.0333 -0.1046  0.2526
   52CHL1   H3' 3778   4.325   1.065   6.740 -0.4939 -0.5820 -1.0627
   52CHL1    C4 3779   4.400   1.150   6.928  0.7166 -0.9260 -0.3882
   52CHL1   H4A 3780   4.440   1.050   6.901 -0.3587 -1.4166 -0.2422
   52CHL1   H4B 3781   4.464   1.225   6.877  1.6803 -0.1579  1.8159
   52CHL1    C5 3782   4.405   1.168   7.079  0.3091 -0.7029  0.4529
   52CHL1    C6 3783   4.504   1.247   7.133  0.5793 -0.4112  0.3229
   52CHL1    H6 3784   4.584   1.296   7.076 -1.2777  0.9240 -1.2920
   52CHL1    C7 3785   4.509   1.266   7.282 -0.3024  0.2393 -0.0520
   52CHL1   H7A 3786   4.614   1.262   7.319 -0.1903 -0.2881 -0.4196
   52CHL1   H7B 3787   4.469   1.366   7.308  0.0344  0.8509 -1.7381
   52CHL1    C8 3788   4.423   1.163   7.364 -0.0247 -0.0746  0.4843
   52CHL1    H8 3789   4.474   1.065   7.361 -1.2920 -0.7457 -0.0682
   52CHL1   C14 3790   4.405   1.212   7.501  1.2358  0.3215 -0.1824
   52CHL1   H14 3791   4.338   1.299   7.483  1.8270  0.7361 -0.3836
   52CHL1   C15 3792   4.535   1.255   7.584  0.5865  0.6648 -0.0327
   52CHL1  H15A 3793   4.619   1.186   7.558  0.7155  0.8586 -0.1370
   52CHL1  H15B 3794   4.551   1.361   7.556  0.4701  0.4510 -0.9463
   52CHL1   C16 3795   4.492   1.240   7.734 -0.2437  0.2845 -0.0579
   52CHL1  H16A 3796   4.560   1.160   7.771 -1.5203 -0.3744  0.9824
   52CHL1  H16B 3797   4.511   1.324   7.804  1.9354 -0.4778  0.3591
   52CHL1   C17 3798   4.346   1.197   7.737  0.8522  0.4934  0.3812
   52CHL1   H17 3799   4.285   1.290   7.731 -1.0933 -0.7273  0.5217
   52CHL1   C13 3800   4.324   1.122   7.600  0.2371  0.6127 -0.2677
   52CHL1   C18 3801   4.401   0.993   7.613 -0.1355  0.3109  0.0103
   52CHL1  H18A 3802   4.352   0.930   7.690  0.3496 -0.8696 -0.6261
   52CHL1  H18B 3803   4.393   0.937   7.518 -1.3507  0.6599 -0.1045
   52CHL1  H18C 3804   4.509   1.007   7.637 -0.0455 -1.5841  0.9245
   52CHL1   C12 3805   4.181   1.102   7.546 -0.4412  0.5860 -0.2648
   52CHL1  H12A 3806   4.127   1.029   7.610 -0.7241  2.2698  1.5197
   52CHL1  H12B 3807   4.126   1.199   7.550  0.0890  0.8525  2.1233
   52CHL1   C11 3808   4.183   1.065   7.397 -0.1684 -0.3402  0.5119
   52CHL1  H11A 3809   4.213   0.959   7.383  0.2625  0.1343 -3.2606
   52CHL1  H11B 3810   4.085   1.064   7.344  0.3893 -0.6061 -0.5415
   52CHL1    C9 3811   4.282   1.142   7.310  0.0437 -0.6173  0.3184
   52CHL1    H9 3812   4.254   1.249   7.305  2.3235  0.0336  0.1793
   52CHL1   C10 3813   4.292   1.105   7.156  0.6409 -0.1858 -0.3164
   52CHL1   C19 3814   4.328   0.956   7.146 -0.1435 -0.2772 -0.4060
   52CHL1  H19A 3815   4.231   0.908   7.175 -0.0367 -0.1339  0.2191
   52CHL1  H19B 3816   4.367   0.919   7.049 -1.7306  0.1953 -1.2599
   52CHL1  H19C 3817   4.408   0.935   7.220  1.2998  2.2057 -1.1559
   52CHL1    C1 3818   4.149   1.117   7.083  0.7060 -0.2598  0.5385
   52CHL1   H1A 3819   4.072   1.053   7.131  0.6442 -0.5418  0.0750
   52CHL1   H1B 3820   4.127   1.225   7.094  3.1580  0.4272 -0.4891
   52CHL1    C2 3821   4.159   1.083   6.938 -0.3169 -0.1812 -0.3532
   52CHL1   H2A 3822   4.057   1.098   6.896 -1.2130  3.0700  2.4850
   52CHL1   H2B 3823   4.187   0.977   6.921 -2.5055 -0.8183 -0.2976
   52CHL1   C20 3824   4.309   1.129   7.868 -0.4145  0.5074 -0.6993
   52CHL1   H20 3825   4.382   1.049   7.893 -1.7608 -0.7881 -0.7587
   52CHL1   C21 3826   4.164   1.079   7.865  0.9615 -0.2283 -0.5056
   52CHL1  H21A 3827   4.089   1.154   7.831  0.8763 -0.1409 -0.1373
   52CHL1  H21B 3828   4.122   1.055   7.965 -2.7614  0.9275 -1.6197
   52CHL1  H21C 3829   4.158   0.982   7.813  2.2819 -0.2049 -0.7345
   52CHL1   C22 3830   4.325   1.227   7.995 -0.7634 -0.0105  0.9864
   52CHL1  H22A 3831   4.417   1.288   7.978 -0.8425 -0.2997 -0.6606
   52CHL1  H22B 3832   4.247   1.305   7.989 -0.9652 -0.2893 -0.3047
   52CHL1   C23 3833   4.315   1.153   8.129  0.1974 -0.2089 -0.1446
   52CHL1  H23A 3834   4.231   1.081   8.126 -1.4529  1.5883  0.3458
   52CHL1  H23B 3835   4.406   1.094   8.153  2.4963  2.6019 -1.3390
   52CHL1   C24 3836   4.287   1.249   8.253 -0.9030 -0.1355 -0.3994
   52CHL1  H24A 3837   4.378   1.305   8.284  0.6722 -1.2810 -2.6472
   52CHL1  H24B 3838   4.203   1.320   8.235  0.2424  2.0887  2.2798
   52CHL1   C25 3839   4.249   1.169   8.378  0.5344 -0.2453  0.3601
   52CHL1   H25 3840   4.152   1.122   8.349  0.5742  0.1804 -0.4821
   52CHL1   C26 3841   4.351   1.076   8.431 -0.2254  0.3615 -0.3305
   52CHL1  H26A 3842   4.359   0.985   8.368  1.6272  0.5930 -0.4585
   52CHL1  H26B 3843   4.452   1.122   8.431 -1.7490  4.1789  1.8115
   52CHL1  H26C 3844   4.323   1.035   8.531  0.7779 -0.4999 -0.3959
   52CHL1   C27 3845   4.213   1.260   8.493  0.3003  0.6878  0.1917
   52CHL1  H27A 3846   4.155   1.210   8.573  0.6320  0.6776  0.4252
   52CHL1  H27B 3847   4.302   1.305   8.542  1.8421 -0.7954 -1.1067
   52CHL1  H27C 3848   4.161   1.352   8.457  0.4934  0.0558 -1.8117
   53CHL1    C3 3849   0.016   0.751   7.110 -0.0647 -0.2760 -1.0519
   53CHL1    H3 3850  -0.019   0.852   7.142 -0.4459 -1.0080  1.0329
   53CHL1    O3 3851   0.032   0.738   6.973 -0.0800  0.3577 -0.4090
   53CHL1   H3' 3852   0.037   0.643   6.964 -1.7168  0.3195 -1.2115
   53CHL1    C4 3853   0.142   0.715   7.183  0.1968 -0.1781  0.0532
   53CHL1   H4A 3854   0.169   0.612   7.151  3.6408  0.2039  1.3017
   53CHL1   H4B 3855   0.227   0.777   7.147  0.8990 -1.1835 -0.0558
   53CHL1    C5 3856   0.116   0.724   7.329 -0.2039 -0.0988 -0.8139
   53CHL1    C6 3857   0.186   0.813   7.400 -0.4854  0.1494 -0.3971
   53CHL1    H6 3858   0.257   0.875   7.342 -2.7503 -0.6974 -4.4363
   53CHL1    C7 3859   0.172   0.823   7.553  0.2952 -0.5223  0.2890
   53CHL1   H7A 3860   0.275   0.829   7.595  0.8273 -0.7843 -0.9545
   53CHL1   H7B 3861   0.117   0.914   7.585 -1.3039 -0.8719 -1.3061
   53CHL1    C8 3862   0.105   0.700   7.619  0.2907  0.0124 -0.6114
   53CHL1    H8 3863   0.178   0.616   7.614  0.8239  0.3936  0.4188
   53CHL1   C14 3864   0.074   0.739   7.765  0.6641 -0.1347  0.0133
   53CHL1   H14 3865   0.012   0.831   7.761  1.7191  0.5554 -1.1344
   53CHL1   C15 3866   0.191   0.785   7.857 -0.4691 -0.7608 -0.5632
   53CHL1  H15A 3867   0.270   0.709   7.844  0.5932  0.6036 -2.8524
   53CHL1  H15B 3868   0.223   0.884   7.818 -3.5773  0.5072 -0.1515
   53CHL1   C16 3869   0.130   0.787   7.989 -0.0608  0.1086 -0.8953
   53CHL1  H16A 3870   0.206   0.744   8.058  0.8193 -0.9039 -2.4258
   53CHL1  H16B 3871   0.107   0.891   8.022 -2.7165 -0.3690 -1.0016
   53CHL1   C17 3872  -0.003   0.703   7.982  0.4834 -0.5241  0.0502
   53CHL1   H17 3873  -0.069   0.789   7.956  2.3300  0.7196 -0.8145
   53CHL1   C13 3874  -0.001   0.632   7.848  0.5791  0.2687  0.2750
   53CHL1   C18 3875   0.068   0.495   7.860  0.7117  0.8364  0.3180
   53CHL1  H18A 3876   0.090   0.462   7.757 -1.3468 -0.4504  0.2337
   53CHL1  H18B 3877   0.169   0.503   7.906  1.1053  1.0721 -0.5651
   53CHL1  H18C 3878  -0.001   0.428   7.916  0.6983 -0.1867 -0.8811
   53CHL1   C12 3879  -0.135   0.605   7.775 -0.0407  0.0451  0.1005
   53CHL1  H12A 3880  -0.183   0.522   7.832  2.3236 -0.0359  2.1343
   53CHL1  H12B 3881  -0.203   0.693   7.772 -1.2829 -0.8412  0.8539
   53CHL1   C11 3882  -0.106   0.568   7.624  0.2902 -0.3796 -0.2298
   53CHL1  H11A 3883  -0.075   0.462   7.608 -0.2858 -0.1801 -3.2068
   53CHL1  H11B 3884  -0.207   0.571   7.578 -0.2057 -1.1521  0.7708
   53CHL1    C9 3885  -0.019   0.671   7.544  0.0695 -0.1591 -0.3114
   53CHL1    H9 3886  -0.088   0.758   7.542 -1.4622 -1.3360 -1.3108
   53CHL1   C10 3887  -0.002   0.643   7.390 -0.4006  0.4230 -0.5816
   53CHL1   C19 3888   0.055   0.495   7.392 -0.0288  0.2042  0.0301
   53CHL1  H19A 3889  -0.033   0.428   7.398  0.0921 -0.2138 -2.0219
   53CHL1  H19B 3890   0.106   0.474   7.295  0.6510  0.6473  0.2799
   53CHL1  H19C 3891   0.125   0.481   7.477  0.3578 -0.1685 -0.3456
   53CHL1    C1 3892  -0.127   0.661   7.305 -0.4962 -0.0816  0.5559
   53CHL1   H1A 3893  -0.208   0.588   7.328 -1.2038  0.8645  1.1398
   53CHL1   H1B 3894  -0.161   0.765   7.324 -2.3595 -0.2774 -1.2695
   53CHL1    C2 3895  -0.100   0.666   7.153 -0.0311  0.1251  0.4677
   53CHL1   H2A 3896  -0.192   0.674   7.092 -1.5483 -2.2389  2.2810
   53CHL1   H2B 3897  -0.057   0.566   7.127 -0.1720  0.7889 -2.8262
   53CHL1   C20 3898  -0.051   0.633   8.100  0.4444 -0.0844 -0.1583
   53CHL1   H20 3899  -0.040   0.523   8.088 -1.6074 -0.5576  1.6512
   53CHL1   C21 3900  -0.204   0.651   8.118 -0.5929  0.4453  0.3246
   53CHL1  H21A 3901  -0.261   0.631   8.024  0.0782  0.1024 -0.0176
   53CHL1  H21B 3902  -0.225   0.757   8.140 -0.3622  0.5783 -0.0934
   53CHL1  H21C 3903  -0.251   0.587   8.196 -2.3996 -1.8378 -2.4133
   53CHL1   C22 3904   0.024   0.667   8.236  0.0842 -0.3532 -0.2025
   53CHL1  H22A 3905   0.131   0.639   8.227  0.1703  0.6547 -3.8803
   53CHL1  H22B 3906   0.005   0.775   8.252  1.6128 -0.2962  1.6444
   53CHL1   C23 3907  -0.033   0.601   8.360  0.9687 -0.7628  0.1033
   53CHL1  H23A 3908  -0.140   0.626   8.376  0.9160 -1.8838  1.7822
   53CHL1  H23B 3909  -0.044   0.493   8.337  2.5148 -0.5824 -1.7246
   53CHL1   C24 3910   0.048   0.635   8.490  0.4685  0.6443 -0.4761
   53CHL1  H24A 3911   0.069   0.539   8.542  0.2006  1.0377  0.3818
   53CHL1  H24B 3912   0.147   0.674   8.458 -0.5481  0.3218 -4.5493
   53CHL1   C25 3913  -0.032   0.721   8.588 -0.3517 -0.2202  0.5789
   53CHL1   H25 3914  -0.133   0.676   8.602 -1.4036  0.8842 -2.4929
   53CHL1   C26 3915   0.040   0.712   8.720 -0.7106 -0.3222  0.1352
   53CHL1  H26A 3916   0.145   0.744   8.701 -0.7362 -1.5285 -2.3351
   53CHL1  H26B 3917  -0.002   0.784   8.793  1.7851  1.6502 -0.2432
   53CHL1  H26C 3918   0.034   0.611   8.768 -1.2893 -0.2663  0.1858
   53CHL1   C27 3919  -0.054   0.871   8.539  0.8284  0.5029 -0.0841
   53CHL1  H27A 3920   0.043   0.925   8.538  3.0034 -2.9253  3.0034
   53CHL1  H27B 3921  -0.104   0.858   8.441 -2.2402  1.9000  1.1715
   53CHL1  H27C 3922  -0.115   0.925   8.616  0.2891 -1.4971  0.9459
   54CHL1    C3 3923   0.711   2.347   7.061  0.0201  0.9227  0.2725
   54CHL1    H3 3924   0.720   2.444   7.114  0.9756 -0.3495  2.5594
   54CHL1    O3 3925   0.678   2.362   6.921 -0.3356 -0.5929 -0.2095
   54CHL1   H3' 3926   0.745   2.321   6.866  0.9038 -0.0536  0.8259
   54CHL1    C4 3927   0.846   2.279   7.080  0.6440 -0.5129  1.2956
   54CHL1   H4A 3928   0.841   2.181   7.027 -0.2674  0.2378 -0.0621
   54CHL1   H4B 3929   0.926   2.343   7.037  0.7150  1.9872  4.7451
   54CHL1    C5 3930   0.887   2.245   7.221  0.0731 -0.3005 -0.1590
   54CHL1    C6 3931   1.019   2.266   7.270  0.0667  1.0815 -0.0692
   54CHL1    H6 3932   1.094   2.302   7.198 -0.0489  0.3872 -0.5497
   54CHL1    C7 3933   1.061   2.241   7.411  0.1048  0.3030 -0.2265
   54CHL1   H7A 3934   1.162   2.197   7.422 -0.7788 -1.9478 -0.3827
   54CHL1   H7B 3935   1.066   2.337   7.466  1.6946 -0.5077  1.1510
   54CHL1    C8 3936   0.956   2.154   7.484 -0.2612 -0.6162 -0.3834
   54CHL1    H8 3937   0.968   2.047   7.457  3.7840 -1.2224  2.7767
   54CHL1   C14 3938   0.976   2.164   7.635  0.1852  0.5410  0.0246
   54CHL1   H14 3939   0.975   2.272   7.661 -1.8292  0.6537 -0.3389
   54CHL1   C15 3940   1.112   2.109   7.694  0.4577 -0.2005  0.3251
   54CHL1  H15A 3941   1.129   2.006   7.655  1.0680 -0.2497  0.7048
   54CHL1  H15B 3942   1.188   2.175   7.647 -1.1489 -0.2843 -2.6279
   54CHL1   C16 3943   1.094   2.114   7.848  0.4507  0.2655  0.6872
   54CHL1  H16A 3944   1.132   2.019   7.891  1.3044 -0.4663 -1.5167
   54CHL1  H16B 3945   1.129   2.210   7.892 -0.2985  1.3406 -0.9299
   54CHL1   C17 3946   0.933   2.116   7.869 -0.2039  0.0420 -0.6205
   54CHL1   H17 3947   0.913   2.220   7.902 -2.0160 -0.6378  0.5574
   54CHL1   C13 3948   0.869   2.098   7.727 -0.0799 -0.3844 -0.2033
   54CHL1   C18 3949   0.875   1.948   7.698 -1.0184  0.0141  0.5201
   54CHL1  H18A 3950   0.778   1.903   7.728 -2.2078  2.1592  0.1606
   54CHL1  H18B 3951   0.896   1.925   7.591 -0.1684 -1.9664  1.0632
   54CHL1  H18C 3952   0.956   1.894   7.752 -0.3019 -1.9243 -2.2590
   54CHL1   C12 3953   0.726   2.158   7.695  0.0371 -0.4543 -0.1097
   54CHL1  H12A 3954   0.642   2.106   7.746  0.7002  0.7328  2.3626
   54CHL1  H12B 3955   0.726   2.264   7.731  1.4511 -0.3290 -0.4468
   54CHL1   C11 3956   0.704   2.142   7.547  0.1870  0.7276 -0.0049
   54CHL1  H11A 3957   0.692   2.032   7.541  1.9199  0.5196 -0.0592
   54CHL1  H11B 3958   0.610   2.200   7.532  1.2972  2.2600 -1.2743
   54CHL1    C9 3959   0.814   2.202   7.456 -0.1497  0.0093  0.1093
   54CHL1    H9 3960   0.823   2.312   7.468  3.2444 -0.0390 -0.8845
   54CHL1   C10 3961   0.777   2.186   7.305  0.4661  0.0585 -0.3028
   54CHL1   C19 3962   0.769   2.036   7.255  0.2207  0.1801 -0.6873
   54CHL1  H19A 3963   0.856   1.973   7.283 -0.0717 -0.0455 -0.2802
   54CHL1  H19B 3964   0.685   1.992   7.312  0.0291  0.0790 -1.0455
   54CHL1  H19C 3965   0.746   2.033   7.146  2.1388 -0.7400 -1.1121
   54CHL1    C1 3966   0.642   2.258   7.280 -0.0116  0.1614 -0.3039
   54CHL1   H1A 3967   0.560   2.205   7.334  0.2706 -1.0143 -0.9930
   54CHL1   H1B 3968   0.640   2.365   7.311  0.1817 -0.4938  2.1660
   54CHL1    C2 3969   0.608   2.273   7.133 -0.1886  0.3146 -0.7392
   54CHL1   H2A 3970   0.504   2.312   7.126 -0.0338  1.0424  0.6952
   54CHL1   H2B 3971   0.600   2.171   7.089  1.2848 -0.8626  1.5428
   54CHL1   C20 3972   0.884   2.037   7.995  0.4043 -0.3942  0.1453
   54CHL1   H20 3973   0.901   1.929   7.978 -0.6395 -0.4196 -0.8394
   54CHL1   C21 3974   0.733   2.063   8.026  0.6259  0.5277 -0.4132
   54CHL1  H21A 3975   0.716   2.167   8.061 -0.3769  0.6397 -1.1917
   54CHL1  H21B 3976   0.701   1.979   8.092 -2.4167  1.2730 -0.8166
   54CHL1  H21C 3977   0.684   2.034   7.931  0.1407 -0.6159  0.1668
   54CHL1   C22 3978   0.972   2.075   8.116  0.3776  0.1476  0.1184
   54CHL1  H22A 3979   1.070   2.022   8.108  0.1729 -0.3913  1.0229
   54CHL1  H22B 3980   0.988   2.184   8.110  0.3101  0.0848 -2.4098
   54CHL1   C23 3981   0.907   2.017   8.246 -0.3363 -0.3609 -0.4632
   54CHL1  H23A 3982   0.850   2.099   8.294  3.2554  1.0419  1.7659
   54CHL1  H23B 3983   0.857   1.919   8.228  1.5584 -1.6443  0.8675
   54CHL1   C24 3984   1.013   1.986   8.352 -0.5963  0.2414  0.3730
   54CHL1  H24A 3985   1.074   1.910   8.299  0.0774  2.2314 -1.8752
   54CHL1  H24B 3986   1.087   2.067   8.367  0.8463 -0.8709 -0.4708
   54CHL1   C25 3987   0.952   1.943   8.482  0.4272 -0.2973 -0.4317
   54CHL1   H25 3988   0.886   1.855   8.464 -1.1649  0.4359  1.4492
   54CHL1   C26 3989   1.062   1.886   8.580  0.6540 -0.4570  0.0626
   54CHL1  H26A 3990   1.011   1.847   8.671 -2.3795  3.3028  0.2070
   54CHL1  H26B 3991   1.128   1.815   8.525  0.8562 -2.1368  2.3503
   54CHL1  H26C 3992   1.122   1.974   8.608 -0.3688  0.1472  0.4049
   54CHL1   C27 3993   0.875   2.051   8.555  0.2935  0.1184 -0.3895
   54CHL1  H27A 3994   0.826   2.011   8.646  0.6812  0.8485  0.1497
   54CHL1  H27B 3995   0.949   2.129   8.586 -0.4802  0.3152  1.0095
   54CHL1  H27C 3996   0.797   2.108   8.499  0.4208 -0.4922 -1.2107
   55CHL1    C3 3997   6.720   3.874   7.019 -0.1669 -0.0917 -0.5626
   55CHL1    H3 3998   6.829   3.854   7.012  0.5925  3.1711  0.1009
   55CHL1    O3 3999   6.666   3.869   6.889  0.1760  0.2459  0.1488
   55CHL1   H3' 4000   6.666   3.959   6.856  1.3581  0.7602  1.4705
   55CHL1    C4 4001   6.652   3.764   7.106 -0.3590 -0.3249  0.2575
   55CHL1   H4A 4002   6.543   3.760   7.088 -0.4967 -0.2001  1.0115
   55CHL1   H4B 4003   6.681   3.661   7.076 -0.6162 -0.7809  1.5323
   55CHL1    C5 4004   6.674   3.776   7.253  0.1022  0.6904 -0.8787
   55CHL1    C6 4005   6.709   3.670   7.331  0.7743 -0.1670 -0.6663
   55CHL1    H6 4006   6.727   3.571   7.287 -1.1700 -0.6382 -0.4831
   55CHL1    C7 4007   6.735   3.668   7.482 -0.2069  0.4420  0.2012
   55CHL1   H7A 4008   6.698   3.574   7.528  1.2791 -0.3712 -0.1963
   55CHL1   H7B 4009   6.844   3.676   7.500 -0.2668 -1.0599  1.4036
   55CHL1    C8 4010   6.673   3.799   7.539 -1.2719 -0.6536 -0.0768
   55CHL1    H8 4011   6.562   3.804   7.540 -1.2201  2.1453  0.8125
   55CHL1   C14 4012   6.738   3.819   7.684  0.6886  0.3542 -0.3295
   55CHL1   H14 4013   6.848   3.825   7.666  1.0068  0.2055  1.4215
   55CHL1   C15 4014   6.710   3.700   7.781 -0.3380 -0.8259  0.0033
   55CHL1  H15A 4015   6.601   3.680   7.771 -0.7662  2.1392 -2.4694
   55CHL1  H15B 4016   6.756   3.601   7.757 -2.2122 -1.6013 -0.6129
   55CHL1   C16 4017   6.749   3.763   7.912  0.7917  0.1846  0.4273
   55CHL1  H16A 4018   6.664   3.751   7.982  0.3796  0.8610  0.0539
   55CHL1  H16B 4019   6.833   3.709   7.960  1.4864 -0.8003 -1.7658
   55CHL1   C17 4020   6.771   3.914   7.885 -0.7779 -0.0618 -0.3842
   55CHL1   H17 4021   6.880   3.923   7.867 -0.6324  0.6275  0.7258
   55CHL1   C13 4022   6.698   3.948   7.753 -0.5778  0.2136 -0.1031
   55CHL1   C18 4023   6.540   3.961   7.776 -0.9012  0.3017 -0.2042
   55CHL1  H18A 4024   6.505   3.887   7.852 -0.1575  1.6052  1.4987
   55CHL1  H18B 4025   6.515   4.057   7.825 -0.5746  0.8137 -1.0188
   55CHL1  H18C 4026   6.480   3.955   7.683 -3.2573 -1.4975  1.3256
   55CHL1   C12 4027   6.749   4.064   7.662 -0.7306 -0.1170  0.4797
   55CHL1  H12A 4028   6.738   4.166   7.704 -1.2355  0.1282 -0.2136
   55CHL1  H12B 4029   6.859   4.053   7.655 -0.7121 -1.7427  2.3359
   55CHL1   C11 4030   6.689   4.052   7.527  0.4425  0.4570  0.8617
   55CHL1  H11A 4031   6.578   4.048   7.534  0.2387 -0.1003 -1.5368
   55CHL1  H11B 4032   6.722   4.128   7.453 -4.9286 -0.7342 -3.4283
   55CHL1    C9 4033   6.718   3.918   7.452 -0.5110  0.3706  0.5404
   55CHL1    H9 4034   6.828   3.909   7.439 -0.1645  1.1510  2.6659
   55CHL1   C10 4035   6.658   3.912   7.307  0.3424 -0.0607  0.5645
   55CHL1   C19 4036   6.510   3.953   7.306  0.4538 -0.4630 -0.8957
   55CHL1  H19A 4037   6.468   3.937   7.205 -1.5008 -1.5579  0.0239
   55CHL1  H19B 4038   6.448   3.893   7.376  0.8127  0.7383  0.5148
   55CHL1  H19C 4039   6.482   4.058   7.331 -0.2620 -0.9262  0.3716
   55CHL1    C1 4040   6.738   4.005   7.220  0.1178 -0.7792 -0.7354
   55CHL1   H1A 4041   6.732   4.111   7.254  1.0703 -0.3755 -1.7403
   55CHL1   H1B 4042   6.844   3.972   7.230  0.4124  0.3798  0.2818
   55CHL1    C2 4043   6.700   4.016   7.076  0.3085  0.1624  0.1918
   55CHL1   H2A 4044   6.773   4.081   7.024  1.5783 -1.7792 -0.5560
   55CHL1   H2B 4045   6.596   4.051   7.059 -0.7167 -2.8513 -0.2192
   55CHL1   C20 4046   6.727   4.003   8.005  0.2391  0.0374  0.3100
   55CHL1   H20 4047   6.617   4.010   8.018  0.3309  1.1568  0.6319
   55CHL1   C21 4048   6.773   4.154   7.977 -0.4368  0.1709 -0.3407
   55CHL1  H21A 4049   6.705   4.184   7.894  0.4891 -2.9845 -2.4147
   55CHL1  H21B 4050   6.878   4.158   7.939 -0.7128  1.5970 -1.0562
   55CHL1  H21C 4051   6.776   4.216   8.069  1.4058 -2.1609  1.2735
   55CHL1   C22 4052   6.787   3.968   8.139  1.1159 -0.2045 -0.9380
   55CHL1  H22A 4053   6.802   3.858   8.148  0.2069 -0.2055  0.9894
   55CHL1  H22B 4054   6.885   4.022   8.137  0.2528  1.4135 -0.8303
   55CHL1   C23 4055   6.712   4.019   8.261 -0.1049 -0.4011 -0.5669
   55CHL1  H23A 4056   6.675   4.123   8.266  1.4503  0.1279  2.3383
   55CHL1  H23B 4057   6.630   3.948   8.283  1.8009 -1.9818  2.1378
   55CHL1   C24 4058   6.787   4.009   8.399 -0.3530 -0.0970  0.5837
   55CHL1  H24A 4059   6.727   4.071   8.469  1.4009  1.4010  0.8220
   55CHL1  H24B 4060   6.778   3.904   8.435  0.1052 -0.4150 -0.2083
   55CHL1   C25 4061   6.934   4.060   8.396 -0.1518  0.2696  0.1600
   55CHL1   H25 4062   6.990   3.993   8.327 -2.0996  1.8440 -3.1738
   55CHL1   C26 4063   6.947   4.209   8.352  0.0315 -0.8658 -0.2568
   55CHL1  H26A 4064   7.053   4.237   8.336  0.6012 -1.3789  2.1842
   55CHL1  H26B 4065   6.886   4.227   8.261 -0.4900  0.0499  0.2619
   55CHL1  H26C 4066   6.912   4.278   8.432 -1.3198  2.9549 -3.8006
   55CHL1   C27 4067   6.996   4.042   8.539  0.3753  0.2727  0.2851
   55CHL1  H27A 4068   7.106   4.053   8.534  0.1464  3.2477 -0.1199
   55CHL1  H27B 4069   6.958   4.120   8.609 -1.4003  1.2877 -1.6847
   55CHL1  H27C 4070   6.965   3.940   8.567  1.2575 -0.2182 -0.4742
   56CHL1    C3 4071   5.594   2.578   6.874  0.0877  0.0824  0.3232
   56CHL1    H3 4072   5.524   2.662   6.895 -0.9203  0.7660 -4.5362
   56CHL1    O3 4073   5.587   2.554   6.734  0.8122 -0.3526 -0.0315
   56CHL1   H3' 4074   5.672   2.585   6.701 -0.3068  0.8775 -1.9417
   56CHL1    C4 4075   5.736   2.626   6.903  0.6258 -0.0415 -0.0069
   56CHL1   H4A 4076   5.812   2.552   6.868  1.3556  1.0327 -0.7324
   56CHL1   H4B 4077   5.751   2.723   6.852 -0.7799  0.2943  0.1793
   56CHL1    C5 4078   5.768   2.646   7.052  0.5278 -0.0147  0.2438
   56CHL1    C6 4079   5.814   2.762   7.097  0.4271 -0.8749 -0.4139
   56CHL1    H6 4080   5.835   2.842   7.024 -0.7033 -2.2848 -2.3825
   56CHL1    C7 4081   5.828   2.792   7.241 -0.0229 -0.0960 -0.1526
   56CHL1   H7A 4082   5.925   2.846   7.243 -0.8653  1.5956 -1.5812
   56CHL1   H7B 4083   5.754   2.868   7.272  0.4894  1.1912 -1.9107
   56CHL1    C8 4084   5.819   2.677   7.338 -0.1897 -0.9751  0.2962
   56CHL1    H8 4085   5.916   2.623   7.328 -0.5721 -1.2680 -3.3671
   56CHL1   C14 4086   5.788   2.727   7.477 -0.0288  0.3326  0.1636
   56CHL1   H14 4087   5.684   2.764   7.473 -0.6912 -1.1843  1.8252
   56CHL1   C15 4088   5.871   2.841   7.534  0.3900  0.2498 -0.1987
   56CHL1  H15A 4089   5.977   2.814   7.517  1.0151  0.8638  2.2130
   56CHL1  H15B 4090   5.845   2.942   7.496  4.2454  1.1016 -0.9656
   56CHL1   C16 4091   5.834   2.843   7.684 -0.5458  0.8125 -0.0483
   56CHL1  H16A 4092   5.920   2.842   7.754 -1.8763 -2.1381  1.7854
   56CHL1  H16B 4093   5.770   2.929   7.714  0.1896  0.9196  1.2822
   56CHL1   C17 4094   5.755   2.709   7.703  0.0089  0.3600  0.6635
   56CHL1   H17 4095   5.645   2.727   7.701 -1.0181 -3.9298  3.3990
   56CHL1   C13 4096   5.775   2.615   7.585  0.0725  0.3816  0.4557
   56CHL1   C18 4097   5.909   2.537   7.599 -0.7224 -0.8892  0.1516
   56CHL1  H18A 4098   5.908   2.487   7.699  1.3140 -0.0172  0.6635
   56CHL1  H18B 4099   5.932   2.464   7.518  2.3286  0.9961 -0.8642
   56CHL1  H18C 4100   5.988   2.614   7.606 -1.8364  0.1986  1.3298
   56CHL1   C12 4101   5.651   2.527   7.544  0.2366 -0.1790  0.5204
   56CHL1  H12A 4102   5.634   2.434   7.602 -0.8709  0.0579  0.6015
   56CHL1  H12B 4103   5.568   2.601   7.552  1.1204  1.0487 -0.9340
   56CHL1   C11 4104   5.667   2.483   7.398  0.8314  0.2325 -0.1099
   56CHL1  H11A 4105   5.752   2.411   7.406  0.4970 -0.4235 -1.9810
   56CHL1  H11B 4106   5.571   2.434   7.371 -0.2270  0.9891  1.9945
   56CHL1    C9 4107   5.702   2.588   7.292 -0.2820 -0.2661 -0.1981
   56CHL1    H9 4108   5.617   2.659   7.286  0.9381  1.5604  2.1457
   56CHL1   C10 4109   5.721   2.528   7.148 -0.2177 -0.0562  0.3206
   56CHL1   C19 4110   5.825   2.417   7.145  0.1951 -0.6052  0.1470
   56CHL1  H19A 4111   5.797   2.326   7.202  1.0736 -0.7304  0.3822
   56CHL1  H19B 4112   5.859   2.391   7.042  0.5255 -0.3077  0.1784
   56CHL1  H19C 4113   5.921   2.457   7.184  0.3231 -1.0788  0.3126
   56CHL1    C1 4114   5.583   2.480   7.097 -0.1898 -0.3797 -0.8448
   56CHL1   H1A 4115   5.568   2.383   7.148 -0.3265  1.2394  2.4987
   56CHL1   H1B 4116   5.500   2.541   7.138 -0.0365 -0.7595  0.0439
   56CHL1    C2 4117   5.561   2.457   6.948 -0.1602 -0.6278 -0.1116
   56CHL1   H2A 4118   5.455   2.432   6.927 -0.4270 -0.3455  0.8289
   56CHL1   H2B 4119   5.634   2.381   6.914  0.3453 -1.1666  2.0077
   56CHL1   C20 4120   5.770   2.662   7.846 -1.1308 -0.5363 -0.0254
   56CHL1   H20 4121   5.864   2.603   7.857  0.2470  1.7432  1.3092
   56CHL1   C21 4122   5.645   2.566   7.864 -0.0835 -0.2372  0.2837
   56CHL1  H21A 4123   5.655   2.487   7.786  2.3664 -0.5207  0.7975
   56CHL1  H21B 4124   5.547   2.618   7.855 -0.8023 -1.2414  1.8311
   56CHL1  H21C 4125   5.642   2.507   7.958 -2.6979 -1.4833 -0.4806
   56CHL1   C22 4126   5.767   2.773   7.956 -1.0022  0.5602  0.0770
   56CHL1  H22A 4127   5.848   2.849   7.953  0.3660 -0.8532 -2.5659
   56CHL1  H22B 4128   5.675   2.834   7.947 -1.8570 -0.4620  1.5511
   56CHL1   C23 4129   5.755   2.722   8.100  0.3118 -0.1511 -0.1780
   56CHL1  H23A 4130   5.746   2.813   8.164 -3.9532 -0.1302 -0.4924
   56CHL1  H23B 4131   5.666   2.661   8.128 -0.3881  1.0936  0.3974
   56CHL1   C24 4132   5.882   2.631   8.129  0.6587 -0.1272 -0.7400
   56CHL1  H24A 4133   5.874   2.546   8.058 -2.4664 -0.7334  0.1813
   56CHL1  H24B 4134   5.970   2.688   8.092 -0.5416  1.1312 -1.7217
   56CHL1   C25 4135   5.906   2.590   8.280 -0.1496  0.1509 -0.1818
   56CHL1   H25 4136   5.943   2.678   8.336 -2.6686  2.4601 -1.9235
   56CHL1   C26 4137   5.779   2.542   8.352 -0.0593  1.0089  0.4796
   56CHL1  H26A 4138   5.764   2.437   8.319  0.4258  1.4527 -1.2343
   56CHL1  H26B 4139   5.689   2.604   8.334  0.5645  1.2055 -2.5748
   56CHL1  H26C 4140   5.797   2.532   8.461  2.6192  2.3786  0.2576
   56CHL1   C27 4141   6.030   2.489   8.288  0.2107 -0.4636 -0.3168
   56CHL1  H27A 4142   6.055   2.445   8.387 -1.8763 -0.5256  0.2364
   56CHL1  H27B 4143   6.008   2.403   8.222  1.9146 -0.7478 -0.5497
   56CHL1  H27C 4144   6.113   2.554   8.252 -0.6953 -0.3582 -2.3564
   57SAPC     N 4145   1.756   3.808  10.822  0.2165  1.1195  0.2829
   57SAPC   C12 4146   1.817   3.710  10.713 -0.1468  0.0643  1.2166
   57SAPC  H12A 4147   1.881   3.639  10.763 -1.0352  0.3365  2.8334
   57SAPC  H12B 4148   1.879   3.762  10.642 -1.9810  0.8745  0.1077
   57SAPC   C13 4149   1.643   3.884  10.764 -0.2595 -0.3363  0.4835
   57SAPC  H13A 4150   1.664   3.932  10.670  0.4893 -0.6212  0.5039
   57SAPC  H13B 4151   1.560   3.817  10.745  0.9103 -1.7141  0.1421
   57SAPC  H13C 4152   1.613   3.968  10.825 -0.4498  0.3589 -0.5494
   57SAPC   C14 4153   1.710   3.734  10.947  0.6204 -0.7394 -0.3325
   57SAPC  H14A 4154   1.655   3.643  10.927 -2.3008  0.8139 -0.0265
   57SAPC  H14B 4155   1.794   3.704  11.007 -0.7113 -2.8262  0.6164
   57SAPC  H14C 4156   1.643   3.794  11.007 -0.1754 -1.4537 -0.4757
   57SAPC   C15 4157   1.866   3.900  10.864 -0.2140 -0.0438  0.1223
   57SAPC  H15A 4158   1.927   3.844  10.932  0.1416 -0.4145 -0.4924
   57SAPC  H15B 4159   1.932   3.929  10.784 -0.8107  0.2312 -0.2839
   57SAPC  H15C 4160   1.831   3.994  10.904  0.4668 -0.1682  1.0436
   57SAPC   C11 4161   1.718   3.613  10.638 -0.0250 -0.3425 -0.0314
   57SAPC  H11A 4162   1.783   3.568  10.560 -1.5155  2.5981 -3.2491
   57SAPC  H11B 4163   1.644   3.672  10.578  0.2379  0.8210  0.7503
   57SAPC     P 4164   1.734   3.376  10.747  0.4241  0.2991  0.1895
   57SAPC   O13 4165   1.883   3.389  10.772  0.2713  0.1982  0.5033
   57SAPC   O14 4166   1.671   3.293  10.853  0.9244 -0.0803 -0.4012
   57SAPC   O12 4167   1.671   3.513  10.735 -0.4133 -0.8878 -0.3337
   57SAPC   O11 4168   1.710   3.309  10.607 -0.5541  0.0471 -0.0818
   57SAPC    C1 4169   1.600   3.225  10.574  0.0921 -0.0843  0.3011
   57SAPC    HA 4170   1.608   3.125  10.621 -1.7732 -1.0045 -1.2107
   57SAPC    HB 4171   1.512   3.278  10.617 -0.7336 -1.1988  0.0125
   57SAPC    C2 4172   1.579   3.212  10.422 -0.2100 -0.3454  0.1733
   57SAPC    HS 4173   1.481   3.163  10.402  0.2120 -0.9848 -0.3627
   57SAPC   O21 4174   1.689   3.144  10.363 -0.1592  0.1110  0.4176
   57SAPC   C21 4175   1.717   3.017  10.389 -0.0071 -0.2216  0.5207
   57SAPC   O22 4176   1.648   2.938  10.446  0.0474  0.0272 -0.0769
   57SAPC   C22 4177   1.851   2.978  10.330 -0.2697 -0.0220  0.0045
   57SAPC   H2R 4178   1.864   3.034  10.235 -3.4233  1.5078  0.3526
   57SAPC   H2S 4179   1.925   3.018  10.401 -0.8583 -0.4200  0.8546
   57SAPC    C3 4180   1.577   3.356  10.358  0.0020  0.2304 -0.0553
   57SAPC    HX 4181   1.676   3.401  10.382 -0.7208  1.9441 -0.1079
   57SAPC    HY 4182   1.499   3.417  10.408 -0.7941  0.9933 -2.1184
   57SAPC   O31 4183   1.559   3.351  10.217  0.0457 -0.1296 -0.0253
   57SAPC   C31 4184   1.429   3.359  10.169 -0.4981 -0.0970 -0.9209
   57SAPC   O32 4185   1.335   3.372  10.245  0.3967 -0.3068 -0.1283
   57SAPC   C32 4186   1.425   3.336  10.016 -0.3024  0.2837  0.1242
   57SAPC   H2X 4187   1.424   3.225  10.006  0.3779  0.2507  0.4356
   57SAPC   H2Y 4188   1.517   3.372   9.965  0.5057 -1.0633  0.6033
   57SAPC   C23 4189   1.883   2.830  10.317 -0.1063  0.5153  0.1921
   57SAPC   H3R 4190   1.791   2.769  10.308  0.2359 -0.6297  3.3015
   57SAPC   H3S 4191   1.924   2.795  10.414  0.2051 -2.1673 -0.8086
   57SAPC   C24 4192   1.989   2.807  10.203 -0.0698  0.6289 -0.6381
   57SAPC   H4R 4193   2.018   2.703  10.229  0.3917  1.1351  0.9330
   57SAPC   H4S 4194   2.079   2.870  10.215  0.1670  0.2325 -0.3224
   57SAPC   C25 4195   1.928   2.810  10.065  0.2662 -0.5157  0.0195
   57SAPC   H5R 4196   1.874   2.903  10.041 -0.1282 -1.2025 -1.9572
   57SAPC   C26 4197   1.908   2.708   9.977  0.5304  0.3496 -0.6750
   57SAPC   H6R 4198   1.865   2.734   9.879 -0.2167 -2.4328 -1.1546
   57SAPC   C27 4199   1.942   2.559   9.989  0.4072 -0.6288 -0.1956
   57SAPC   H7R 4200   1.976   2.532  10.092 -0.5193 -0.7373  0.0857
   57SAPC   H7S 4201   2.025   2.527   9.921  1.4754  1.1801  0.2016
   57SAPC   C28 4202   1.816   2.477   9.955 -0.9645  0.0410 -0.1138
   57SAPC   H8R 4203   1.745   2.452  10.036 -1.3487 -0.8982 -0.7266
   57SAPC   C29 4204   1.787   2.433   9.831 -0.4244 -0.0427  0.2643
   57SAPC   H9R 4205   1.696   2.372   9.822  0.8854 -2.1095  0.3545
   57SAPC  C210 4206   1.866   2.460   9.706  0.2277 -0.3736 -0.3250
   57SAPC  H10R 4207   1.921   2.367   9.678 -1.2582 -1.0904 -1.0107
   57SAPC  H10S 4208   1.936   2.545   9.722  0.7517 -1.1580  2.0036
   57SAPC  C211 4209   1.765   2.484   9.598  0.2277 -0.1973 -0.3184
   57SAPC  H11R 4210   1.695   2.567   9.612  0.0644 -0.5641  1.2668
   57SAPC  C212 4211   1.784   2.445   9.474  0.2173  0.3305  0.2135
   57SAPC  H12R 4212   1.711   2.491   9.404 -1.5031  0.8694  2.2636
   57SAPC  C213 4213   1.892   2.363   9.412  0.0279  0.2057  0.3052
   57SAPC  H13R 4214   1.846   2.269   9.375  0.5544 -0.6562  1.7534
   57SAPC  H13S 4215   1.973   2.331   9.482  1.2775  0.1358 -1.1273
   57SAPC  C214 4216   1.961   2.424   9.289  0.4258 -0.4782 -0.6711
   57SAPC  H14R 4217   2.058   2.474   9.306  0.1956  0.3366 -1.6882
   57SAPC  C215 4218   1.912   2.420   9.162 -0.0677  0.3469 -0.2628
   57SAPC  H15R 4219   1.970   2.477   9.088 -0.1165  1.0272  0.2049
   57SAPC  C216 4220   1.784   2.363   9.112 -0.0208  0.6120  0.6482
   57SAPC  H16R 4221   1.710   2.335   9.190 -0.9134 -0.2601 -0.4929
   57SAPC  H16S 4222   1.812   2.266   9.066  1.0678  0.6297  1.2162
   57SAPC  C217 4223   1.709   2.459   9.017  0.1389  0.9065  0.3839
   57SAPC  H17R 4224   1.679   2.556   9.063  0.1662  1.1471 -0.0912
   57SAPC  H17S 4225   1.613   2.413   8.985  0.2752  0.5928  0.4275
   57SAPC  C218 4226   1.782   2.484   8.889 -1.1744 -0.3900 -0.0947
   57SAPC  H18R 4227   1.884   2.440   8.890 -0.9117  0.1154 -1.6736
   57SAPC  H18S 4228   1.800   2.593   8.877  1.1949 -0.7731 -0.5514
   57SAPC  C219 4229   1.711   2.415   8.774  0.1773 -0.0373  0.2011
   57SAPC  H19R 4230   1.620   2.466   8.735  0.4801 -0.2090 -0.7699
   57SAPC  H19S 4231   1.669   2.322   8.819 -0.6059  0.0582 -0.2980
   57SAPC  C220 4232   1.800   2.394   8.645 -0.0245  0.7509  0.1257
   57SAPC  H20R 4233   1.743   2.345   8.563  2.6568 -1.3746 -0.6217
   57SAPC  H20S 4234   1.881   2.322   8.673  0.2965 -0.0811 -2.6471
   57SAPC  H20T 4235   1.827   2.496   8.611 -2.2213  1.9698  1.7805
   57SAPC   C33 4236   1.293   3.385   9.940 -0.4116  0.6783 -0.3398
   57SAPC   H3X 4237   1.297   3.494   9.915  0.7372  0.2348 -2.2957
   57SAPC   H3Y 4238   1.212   3.367  10.014 -2.2507  0.5003 -2.2834
   57SAPC   C34 4239   1.259   3.297   9.813 -0.0180 -0.1524  0.0807
   57SAPC   H4X 4240   1.151   3.304   9.786 -0.0586 -0.6328  0.1001
   57SAPC   H4Y 4241   1.278   3.190   9.835 -1.6514 -0.6388 -0.6842
   57SAPC   C35 4242   1.353   3.327   9.699 -0.1157 -0.5968 -0.5479
   57SAPC   H5X 4243   1.460   3.312   9.725 -0.2336 -2.0732 -0.8220
   57SAPC   H5Y 4244   1.325   3.431   9.671 -0.4477 -0.4307  0.3692
   57SAPC   C36 4245   1.329   3.234   9.584 -0.9412 -0.7168  0.5942
   57SAPC   H6X 4246   1.224   3.249   9.548 -1.4305  1.7248  2.7075
   57SAPC   H6Y 4247   1.343   3.133   9.626  1.0374 -1.5226 -1.7694
   57SAPC   C37 4248   1.433   3.256   9.470 -0.2158  0.6399  0.0530
   57SAPC   H7X 4249   1.397   3.190   9.389 -0.7677  0.7474  0.2111
   57SAPC   H7Y 4250   1.531   3.219   9.507 -1.1682 -1.0805  0.9480
   57SAPC   C38 4251   1.454   3.398   9.413 -1.0459 -0.4682 -0.2054
   57SAPC   H8X 4252   1.526   3.443   9.485  3.2414 -1.2840 -3.6362
   57SAPC   H8Y 4253   1.355   3.448   9.423 -0.2284  1.1239  0.1828
   57SAPC   C39 4254   1.506   3.413   9.269 -0.5032 -0.4806 -0.0240
   57SAPC   H9X 4255   1.470   3.508   9.224 -1.7057 -1.1854 -0.6109
   57SAPC   H9Y 4256   1.479   3.320   9.214  1.8060  0.3929 -2.9089
   57SAPC  C310 4257   1.654   3.418   9.262 -0.0027 -0.1168  0.5253
   57SAPC  H10X 4258   1.698   3.323   9.299 -0.2615 -0.7628 -0.7700
   57SAPC  H10Y 4259   1.692   3.502   9.325  0.2444  0.8417 -0.8443
   57SAPC  C311 4260   1.699   3.441   9.112 -0.7111 -0.6121  0.2976
   57SAPC  H11X 4261   1.674   3.541   9.069 -0.7909 -2.1101 -3.5714
   57SAPC  H11Y 4262   1.646   3.366   9.049  1.6342 -1.2711 -1.0011
   57SAPC  C312 4263   1.855   3.424   9.102 -0.6247  0.5150  0.1395
   57SAPC  H12X 4264   1.877   3.317   9.124 -0.6632  0.1576 -1.4282
   57SAPC  H12Y 4265   1.887   3.490   9.185 -0.9460 -0.0691  0.7339
   57SAPC  C313 4266   1.911   3.472   8.975  1.0417 -0.9337 -0.5979
   57SAPC  H13X 4267   1.903   3.582   8.962  0.1565 -1.1395 -2.0484
   57SAPC  H13Y 4268   1.843   3.441   8.893  0.7973  1.9507 -1.5772
   57SAPC  C314 4269   2.043   3.411   8.926  0.1276  0.6513 -0.0947
   57SAPC  H14X 4270   2.043   3.300   8.933  1.0045  0.6798  0.5206
   57SAPC  H14Y 4271   2.122   3.453   8.992 -0.9524  2.6581  0.0164
   57SAPC  C315 4272   2.073   3.449   8.781  0.2722 -0.0924  0.8938
   57SAPC  H15X 4273   2.079   3.555   8.749  1.3457 -0.1163  1.0043
   57SAPC  H15Y 4274   1.988   3.412   8.720  2.2399 -0.0713 -2.0647
   57SAPC  C316 4275   2.189   3.366   8.739 -0.5699  0.2577  0.5518
   57SAPC  H16X 4276   2.174   3.257   8.754  1.2872 -0.1421 -0.2285
   57SAPC  H16Y 4277   2.278   3.401   8.794 -1.2471  1.4742  0.9128
   57SAPC  C317 4278   2.234   3.398   8.592 -0.3078 -0.6781 -0.6347
   57SAPC  H17X 4279   2.345   3.403   8.591 -0.1475 -0.4038  3.2065
   57SAPC  H17Y 4280   2.202   3.502   8.569  1.9469  0.2177 -0.0788
   57SAPC  C318 4281   2.176   3.308   8.492  0.6250 -0.2613  0.7806
   57SAPC  H18X 4282   2.217   3.331   8.392 -3.2110 -2.1356 -1.4782
   57SAPC  H18Y 4283   2.067   3.325   8.483  0.7499  0.5034  0.6385
   57SAPC  H18Z 4284   2.194   3.204   8.526  1.4358 -0.2417  0.4374
   58SAPC     N 4285   4.828   2.472  10.877 -0.5597 -0.3676 -0.4435
   58SAPC   C12 4286   4.688   2.415  10.896  0.0375  0.2230  0.3441
   58SAPC  H12A 4287   4.631   2.463  10.818  1.5190 -0.3713 -1.1759
   58SAPC  H12B 4288   4.646   2.437  10.994 -1.5985 -1.4613  0.0704
   58SAPC   C13 4289   4.892   2.444  10.745  0.0587 -0.3282  0.0322
   58SAPC  H13A 4290   4.827   2.458  10.660  0.5128  0.8119 -0.1493
   58SAPC  H13B 4291   4.987   2.494  10.742  0.3040 -0.8325 -2.1404
   58SAPC  H13C 4292   4.912   2.338  10.735 -1.7236 -0.8593  1.4999
   58SAPC   C14 4293   4.839   2.617  10.898 -0.1451  0.0821 -0.0587
   58SAPC  H14A 4294   4.937   2.657  10.875  1.3210 -3.4215 -0.5841
   58SAPC  H14B 4295   4.767   2.674  10.841 -1.2786 -0.0596  1.2004
   58SAPC  H14C 4296   4.822   2.646  11.000  1.7888  1.8622 -0.1910
   58SAPC   C15 4297   4.922   2.411  10.985 -0.1640 -0.3014 -0.2339
   58SAPC  H15A 4298   4.937   2.304  10.992  0.8548 -0.0795  1.4423
   58SAPC  H15B 4299   5.019   2.456  10.970 -1.1479  1.5532 -1.4231
   58SAPC  H15C 4300   4.875   2.430  11.080 -3.5875 -1.3959 -1.5462
   58SAPC   C11 4301   4.663   2.260  10.882  0.3096 -0.9440 -0.5132
   58SAPC  H11A 4302   4.557   2.228  10.895  0.6895 -2.1048 -0.1583
   58SAPC  H11B 4303   4.730   2.216  10.958  1.3418  0.2479 -0.6995
   58SAPC     P 4304   4.707   2.051  10.716  0.4225  0.0796 -0.6348
   58SAPC   O13 4305   4.753   2.049  10.575  0.3706 -0.0246 -0.1576
   58SAPC   O14 4306   4.767   1.962  10.817 -0.8607  0.1824 -0.2935
   58SAPC   O12 4307   4.701   2.206  10.754 -0.3868 -0.2791  0.0963
   58SAPC   O11 4308   4.562   1.998  10.718  0.6286 -0.0760 -0.0145
   58SAPC    C1 4309   4.461   2.064  10.642 -0.2397 -0.1627  0.2475
   58SAPC    HA 4310   4.373   2.089  10.705  0.2914 -1.9279  1.7979
   58SAPC    HB 4311   4.492   2.164  10.606  0.4665 -0.3511  0.3128
   58SAPC    C2 4312   4.410   1.974  10.526 -0.0213  0.4777  0.1199
   58SAPC    HS 4313   4.496   1.972  10.456  0.5918 -0.6561  0.8783
   58SAPC   O21 4314   4.279   2.010  10.480  0.2813  0.1930  1.0369
   58SAPC   C21 4315   4.275   2.127  10.414 -0.6840 -0.3065 -0.0067
   58SAPC   O22 4316   4.373   2.195  10.391 -0.0296  0.6008  0.4301
   58SAPC   C22 4317   4.135   2.168  10.404  0.4462 -0.3485  0.5357
   58SAPC   H2R 4318   4.079   2.073  10.386  1.6272 -1.3145  1.7264
   58SAPC   H2S 4319   4.107   2.210  10.503 -1.4594 -1.5930  0.5805
   58SAPC    C3 4320   4.400   1.827  10.573 -0.0185 -0.1756 -0.0611
   58SAPC    HX 4321   4.312   1.823  10.640 -0.8034  2.8489 -0.7422
   58SAPC    HY 4322   4.491   1.793  10.627  0.4748  0.2952 -0.5768
   58SAPC   O31 4323   4.384   1.744  10.457  0.1811  0.1531  0.3327
   58SAPC   C31 4324   4.356   1.620  10.481  0.1733  0.3736  0.1452
   58SAPC   O32 4325   4.347   1.567  10.591  0.7818  0.0505 -0.0974
   58SAPC   C32 4326   4.327   1.548  10.351 -0.0570 -0.6792  0.6588
   58SAPC   H2X 4327   4.226   1.583  10.322  0.7016 -0.8578 -2.5347
   58SAPC   H2Y 4328   4.316   1.441  10.379 -0.1924 -0.4458  1.5478
   58SAPC   C23 4329   4.111   2.286  10.303 -0.4740  1.0429  0.5661
   58SAPC   H3R 4330   4.144   2.381  10.349  0.4548  2.1970 -2.2951
   58SAPC   H3S 4331   4.002   2.292  10.282 -0.0846 -1.1225 -2.7710
   58SAPC   C24 4332   4.176   2.257  10.170 -0.0515  0.0066 -1.0582
   58SAPC   H4R 4333   4.287   2.265  10.167  0.1637 -1.2079  1.5096
   58SAPC   H4S 4334   4.138   2.325  10.091 -0.6849 -0.7402 -1.4038
   58SAPC   C25 4335   4.138   2.124  10.113  0.5410 -0.0920  0.2709
   58SAPC   H5R 4336   4.039   2.089  10.147  0.1612 -0.0500 -0.7556
   58SAPC   C26 4337   4.206   2.065  10.019  0.0851  1.0502  0.0824
   58SAPC   H6R 4338   4.177   1.966   9.981  0.3895  1.7976 -2.2626
   58SAPC   C27 4339   4.335   2.117   9.963  0.1726  0.5555 -0.2888
   58SAPC   H7R 4340   4.406   2.145  10.045 -0.3248 -4.1087  2.0325
   58SAPC   H7S 4341   4.306   2.202   9.897 -0.1461 -0.1806 -1.1042
   58SAPC   C28 4342   4.405   2.013   9.885  0.1925 -0.1177 -0.5260
   58SAPC   H8R 4343   4.477   1.946   9.935  1.2255 -0.1822 -2.0478
   58SAPC   C29 4344   4.380   1.993   9.751  0.6331 -0.7731 -0.5931
   58SAPC   H9R 4345   4.424   1.916   9.686 -0.6771  0.4574 -3.0573
   58SAPC  C210 4346   4.279   2.072   9.673  0.4252  0.1837  0.0487
   58SAPC  H10R 4347   4.341   2.156   9.634  1.9193 -0.0124  1.8440
   58SAPC  H10S 4348   4.206   2.123   9.740 -1.8374 -2.7747  0.0468
   58SAPC  C211 4349   4.195   1.998   9.579  0.0528  0.1956 -0.3255
   58SAPC  H11R 4350   4.152   1.911   9.631 -1.4646  1.7694  1.2160
   58SAPC  C212 4351   4.173   2.028   9.454 -0.0802 -0.3700  0.8798
   58SAPC  H12R 4352   4.100   1.976   9.390 -1.1474  1.4118  0.5898
   58SAPC  C213 4353   4.232   2.151   9.392  0.0206 -0.5033  0.3084
   58SAPC  H13R 4354   4.244   2.236   9.462  0.2584  0.8679 -1.3464
   58SAPC  H13S 4355   4.151   2.186   9.325 -0.3841 -2.1221 -0.1006
   58SAPC  C214 4356   4.358   2.117   9.314  0.3965 -0.1659 -0.0483
   58SAPC  H14R 4357   4.438   2.095   9.386  0.6846  0.8733 -0.0268
   58SAPC  C215 4358   4.383   2.126   9.183  0.5472 -0.6492  0.1741
   58SAPC  H15R 4359   4.487   2.118   9.146  0.7540 -0.1186  0.6279
   58SAPC  C216 4360   4.288   2.160   9.076 -0.1640  0.2931  0.4494
   58SAPC  H16R 4361   4.315   2.261   9.038  2.1709 -1.4551 -3.0750
   58SAPC  H16S 4362   4.183   2.145   9.109  0.4441 -2.2810  1.4509
   58SAPC  C217 4363   4.307   2.074   8.956 -0.0876  0.6772  0.3976
   58SAPC  H17R 4364   4.267   1.973   8.975 -1.4917  1.4857  2.0056
   58SAPC  H17S 4365   4.412   2.070   8.918  0.4440  1.4379  1.6998
   58SAPC  C218 4366   4.230   2.134   8.832  0.6735 -0.2378 -0.7275
   58SAPC  H18R 4367   4.262   2.078   8.742 -1.2579 -1.2158 -0.8517
   58SAPC  H18S 4368   4.254   2.242   8.818  0.7626 -0.3251 -1.2788
   58SAPC  C219 4369   4.082   2.114   8.845 -0.3257 -0.2934  0.1143
   58SAPC  H19R 4370   4.044   2.156   8.940  1.0399  0.0191  0.5470
   58SAPC  H19S 4371   4.052   2.010   8.866  0.2975 -0.0292  2.5075
   58SAPC  C220 4372   4.000   2.171   8.735  0.1757 -0.0576  0.3845
   58SAPC  H20R 4373   3.995   2.097   8.653  0.9838  1.0578 -0.7044
   58SAPC  H20S 4374   4.036   2.268   8.694  0.6324 -0.8642 -1.1858
   58SAPC  H20T 4375   3.898   2.195   8.772  0.1221 -0.2590  0.3642
   58SAPC   C33 4376   4.424   1.580  10.238  0.0087 -0.9851 -0.3354
   58SAPC   H3X 4377   4.527   1.548  10.261  0.3737  0.5777  0.3535
   58SAPC   H3Y 4378   4.444   1.689  10.226  1.7654 -1.1477  0.8076
   58SAPC   C34 4379   4.395   1.511  10.101 -0.5716  0.2985  0.5911
   58SAPC   H4X 4380   4.285   1.524  10.085 -0.7386 -0.2834  1.2371
   58SAPC   H4Y 4381   4.425   1.404  10.107  3.9995  1.2151 -1.7793
   58SAPC   C35 4382   4.443   1.583   9.973 -0.0760 -0.2449 -0.0972
   58SAPC   H5X 4383   4.554   1.592   9.976 -0.2396  2.5131 -0.0998
   58SAPC   H5Y 4384   4.391   1.681   9.971  1.2979  0.5672  1.8783
   58SAPC   C36 4385   4.402   1.521   9.838  0.0845  0.2949 -0.3014
   58SAPC   H6X 4386   4.309   1.462   9.854  0.6434 -0.7081 -0.6855
   58SAPC   H6Y 4387   4.472   1.442   9.802 -0.4872 -0.2280 -0.2835
   58SAPC   C37 4388   4.378   1.630   9.733 -0.3303 -0.3971  0.5530
   58SAPC   H7X 4389   4.452   1.712   9.746 -0.7195 -0.3126  2.8182
   58SAPC   H7Y 4390   4.276   1.670   9.752 -0.4030  0.3788 -1.3013
   58SAPC   C38 4391   4.386   1.564   9.589  0.6367  0.4218 -0.0409
   58SAPC   H8X 4392   4.323   1.473   9.584  1.0584  0.1638 -0.8233
   58SAPC   H8Y 4393   4.491   1.530   9.572  0.2736 -0.2145 -1.1300
   58SAPC   C39 4394   4.336   1.663   9.484 -0.7315 -0.0939  0.1182
   58SAPC   H9X 4395   4.393   1.758   9.483 -0.6721 -0.1078 -1.7372
   58SAPC   H9Y 4396   4.233   1.702   9.502 -0.0401  2.7873 -1.6395
   58SAPC  C310 4397   4.337   1.603   9.344  0.2639  0.2541  0.5100
   58SAPC  H10X 4398   4.267   1.517   9.345  0.1451  0.3346 -0.3112
   58SAPC  H10Y 4399   4.441   1.570   9.321 -0.0831  1.1341 -2.7523
   58SAPC  C311 4400   4.292   1.695   9.236 -0.1030 -0.7256  0.0965
   58SAPC  H11X 4401   4.375   1.770   9.237  0.8972 -1.7060  2.9128
   58SAPC  H11Y 4402   4.204   1.748   9.279 -0.9684 -1.0326 -1.2546
   58SAPC  C312 4403   4.272   1.632   9.099 -0.3902 -0.4078 -0.1562
   58SAPC  H12X 4404   4.245   1.708   9.023 -0.0431 -0.8518 -0.7287
   58SAPC  H12Y 4405   4.198   1.550   9.100 -0.1278 -0.6506 -0.4216
   58SAPC  C313 4406   4.393   1.568   9.036 -0.2692 -0.4070 -0.3159
   58SAPC  H13X 4407   4.431   1.479   9.092  0.6058 -0.2108 -0.5844
   58SAPC  H13Y 4408   4.469   1.646   9.015  0.5607 -1.5307 -1.7217
   58SAPC  C314 4409   4.357   1.509   8.896  0.5192 -0.6665 -0.1149
   58SAPC  H14X 4410   4.277   1.431   8.899  1.6557 -1.8691 -0.1818
   58SAPC  H14Y 4411   4.450   1.470   8.850  1.3592  0.6479  0.4295
   58SAPC  C315 4412   4.299   1.613   8.792  0.1685  0.5279 -0.1428
   58SAPC  H15X 4413   4.199   1.655   8.814 -0.6743 -1.1334 -0.6741
   58SAPC  H15Y 4414   4.265   1.545   8.711 -1.5628 -1.1307  1.8656
   58SAPC  C316 4415   4.410   1.716   8.747  0.7756 -0.2357 -0.7675
   58SAPC  H16X 4416   4.503   1.658   8.732  0.8433 -0.2352 -0.3624
   58SAPC  H16Y 4417   4.431   1.791   8.826  1.6477 -0.9757 -0.2718
   58SAPC  C317 4418   4.388   1.780   8.612  0.3144  0.8290  0.5198
   58SAPC  H17X 4419   4.291   1.834   8.602 -0.6148 -0.7966  0.3132
   58SAPC  H17Y 4420   4.374   1.694   8.543 -0.1715  0.4841  1.0389
   58SAPC  C318 4421   4.490   1.866   8.538 -0.3448 -0.5116  0.0486
   58SAPC  H18X 4422   4.455   1.923   8.449 -0.0460  0.8590  0.7716
   58SAPC  H18Y 4423   4.577   1.803   8.510  0.1199  0.0959  0.1089
   58SAPC  H18Z 4424   4.523   1.941   8.613  2.1001 -1.6424  0.1774
   59SAPC     N 4425   5.640   3.517  11.095 -0.2638  0.4731  0.0407
   59SAPC   C12 4426   5.637   3.451  10.962  0.4331 -1.3207  0.4431
   59SAPC  H12A 4427   5.567   3.370  10.974  0.8537 -2.3053 -2.8893
   59SAPC  H12B 4428   5.735   3.412  10.941  0.7096 -0.7671  0.6661
   59SAPC   C13 4429   5.501   3.536  11.156  0.7656  0.2773  0.8879
   59SAPC  H13A 4430   5.453   3.444  11.185 -1.2927  1.0113  0.0273
   59SAPC  H13B 4431   5.493   3.619  11.225 -0.5378  0.6937  0.2661
   59SAPC  H13C 4432   5.442   3.573  11.073  0.7049  0.4881  1.0231
   59SAPC   C14 4433   5.711   3.432  11.200 -0.4146  0.3610  0.2752
   59SAPC  H14A 4434   5.719   3.487  11.292 -0.5609  1.9302 -0.6123
   59SAPC  H14B 4435   5.666   3.335  11.210  1.5856 -0.9105 -1.9023
   59SAPC  H14C 4436   5.812   3.419  11.162 -0.4323  0.7857  0.0798
   59SAPC   C15 4437   5.702   3.650  11.089 -0.8032 -0.5930  0.3729
   59SAPC  H15A 4438   5.801   3.646  11.045 -0.2607  0.6576  1.4237
   59SAPC  H15B 4439   5.647   3.722  11.031  1.0114 -0.9615 -1.9832
   59SAPC  H15C 4440   5.713   3.692  11.188  2.2063 -1.5767  0.5741
   59SAPC   C11 4441   5.564   3.528  10.848 -0.6698 -0.8551  0.2188
   59SAPC  H11A 4442   5.559   3.463  10.758 -0.1379 -1.9682  0.9665
   59SAPC  H11B 4443   5.627   3.618  10.829 -1.2098 -0.3129  0.9432
   59SAPC     P 4444   5.367   3.681  10.792  0.0290  0.0558 -0.1066
   59SAPC   O13 4445   5.230   3.703  10.845 -0.1948  0.0732  0.2349
   59SAPC   O14 4446   5.454   3.801  10.776 -0.1692 -0.2641  0.6634
   59SAPC   O12 4447   5.432   3.570  10.883  0.1479 -0.4911 -0.4487
   59SAPC   O11 4448   5.345   3.600  10.656  0.2857  0.0733 -0.5500
   59SAPC    C1 4449   5.321   3.461  10.636 -0.2374 -0.0594 -0.0290
   59SAPC    HA 4450   5.417   3.411  10.612  0.6728  0.9501  1.3505
   59SAPC    HB 4451   5.291   3.424  10.737  1.4560  1.2404  1.0011
   59SAPC    C2 4452   5.209   3.432  10.532  0.5337 -0.7570 -0.2567
   59SAPC    HS 4453   5.210   3.324  10.507  2.3396 -0.8253 -0.0100
   59SAPC   O21 4454   5.233   3.523  10.423  0.3060 -0.4391  0.3901
   59SAPC   C21 4455   5.249   3.465  10.308  0.4288 -0.2136 -0.1004
   59SAPC   O22 4456   5.280   3.347  10.290 -0.4790 -0.0355 -0.3871
   59SAPC   C22 4457   5.226   3.570  10.193  0.5026 -0.0212 -1.3431
   59SAPC   H2R 4458   5.162   3.650  10.235  1.0777  0.0826 -0.6572
   59SAPC   H2S 4459   5.326   3.611  10.169 -0.0192  2.1635 -0.0411
   59SAPC    C3 4460   5.067   3.471  10.590 -0.0759  0.0822  0.4982
   59SAPC    HX 4461   5.055   3.580  10.606 -2.1207 -0.4272  3.3572
   59SAPC    HY 4462   5.058   3.436  10.695 -0.2711  0.4689  0.6111
   59SAPC   O31 4463   4.961   3.420  10.510 -0.3902  0.7500  0.5020
   59SAPC   C31 4464   4.838   3.408  10.549 -0.1198 -0.2977 -0.8509
   59SAPC   O32 4465   4.792   3.437  10.660 -0.0360  0.0650 -0.1351
   59SAPC   C32 4466   4.752   3.350  10.434  0.2304 -0.6435  0.0821
   59SAPC   H2X 4467   4.720   3.438  10.373  1.3437 -1.5019 -1.8324
   59SAPC   H2Y 4468   4.673   3.296  10.491  0.1291 -0.4426  0.1326
   59SAPC   C23 4469   5.153   3.518  10.076  0.8000  0.2383  0.2385
   59SAPC   H3R 4470   5.110   3.601  10.017  0.0139 -0.8593 -0.7904
   59SAPC   H3S 4471   5.058   3.467  10.103  0.5667  0.8212  0.5291
   59SAPC   C24 4472   5.248   3.432   9.978  0.0279 -0.2717  0.2206
   59SAPC   H4R 4473   5.187   3.397   9.892 -0.8599 -1.0122  1.1221
   59SAPC   H4S 4474   5.262   3.334  10.028 -2.8869  0.1160  2.0305
   59SAPC   C25 4475   5.373   3.497   9.928  0.2990 -0.0090  0.2136
   59SAPC   H5R 4476   5.452   3.518  10.002  1.6697 -1.3223 -0.8208
   59SAPC   C26 4477   5.398   3.524   9.793  0.6673 -0.5565  0.4077
   59SAPC   H6R 4478   5.491   3.576   9.768  1.0832 -2.5128 -2.6511
   59SAPC   C27 4479   5.301   3.512   9.673  0.1561  0.1605 -1.2488
   59SAPC   H7R 4480   5.346   3.578   9.596  0.7289  0.8963 -0.3064
   59SAPC   H7S 4481   5.201   3.551   9.698  0.6874  1.8477 -1.6114
   59SAPC   C28 4482   5.272   3.374   9.609  0.4506  0.2428  0.3299
   59SAPC   H8R 4483   5.273   3.287   9.677 -2.3408  0.9305  1.4023
   59SAPC   C29 4484   5.273   3.347   9.479  0.4116 -0.1003 -0.5072
   59SAPC   H9R 4485   5.244   3.243   9.456 -0.7034  0.4720 -1.8239
   59SAPC  C210 4486   5.303   3.447   9.371  0.1946  0.8708  0.0732
   59SAPC  H10R 4487   5.337   3.389   9.282 -3.2433  0.2635 -1.0207
   59SAPC  H10S 4488   5.389   3.511   9.398  0.8763  0.9397 -2.0440
   59SAPC  C211 4489   5.190   3.536   9.324 -0.4164 -0.5775 -0.5222
   59SAPC  H11R 4490   5.139   3.605   9.393 -1.4798 -0.4471 -1.3907
   59SAPC  C212 4491   5.144   3.560   9.194  0.3690  0.4195 -0.1294
   59SAPC  H12R 4492   5.061   3.632   9.185 -0.3126 -0.4755 -1.3066
   59SAPC  C213 4493   5.193   3.500   9.071 -0.3266 -0.2958  0.4870
   59SAPC  H13R 4494   5.296   3.458   9.077  1.1091  2.2607 -2.7905
   59SAPC  H13S 4495   5.200   3.583   8.997 -3.2300 -1.2593 -0.9898
   59SAPC  C214 4496   5.107   3.390   9.011  0.6413  0.6256  0.6172
   59SAPC  H14R 4497   5.088   3.302   9.075  1.5482 -0.1568 -0.1603
   59SAPC  C215 4498   5.046   3.387   8.893  0.3078 -0.6565 -0.2216
   59SAPC  H15R 4499   4.969   3.312   8.868 -2.4301  2.1922 -1.0399
   59SAPC  C216 4500   5.047   3.494   8.787  1.0392  0.0710 -0.1679
   59SAPC  H16R 4501   5.139   3.482   8.726  0.6186 -0.7618 -0.6618
   59SAPC  H16S 4502   5.050   3.594   8.835  1.0905 -0.9539  2.0926
   59SAPC  C217 4503   4.911   3.498   8.711 -0.2768 -0.0446  0.2893
   59SAPC  H17R 4504   4.837   3.562   8.764  0.5001  1.2586 -0.1481
   59SAPC  H17S 4505   4.870   3.395   8.709 -0.5234  0.0329  0.9745
   59SAPC  C218 4506   4.931   3.569   8.570  0.0188 -0.3851  0.2927
   59SAPC  H18R 4507   5.039   3.568   8.542  0.0204  1.7106  0.0401
   59SAPC  H18S 4508   4.899   3.675   8.579 -2.9026 -1.2159  0.7534
   59SAPC  C219 4509   4.850   3.505   8.457  0.0457  0.6591 -0.0558
   59SAPC  H19R 4510   4.897   3.406   8.438  2.0033  0.9750  2.6028
   59SAPC  H19S 4511   4.856   3.579   8.375  0.0007  1.1711  0.3942
   59SAPC  C220 4512   4.704   3.483   8.475 -0.0792 -0.6838 -0.1043
   59SAPC  H20R 4513   4.654   3.439   8.386 -0.0053 -0.2892 -0.3439
   59SAPC  H20S 4514   4.655   3.573   8.517 -0.9246 -1.8631  1.5644
   59SAPC  H20T 4515   4.686   3.408   8.554  2.2371 -0.7777  0.3886
   59SAPC   C33 4516   4.820   3.253  10.343 -0.0516  0.9193 -0.1177
   59SAPC   H3X 4517   4.842   3.156  10.393 -2.8074  0.5435  0.5069
   59SAPC   H3Y 4518   4.920   3.284  10.306  0.9350 -1.9050 -0.1210
   59SAPC   C34 4519   4.739   3.237  10.215  0.2031  0.3829  0.2715
   59SAPC   H4X 4520   4.729   3.338  10.171 -2.1091 -0.1871 -0.6648
   59SAPC   H4Y 4521   4.639   3.193  10.235  0.3273 -0.6372 -1.1537
   59SAPC   C35 4522   4.808   3.146  10.116 -0.1227 -0.3827  0.8391
   59SAPC   H5X 4523   4.777   3.042  10.140 -0.6617 -0.3208  0.4197
   59SAPC   H5Y 4524   4.919   3.156  10.115 -0.1234 -0.3887 -0.1740
   59SAPC   C36 4525   4.780   3.194   9.971  0.6284  0.3741 -0.1117
   59SAPC   H6X 4526   4.798   3.303   9.959  0.7873  0.5230  1.3211
   59SAPC   H6Y 4527   4.671   3.181   9.954  0.7268  0.3777 -0.7850
   59SAPC   C37 4528   4.863   3.132   9.856  0.3968  0.2179 -0.3154
   59SAPC   H7X 4529   4.834   3.025   9.845 -1.3386  0.3984  1.9551
   59SAPC   H7Y 4530   4.972   3.144   9.876 -0.1971  2.1668  2.1418
   59SAPC   C38 4531   4.824   3.203   9.724  0.2709  0.8772 -0.6168
   59SAPC   H8X 4532   4.834   3.314   9.728  0.9662  0.8290 -0.8623
   59SAPC   H8Y 4533   4.718   3.179   9.702 -0.1301  1.1322  0.9075
   59SAPC   C39 4534   4.915   3.146   9.613 -0.9371  0.5296  1.0151
   59SAPC   H9X 4535   4.921   3.035   9.619  0.1923  0.2551 -2.7427
   59SAPC   H9Y 4536   5.017   3.186   9.634 -0.2348 -1.1459  0.9493
   59SAPC  C310 4537   4.872   3.193   9.473  0.0011  0.4135 -0.2148
   59SAPC  H10X 4538   4.875   3.304   9.472  0.6394  0.4197  0.7480
   59SAPC  H10Y 4539   4.763   3.172   9.464 -0.3162  1.9657 -0.2436
   59SAPC  C311 4540   4.946   3.135   9.356 -0.0696  0.2086 -0.0867
   59SAPC  H11X 4541   4.983   3.031   9.364  1.8521  0.6085 -2.4222
   59SAPC  H11Y 4542   5.046   3.183   9.358  0.7271 -1.3104  3.3766
   59SAPC  C312 4543   4.872   3.151   9.218  0.2802 -0.1638  0.3208
   59SAPC  H12X 4544   4.953   3.172   9.145 -0.3999 -1.7888 -0.9755
   59SAPC  H12Y 4545   4.807   3.240   9.227 -0.4148 -0.7197  0.9679
   59SAPC  C313 4546   4.803   3.022   9.170  0.1018  0.3102 -0.0397
   59SAPC  H13X 4547   4.721   2.995   9.240  0.7516 -3.8367 -0.6246
   59SAPC  H13Y 4548   4.865   2.930   9.164 -1.2887 -0.8131  1.6614
   59SAPC  C314 4549   4.731   3.031   9.037 -0.2820  0.1394 -0.3202
   59SAPC  H14X 4550   4.637   3.089   9.029 -2.0163 -2.7569 -3.3506
   59SAPC  H14Y 4551   4.714   2.927   9.001 -0.2824 -0.3044  0.8844
   59SAPC  C315 4552   4.819   3.106   8.932 -1.0836  0.1147  0.4306
   59SAPC  H15X 4553   4.919   3.060   8.918 -1.1883  0.4462 -1.6760
   59SAPC  H15Y 4554   4.824   3.210   8.970 -0.0445 -1.1785  4.3220
   59SAPC  C316 4555   4.752   3.104   8.785 -0.2869 -0.3779 -0.1060
   59SAPC  H16X 4556   4.793   3.185   8.721 -0.0578 -0.1888  0.2792
   59SAPC  H16Y 4557   4.641   3.105   8.796 -0.3142  1.0299 -0.2469
   59SAPC  C317 4558   4.785   2.972   8.710  0.3551 -0.4757 -0.2151
   59SAPC  H17X 4559   4.743   2.890   8.772  2.2830 -0.0047  1.8597
   59SAPC  H17Y 4560   4.894   2.954   8.698  0.8125  1.0491  1.1746
   59SAPC  C318 4561   4.717   2.975   8.567 -0.3754 -0.1574 -0.0468
   59SAPC  H18X 4562   4.766   2.892   8.512  2.7285 -0.2377  2.5377
   59SAPC  H18Y 4563   4.738   3.068   8.510 -0.5763 -0.4115 -0.5412
   59SAPC  H18Z 4564   4.607   2.966   8.578 -0.2600  0.0853  1.6291
   60SAPC     N 4565   6.185   5.399  11.109 -0.2989  0.0735  0.4649
   60SAPC   C12 4566   6.276   5.365  10.991  0.0522 -0.1571 -0.0459
   60SAPC  H12A 4567   6.319   5.269  11.017 -1.3552 -0.8703 -0.2520
   60SAPC  H12B 4568   6.359   5.433  11.001  3.2285 -3.6216 -0.6828
   60SAPC   C13 4569   6.062   5.317  11.106  0.0174  0.4448 -0.0690
   60SAPC  H13A 4570   6.091   5.213  11.102  1.5734  0.8613 -0.5380
   60SAPC  H13B 4571   6.018   5.336  11.203 -0.0329  1.5275 -0.2952
   60SAPC  H13C 4572   5.991   5.342  11.029 -0.4168 -3.2025 -1.0115
   60SAPC   C14 4573   6.252   5.365  11.241  0.1827  0.1053  0.0601
   60SAPC  H14A 4574   6.285   5.263  11.249  0.0176  0.1137  0.9185
   60SAPC  H14B 4575   6.344   5.421  11.256 -0.0952 -0.1110  3.1918
   60SAPC  H14C 4576   6.187   5.381  11.326 -0.9845  0.8046 -0.9366
   60SAPC   C15 4577   6.149   5.542  11.109 -0.2706  0.0778  0.2631
   60SAPC  H15A 4578   6.099   5.567  11.202 -4.1654  1.7237 -2.0320
   60SAPC  H15B 4579   6.236   5.604  11.093  0.4581 -1.7209 -3.9647
   60SAPC  H15C 4580   6.078   5.554  11.029  0.6892 -2.6024 -1.1149
   60SAPC   C11 4581   6.222   5.357  10.845 -0.2980  0.1953 -0.3038
   60SAPC  H11A 4582   6.161   5.264  10.835  0.4583 -0.2598 -0.8912
   60SAPC  H11B 4583   6.303   5.348  10.769  0.1237  1.8010 -0.0669
   60SAPC     P 4584   6.166   5.594  10.740  0.2896  0.1072 -0.3064
   60SAPC   O13 4585   6.040   5.665  10.709 -0.6423 -0.5879 -0.2796
   60SAPC   O14 4586   6.267   5.667  10.819  0.2318 -0.1806 -0.3760
   60SAPC   O12 4587   6.124   5.454  10.812  0.1709  0.1703  0.2930
   60SAPC   O11 4588   6.231   5.547  10.603  0.0423  0.2858 -0.2198
   60SAPC    C1 4589   6.167   5.451  10.521  0.7015  1.0802  0.2512
   60SAPC    HA 4590   6.203   5.350  10.550 -3.1662 -0.9092 -1.1947
   60SAPC    HB 4591   6.058   5.449  10.538  0.6137  0.6764 -0.3133
   60SAPC    C2 4592   6.191   5.486  10.370 -0.2261 -0.0977 -0.3429
   60SAPC    HS 4593   6.138   5.401  10.320  1.9883 -1.1437 -1.0620
   60SAPC   O21 4594   6.333   5.485  10.344  0.0789  0.6015 -0.2708
   60SAPC   C21 4595   6.385   5.362  10.337 -0.3125 -0.5383  0.1274
   60SAPC   O22 4596   6.322   5.255  10.346 -0.1591 -0.7685 -0.0155
   60SAPC   C22 4597   6.538   5.369  10.323  0.1050 -0.0347 -1.0837
   60SAPC   H2R 4598   6.575   5.464  10.367 -2.6125  0.3486  0.6147
   60SAPC   H2S 4599   6.576   5.289  10.390 -0.5845  0.1944 -0.3950
   60SAPC    C3 4600   6.127   5.616  10.329  0.2440  0.0349 -0.0378
   60SAPC    HX 4601   6.162   5.700  10.392 -1.1106 -0.0076  0.7997
   60SAPC    HY 4602   6.019   5.602  10.350 -0.0010 -1.3110 -1.8797
   60SAPC   O31 4603   6.130   5.643  10.185  0.4461 -0.3320  0.2116
   60SAPC   C31 4604   6.095   5.767  10.153 -0.0103  1.0302 -0.2415
   60SAPC   O32 4605   6.050   5.844  10.233 -0.4027  0.2724 -0.2756
   60SAPC   C32 4606   6.107   5.799  10.005 -0.7189 -0.9389  0.4348
   60SAPC   H2X 4607   6.097   5.715   9.934 -1.0662  2.4603 -3.9668
   60SAPC   H2Y 4608   6.211   5.836   9.988 -0.4444 -0.6786  2.4155
   60SAPC   C23 4609   6.599   5.346  10.186  0.0560  0.1456  0.0539
   60SAPC   H3R 4610   6.691   5.407  10.172 -0.2399  0.5318 -0.2597
   60SAPC   H3S 4611   6.517   5.383  10.120  0.2876  1.1711  0.3144
   60SAPC   C24 4612   6.623   5.190  10.163  0.6970 -0.6148  0.1828
   60SAPC   H4R 4613   6.524   5.144  10.183  0.2862 -1.4243 -3.0614
   60SAPC   H4S 4614   6.691   5.145  10.239  1.7310 -0.1233 -0.4148
   60SAPC   C25 4615   6.674   5.169  10.026  0.2307  0.8892  0.0041
   60SAPC   H5R 4616   6.773   5.217  10.017  0.4808  0.3138 -0.3744
   60SAPC   C26 4617   6.608   5.114   9.921  0.3111  0.4238 -0.2099
   60SAPC   H6R 4618   6.652   5.099   9.822  0.4692 -4.0595  0.3032
   60SAPC   C27 4619   6.467   5.063   9.917 -0.7704 -0.1062 -0.7868
   60SAPC   H7R 4620   6.414   5.087   9.822 -0.8724 -0.4783 -0.8283
   60SAPC   H7S 4621   6.410   5.116   9.996  1.2897 -0.2617  0.8873
   60SAPC   C28 4622   6.461   4.915   9.938  0.2302  0.6323 -0.0455
   60SAPC   H8R 4623   6.432   4.874  10.036  0.5104 -0.8730 -0.5594
   60SAPC   C29 4624   6.474   4.821   9.843  0.2456 -0.4265  0.4370
   60SAPC   H9R 4625   6.464   4.716   9.873  2.7923  0.1532  3.8602
   60SAPC  C210 4626   6.495   4.845   9.694  0.5949 -0.3058 -0.9710
   60SAPC  H10R 4627   6.543   4.940   9.662 -1.3115  1.3560  0.8538
   60SAPC  H10S 4628   6.398   4.839   9.642  0.1215  1.2587 -0.3202
   60SAPC  C211 4629   6.596   4.742   9.642  0.1926 -0.2953  0.2272
   60SAPC  H11R 4630   6.646   4.685   9.721 -2.5986 -0.2401  2.1904
   60SAPC  C212 4631   6.622   4.718   9.519 -1.1412 -0.1250 -0.1538
   60SAPC  H12R 4632   6.699   4.647   9.485 -0.5251 -0.2612  1.4332
   60SAPC  C213 4633   6.545   4.781   9.407 -0.1510  0.6788 -0.0713
   60SAPC  H13R 4634   6.451   4.824   9.445 -1.2218 -2.6735  1.4545
   60SAPC  H13S 4635   6.513   4.706   9.331  0.9922 -0.6351  0.6787
   60SAPC  C214 4636   6.619   4.902   9.351 -0.5583  0.8215  0.2306
   60SAPC  H14R 4637   6.650   4.967   9.434  0.5022 -0.9231  1.2908
   60SAPC  C215 4638   6.660   4.934   9.224 -0.1248  0.3579 -0.7836
   60SAPC  H15R 4639   6.722   5.024   9.214  0.7057 -0.2511 -1.1648
   60SAPC  C216 4640   6.630   4.850   9.103 -0.3206 -0.5771  0.1580
   60SAPC  H16R 4641   6.547   4.894   9.043 -1.7076  0.8096  2.9230
   60SAPC  H16S 4642   6.593   4.749   9.132  1.3108 -2.1364 -2.7241
   60SAPC  C217 4643   6.752   4.829   9.020 -0.0565  0.2296  0.2897
   60SAPC  H17R 4644   6.817   4.771   9.090 -2.6198 -1.0168  1.7729
   60SAPC  H17S 4645   6.789   4.927   8.984 -0.8957  0.0474 -1.1538
   60SAPC  C218 4646   6.734   4.751   8.888  0.2713  0.0729 -0.6834
   60SAPC  H18R 4647   6.664   4.810   8.825 -0.9199  0.7342  1.1659
   60SAPC  H18S 4648   6.676   4.657   8.903  0.9392 -0.2399 -0.0366
   60SAPC  C219 4649   6.851   4.724   8.797 -0.3270  0.5822 -0.0210
   60SAPC  H19R 4650   6.812   4.665   8.712  0.7975 -0.2951  0.0426
   60SAPC  H19S 4651   6.929   4.660   8.845 -1.8374 -0.0630  1.7116
   60SAPC  C220 4652   6.909   4.846   8.732 -0.0057 -0.6203  0.3404
   60SAPC  H20R 4653   6.963   4.815   8.640 -0.7036  1.1698 -0.7222
   60SAPC  H20S 4654   6.990   4.891   8.794  1.3000 -0.3769 -1.4685
   60SAPC  H20T 4655   6.827   4.916   8.706  0.1770 -1.0680 -1.5892
   60SAPC   C33 4656   6.026   5.927   9.967 -0.2111 -0.3062  0.6497
   60SAPC   H3X 4657   6.077   6.021   9.996  0.9770 -0.5094 -0.7162
   60SAPC   H3Y 4658   5.938   5.925  10.035  0.0206  1.1633  1.0299
   60SAPC   C34 4659   5.993   5.935   9.818  0.2381  0.4556 -0.0280
   60SAPC   H4X 4660   5.935   6.026   9.794  1.3420  1.1057 -0.3387
   60SAPC   H4Y 4661   5.945   5.840   9.787  0.1498  1.0074 -1.7346
   60SAPC   C35 4662   6.119   5.946   9.736 -0.1157  0.0914 -0.9744
   60SAPC   H5X 4663   6.178   5.852   9.745 -1.1961 -0.5719 -0.7521
   60SAPC   H5Y 4664   6.178   6.024   9.788  1.5247 -1.8531  0.2190
   60SAPC   C36 4665   6.104   5.971   9.586 -0.6014 -0.2000  0.1318
   60SAPC   H6X 4666   6.208   5.962   9.548 -0.0781  0.5674  1.3445
   60SAPC   H6Y 4667   6.070   6.075   9.566  2.1042  0.5280 -1.1936
   60SAPC   C37 4668   6.015   5.867   9.514 -0.5894 -0.1133  0.1876
   60SAPC   H7X 4669   5.911   5.881   9.549 -0.1140 -0.4278  1.8517
   60SAPC   H7Y 4670   6.058   5.768   9.540  0.5128 -0.2277 -1.8649
   60SAPC   C38 4671   6.025   5.891   9.359 -0.5245  0.8065 -0.0695
   60SAPC   H8X 4672   6.127   5.916   9.324 -0.8831  1.5843 -0.5945
   60SAPC   H8Y 4673   5.966   5.978   9.321  0.7331  1.1615 -1.3001
   60SAPC   C39 4674   5.977   5.773   9.274  0.9295  0.1971 -0.8272
   60SAPC   H9X 4675   5.875   5.747   9.308 -0.6635  0.0799 -5.1712
   60SAPC   H9Y 4676   6.039   5.687   9.310 -0.4943 -0.5026  0.0564
   60SAPC  C310 4677   5.972   5.803   9.122  0.3961  0.3476  0.5844
   60SAPC  H10X 4678   6.070   5.846   9.092  0.3225  0.7085  0.8382
   60SAPC  H10Y 4679   5.906   5.891   9.101  1.6628  1.3952  0.8519
   60SAPC  C311 4680   5.927   5.683   9.041 -0.5198 -0.6530  0.2660
   60SAPC  H11X 4681   5.828   5.645   9.073 -0.7480 -1.0571 -0.8709
   60SAPC  H11Y 4682   5.994   5.597   9.061 -0.1207 -0.4838 -0.3138
   60SAPC  C312 4683   5.932   5.715   8.892 -0.2029 -0.6827  0.3454
   60SAPC  H12X 4684   5.862   5.799   8.871  0.0037 -0.5747  0.0842
   60SAPC  H12Y 4685   5.885   5.629   8.838 -1.0952  1.1618 -1.9717
   60SAPC  C313 4686   6.068   5.759   8.833  0.6442 -0.4348 -0.0163
   60SAPC  H13X 4687   6.126   5.665   8.820 -0.1507 -0.8835 -0.4287
   60SAPC  H13Y 4688   6.120   5.835   8.895 -0.7256 -0.0844  0.7461
   60SAPC  C314 4689   6.057   5.818   8.685 -0.9403  0.4810  0.5106
   60SAPC  H14X 4690   6.165   5.832   8.665 -1.2386  0.6177 -1.2086
   60SAPC  H14Y 4691   6.004   5.915   8.685 -2.0319 -0.0750  1.8659
   60SAPC  C315 4692   5.985   5.724   8.582  0.7072 -0.3807  0.6763
   60SAPC  H15X 4693   5.874   5.728   8.590  0.3044 -1.6332 -2.8561
   60SAPC  H15Y 4694   6.033   5.624   8.588 -0.5504 -1.0806 -0.5275
   60SAPC  C316 4695   6.006   5.775   8.437  0.5750  0.1527  0.5109
   60SAPC  H16X 4696   6.115   5.774   8.415  0.5392  1.1587  0.2503
   60SAPC  H16Y 4697   5.980   5.882   8.424  0.0259  0.1685  1.6342
   60SAPC  C317 4698   5.924   5.678   8.346  0.1007 -0.5538  0.4106
   60SAPC  H17X 4699   5.819   5.707   8.369  0.1156  0.4112 -0.6029
   60SAPC  H17Y 4700   5.938   5.570   8.366 -0.8449 -0.8416 -0.3873
   60SAPC  C318 4701   5.968   5.707   8.199  0.0104 -0.0798  0.0129
   60SAPC  H18X 4702   5.987   5.816   8.189  1.7090 -0.2049  1.5426
   60SAPC  H18Y 4703   5.890   5.665   8.130 -0.7083  0.2140  0.6339
   60SAPC  H18Z 4704   6.061   5.650   8.179 -0.6712 -2.4206  2.7648
   61SAPC     N 4705   0.069   0.859  10.897 -0.5002  0.7222 -0.1058
   61SAPC   C12 4706   0.171   0.969  10.896  0.1005  0.8917 -0.6143
   61SAPC  H12A 4707   0.186   0.994  11.000 -0.8121 -2.4534  0.4411
   61SAPC  H12B 4708   0.123   1.059  10.859 -1.6491  0.3693  0.2751
   61SAPC   C13 4709   0.110   0.727  10.955 -0.9703 -0.6808  0.5435
   61SAPC  H13A 4710   0.139   0.732  11.059  0.0187  0.4497  0.2415
   61SAPC  H13B 4711   0.020   0.668  10.955 -1.1785 -0.3882 -0.6067
   61SAPC  H13C 4712   0.193   0.669  10.916  0.4175 -0.3082  2.7489
   61SAPC   C14 4713  -0.050   0.916  10.962  0.4296  0.1513  0.4440
   61SAPC  H14A 4714  -0.127   0.841  10.949  0.8263  0.2305 -3.8019
   61SAPC  H14B 4715  -0.034   0.934  11.068 -2.9081 -1.1863  1.3011
   61SAPC  H14C 4716  -0.078   1.003  10.904 -0.4207 -1.9425 -2.5241
   61SAPC   C15 4717   0.027   0.829  10.754  0.6762  0.2665  0.0566
   61SAPC  H15A 4718   0.017   0.919  10.694  1.3507  0.2068 -0.1486
   61SAPC  H15B 4719   0.096   0.759  10.710  0.8278 -0.8027  1.9097
   61SAPC  H15C 4720  -0.070   0.780  10.752  0.9942 -0.3588 -0.2572
   61SAPC   C11 4721   0.318   0.932  10.846  0.4999  0.5885  0.2280
   61SAPC  H11A 4722   0.366   0.848  10.899 -0.4857 -0.8649 -1.0855
   61SAPC  H11B 4723   0.388   1.014  10.871  0.4143  0.5959  0.4475
   61SAPC     P 4724   0.369   0.782  10.639 -0.2362  0.2657  0.1436
   61SAPC   O13 4725   0.468   0.711  10.723 -0.3089 -0.4244 -0.1476
   61SAPC   O14 4726   0.247   0.704  10.617  0.0584 -0.3991  0.3089
   61SAPC   O12 4727   0.321   0.915  10.706  0.2538  0.1724 -0.0135
   61SAPC   O11 4728   0.417   0.853  10.504  0.0957  0.8291 -0.5437
   61SAPC    C1 4729   0.328   0.934  10.426  0.1353  0.0691  0.0656
   61SAPC    HA 4730   0.224   0.949  10.462 -0.9589 -1.7309 -2.0641
   61SAPC    HB 4731   0.367   1.038  10.416 -0.5415  0.2874 -0.3855
   61SAPC    C2 4732   0.308   0.885  10.284  0.4340 -0.3116  0.0304
   61SAPC    HS 4733   0.323   0.775  10.283  0.4892 -0.3016 -1.1057
   61SAPC   O21 4734   0.389   0.950  10.192 -1.0770 -0.0144  0.3724
   61SAPC   C21 4735   0.522   0.937  10.195 -0.2478  0.3914  0.6080
   61SAPC   O22 4736   0.582   0.846  10.248 -0.1078 -0.0687  0.4631
   61SAPC   C22 4737   0.587   1.054  10.118 -0.1665 -0.8146 -1.1106
   61SAPC   H2R 4738   0.511   1.135  10.117 -1.7812 -2.2629 -1.1131
   61SAPC   H2S 4739   0.676   1.085  10.176 -0.1472 -0.3319 -1.3941
   61SAPC    C3 4740   0.153   0.894  10.239  0.1444 -0.1105  0.1130
   61SAPC    HX 4741   0.135   1.004  10.241  1.7548  0.2450 -1.7821
   61SAPC    HY 4742   0.103   0.839  10.321  2.0652 -3.2133 -0.6419
   61SAPC   O31 4743   0.125   0.847  10.108 -0.2526 -0.6123  0.1222
   61SAPC   C31 4744   0.099   0.715  10.088  0.0042 -0.1973 -0.3211
   61SAPC   O32 4745   0.098   0.635  10.179  0.8963 -0.0019 -0.2749
   61SAPC   C32 4746   0.041   0.675   9.945  0.3205 -0.4437  0.5095
   61SAPC   H2X 4747  -0.069   0.666   9.956  0.2786 -0.9002 -0.2245
   61SAPC   H2Y 4748   0.068   0.570   9.923  1.0388 -0.7759  2.7623
   61SAPC   C23 4749   0.641   1.027   9.977 -0.2228 -0.2521  0.4832
   61SAPC   H3R 4750   0.705   0.936   9.980  1.6480  0.9675 -0.6900
   61SAPC   H3S 4751   0.713   1.102   9.937 -2.2491  0.1520 -2.7976
   61SAPC   C24 4752   0.546   0.998   9.863 -0.0205 -0.1883 -0.6776
   61SAPC   H4R 4753   0.478   0.912   9.880 -1.9375  1.3564 -0.1329
   61SAPC   H4S 4754   0.611   0.965   9.780  1.9740 -0.6395  0.9658
   61SAPC   C25 4755   0.458   1.121   9.824  0.0350 -0.0565 -0.5904
   61SAPC   H5R 4756   0.372   1.144   9.887  0.5094  0.5999 -0.1689
   61SAPC   C26 4757   0.483   1.192   9.709  1.0124  0.0586  0.5025
   61SAPC   H6R 4758   0.406   1.265   9.681  1.8131  1.0830  0.9474
   61SAPC   C27 4759   0.594   1.164   9.607 -0.2548 -0.0486 -0.4236
   61SAPC   H7R 4760   0.676   1.107   9.656  0.5958  0.7353 -0.8933
   61SAPC   H7S 4761   0.629   1.268   9.590 -0.4022  0.1940  0.6529
   61SAPC   C28 4762   0.539   1.089   9.490 -0.1169 -0.1712 -0.1660
   61SAPC   H8R 4763   0.526   0.983   9.518  1.8363 -0.3046  0.4274
   61SAPC   C29 4764   0.509   1.133   9.364 -0.1444 -0.1112 -0.0247
   61SAPC   H9R 4765   0.472   1.055   9.297 -0.9044 -0.3012  0.6077
   61SAPC  C210 4766   0.520   1.275   9.312 -0.2822 -0.0347  0.6469
   61SAPC  H10R 4767   0.600   1.274   9.235 -0.5797 -1.8278  0.3164
   61SAPC  H10S 4768   0.547   1.345   9.394  0.6772 -1.0480  1.2243
   61SAPC  C211 4769   0.388   1.320   9.248 -0.4195 -0.5609 -0.2426
   61SAPC  H11R 4770   0.304   1.314   9.319 -0.2445  0.0023  0.0234
   61SAPC  C212 4771   0.369   1.364   9.125  0.0090 -0.1845  0.5059
   61SAPC  H12R 4772   0.265   1.384   9.095 -0.6225 -1.8679  1.4473
   61SAPC  C213 4773   0.474   1.381   9.014 -0.2901  0.3406 -0.0835
   61SAPC  H13R 4774   0.565   1.433   9.051 -1.0564  2.3973 -0.9332
   61SAPC  H13S 4775   0.435   1.443   8.931 -0.4113 -0.6009 -0.7395
   61SAPC  C214 4776   0.517   1.250   8.960 -0.0731 -0.0017  0.3370
   61SAPC  H14R 4777   0.504   1.167   9.031  2.3667  0.7567  1.7770
   61SAPC  C215 4778   0.552   1.231   8.825  0.3738  0.0087 -0.7359
   61SAPC  H15R 4779   0.561   1.128   8.789 -1.8021 -0.8140  0.8696
   61SAPC  C216 4780   0.563   1.327   8.712  0.2977  0.2479  0.3841
   61SAPC  H16R 4781   0.649   1.309   8.644  1.3613  1.4568  1.3459
   61SAPC  H16S 4782   0.591   1.422   8.763  1.8306  0.4917 -0.8273
   61SAPC  C217 4783   0.434   1.338   8.622 -0.0121  0.7211 -0.1479
   61SAPC  H17R 4784   0.459   1.422   8.555 -3.3055  2.5920  0.7233
   61SAPC  H17S 4785   0.342   1.366   8.678  0.6105  1.0906  0.7235
   61SAPC  C218 4786   0.418   1.217   8.529  0.4557 -0.1084 -0.4627
   61SAPC  H18R 4787   0.384   1.129   8.588 -2.9213  2.4617  1.8004
   61SAPC  H18S 4788   0.518   1.202   8.484  0.0102 -1.3839 -1.0917
   61SAPC  C219 4789   0.308   1.241   8.426 -0.3915  0.3770 -0.2122
   61SAPC  H19R 4790   0.323   1.336   8.370 -0.7755  0.1112 -0.7894
   61SAPC  H19S 4791   0.209   1.254   8.474  0.2661  0.8944  1.0208
   61SAPC  C220 4792   0.307   1.119   8.333 -0.0607 -0.6258  0.5624
   61SAPC  H20R 4793   0.409   1.097   8.292  0.5270 -0.6136  1.9839
   61SAPC  H20S 4794   0.237   1.141   8.249 -0.2205  0.0878  0.8818
   61SAPC  H20T 4795   0.275   1.026   8.385  0.7878 -0.2138  1.8713
   61SAPC   C33 4796   0.085   0.770   9.827  0.3460  0.2525 -0.5434
   61SAPC   H3X 4797   0.060   0.873   9.862 -0.8661 -0.8602  2.1269
   61SAPC   H3Y 4798   0.006   0.751   9.750  0.9885  2.5222 -1.8665
   61SAPC   C34 4799   0.228   0.749   9.784 -0.1704  0.2119  0.1795
   61SAPC   H4X 4800   0.231   0.638   9.776 -0.3047  0.1157  1.2892
   61SAPC   H4Y 4801   0.296   0.788   9.863 -1.2977 -1.2205  1.9358
   61SAPC   C35 4802   0.266   0.818   9.648  0.4003  0.5091  0.5576
   61SAPC   H5X 4803   0.357   0.772   9.605 -0.3783 -0.5988  0.0400
   61SAPC   H5Y 4804   0.291   0.921   9.681 -0.9880  0.5754  1.4778
   61SAPC   C36 4805   0.150   0.843   9.544 -0.1922  0.1897  0.0464
   61SAPC   H6X 4806   0.068   0.888   9.603  0.4160 -1.9992  2.7985
   61SAPC   H6Y 4807   0.119   0.741   9.513 -2.1100 -0.0717  2.5016
   61SAPC   C37 4808   0.188   0.925   9.416 -0.3199  0.1829 -0.3373
   61SAPC   H7X 4809   0.272   0.987   9.456  0.8845 -2.1503  0.9569
   61SAPC   H7Y 4810   0.103   0.991   9.389 -1.1153  0.0008  1.5460
   61SAPC   C38 4811   0.231   0.825   9.305  0.2172  0.1311  0.2071
   61SAPC   H8X 4812   0.262   0.726   9.345  1.5890  0.1952 -0.6206
   61SAPC   H8Y 4813   0.321   0.871   9.259 -0.0075  1.2082  0.8261
   61SAPC   C39 4814   0.123   0.784   9.199 -0.5380  0.3929 -0.0024
   61SAPC   H9X 4815   0.169   0.735   9.111  0.2858 -0.3428  0.8098
   61SAPC   H9Y 4816   0.077   0.878   9.160 -1.5749 -0.7754 -1.7277
   61SAPC  C310 4817   0.004   0.702   9.261  0.0447 -0.8013 -0.1653
   61SAPC  H10X 4818  -0.045   0.744   9.351  1.2591  1.1263 -0.3487
   61SAPC  H10Y 4819   0.055   0.609   9.295  2.0911  0.6918  1.1105
   61SAPC  C311 4820  -0.104   0.660   9.163  0.6988 -0.0323  0.9214
   61SAPC  H11X 4821  -0.127   0.743   9.093 -0.7643 -1.4047 -0.3126
   61SAPC  H11Y 4822  -0.192   0.629   9.223  0.2405  0.2191  0.3843
   61SAPC  C312 4823  -0.064   0.531   9.092 -0.3412  0.1236  0.2765
   61SAPC  H12X 4824  -0.049   0.451   9.167  1.9347 -0.6419 -0.9069
   61SAPC  H12Y 4825   0.021   0.562   9.027 -0.0011  0.2313  0.7631
   61SAPC  C313 4826  -0.166   0.474   8.996  0.3224 -0.5442 -0.1772
   61SAPC  H13X 4827  -0.172   0.558   8.923  1.1978  1.1294  1.5917
   61SAPC  H13Y 4828  -0.264   0.460   9.045 -0.7764  0.2108 -2.0357
   61SAPC  C314 4829  -0.117   0.344   8.927 -0.2404  0.0604 -0.1698
   61SAPC  H14X 4830  -0.102   0.270   9.009 -1.4473 -1.2880 -1.1043
   61SAPC  H14Y 4831  -0.017   0.365   8.883 -0.3506 -0.7997 -0.8595
   61SAPC  C315 4832  -0.219   0.283   8.835 -0.1211 -0.5849  0.2120
   61SAPC  H15X 4833  -0.184   0.180   8.813  1.8984  0.3441 -1.2897
   61SAPC  H15Y 4834  -0.220   0.338   8.738 -1.2389 -0.3052  0.3752
   61SAPC  C316 4835  -0.365   0.282   8.883 -0.4273  0.6422  0.4939
   61SAPC  H16X 4836  -0.429   0.260   8.795 -1.1233  2.8606  0.3799
   61SAPC  H16Y 4837  -0.395   0.383   8.916 -0.6786 -0.3015  3.5282
   61SAPC  C317 4838  -0.392   0.183   8.991  0.1633  0.0158 -0.4226
   61SAPC  H17X 4839  -0.487   0.200   9.046  0.1124  0.4452 -0.6368
   61SAPC  H17Y 4840  -0.307   0.181   9.062 -1.1094 -2.1841  1.1476
   61SAPC  C318 4841  -0.395   0.032   8.943  0.2612  0.5823 -0.3943
   61SAPC  H18X 4842  -0.293   0.006   8.906  1.3366  3.4284  0.3196
   61SAPC  H18Y 4843  -0.468   0.025   8.860 -0.8455  2.3168  0.3654
   61SAPC  H18Z 4844  -0.415  -0.040   9.025  2.1728 -2.0099 -2.0259
   62SAPC     N 4845   2.430   0.404  10.916  0.0766 -0.4490  0.2234
   62SAPC   C12 4846   2.406   0.446  10.772  0.6598  0.1639 -0.1009
   62SAPC  H12A 4847   2.367   0.361  10.719  1.1266 -0.2241  0.1700
   62SAPC  H12B 4848   2.503   0.456  10.726  0.9984 -3.4610 -0.4428
   62SAPC   C13 4849   2.510   0.280  10.920  0.4695 -0.3531  0.0041
   62SAPC  H13A 4850   2.608   0.307  10.881  0.9489 -2.7936 -0.6306
   62SAPC  H13B 4851   2.519   0.231  11.015  0.2567  0.5352  0.4920
   62SAPC  H13C 4852   2.474   0.198  10.860  1.8969 -1.7394  0.9637
   62SAPC   C14 4853   2.513   0.514  10.982 -0.0825  0.3824 -0.0405
   62SAPC  H14A 4854   2.468   0.612  10.983  1.9625  1.3785 -0.3042
   62SAPC  H14B 4855   2.533   0.483  11.083  0.6514 -2.3501 -0.9356
   62SAPC  H14C 4856   2.611   0.524  10.937 -0.9706 -0.3700 -2.3170
   62SAPC   C15 4857   2.305   0.381  10.988  0.0169 -0.1423 -0.1431
   62SAPC  H15A 4858   2.323   0.340  11.086 -0.3486  2.5728  1.1442
   62SAPC  H15B 4859   2.253   0.474  11.007  0.1659 -0.1150  0.1382
   62SAPC  H15C 4860   2.233   0.326  10.930 -2.4968  1.9147  0.8626
   62SAPC   C11 4861   2.308   0.566  10.745  0.4645 -0.7015 -0.9266
   62SAPC  H11A 4862   2.312   0.603  10.640  0.2112  1.7524 -0.1336
   62SAPC  H11B 4863   2.341   0.659  10.796  1.8922 -0.5381 -2.0872
   62SAPC     P 4864   2.068   0.477  10.680 -0.3068 -0.4103 -0.2573
   62SAPC   O13 4865   2.086   0.329  10.679 -0.1365 -0.0574 -0.1199
   62SAPC   O14 4866   1.933   0.517  10.718 -0.6892 -0.3095 -0.2705
   62SAPC   O12 4867   2.174   0.540  10.785  0.5261  0.2386 -0.2664
   62SAPC   O11 4868   2.107   0.549  10.543 -0.6448  1.0499  0.3432
   62SAPC    C1 4869   2.090   0.686  10.526  0.0657  0.0570  0.4160
   62SAPC    HA 4870   2.065   0.740  10.620  0.7579  0.2893  0.4767
   62SAPC    HB 4871   2.185   0.729  10.488  0.9917 -1.3992  0.9478
   62SAPC    C2 4872   1.981   0.716  10.416 -0.2856 -0.0256 -0.1440
   62SAPC    HS 4873   1.893   0.657  10.449 -0.9470  1.2172  0.4001
   62SAPC   O21 4874   2.029   0.681  10.287 -0.4478 -0.5523 -0.1601
   62SAPC   C21 4875   1.994   0.565  10.240  1.2224  0.2659  0.1105
   62SAPC   O22 4876   1.909   0.492  10.298 -0.1395 -0.1607  0.5357
   62SAPC   C22 4877   2.055   0.557  10.096  0.5904 -0.1644 -0.0015
   62SAPC   H2R 4878   2.152   0.516  10.131  1.2315 -0.3389 -1.8465
   62SAPC   H2S 4879   2.009   0.469  10.045  2.4492 -0.0930 -1.9282
   62SAPC    C3 4880   1.938   0.862  10.422  0.2268 -1.2146 -0.3198
   62SAPC    HX 4881   2.036   0.915  10.420 -0.8961  1.0196  0.8117
   62SAPC    HY 4882   1.896   0.894  10.519  0.8514 -1.2236 -0.0453
   62SAPC   O31 4883   1.851   0.907  10.313 -0.0544  0.3943 -0.3281
   62SAPC   C31 4884   1.728   0.854  10.287 -0.0998 -0.0180  0.0867
   62SAPC   O32 4885   1.679   0.752  10.343 -0.5980  0.3909  0.3511
   62SAPC   C32 4886   1.665   0.938  10.185 -0.2353  0.3546  0.1824
   62SAPC   H2X 4887   1.738   0.942  10.101  0.4302 -0.6043  0.6986
   62SAPC   H2Y 4888   1.650   1.037  10.235  0.2173 -0.0691  1.1971
   62SAPC   C23 4889   2.076   0.690  10.016  0.3717  0.9581  0.4601
   62SAPC   H3R 4890   2.126   0.671   9.919 -0.1333 -0.1137  0.3915
   62SAPC   H3S 4891   2.139   0.763  10.071  0.3219 -0.7431  2.9589
   62SAPC   C24 4892   1.937   0.739   9.979  0.0894  0.0458  0.2305
   62SAPC   H4R 4893   1.884   0.770  10.072  3.6245 -0.6555  2.6917
   62SAPC   H4S 4894   1.879   0.657   9.932  1.1102 -0.5365 -0.0434
   62SAPC   C25 4895   1.927   0.855   9.882 -0.3872 -0.1914 -0.0692
   62SAPC   H5R 4896   1.921   0.952   9.934  2.2830  0.5346 -0.9842
   62SAPC   C26 4897   1.923   0.855   9.751  0.4678  0.6580  0.3701
   62SAPC   H6R 4898   1.900   0.950   9.700 -0.9624 -0.4213 -1.0874
   62SAPC   C27 4899   1.921   0.727   9.667  0.3996 -0.1293 -0.3674
   62SAPC   H7R 4900   1.885   0.635   9.716 -1.1191 -1.6968 -4.0540
   62SAPC   H7S 4901   2.026   0.702   9.638  0.6288 -0.4924  0.7352
   62SAPC   C28 4902   1.835   0.760   9.538  0.3971 -0.0942 -0.7801
   62SAPC   H8R 4903   1.734   0.718   9.545  0.8158 -1.2586 -1.3923
   62SAPC   C29 4904   1.866   0.818   9.421  0.3885 -0.6854  0.3623
   62SAPC   H9R 4905   1.785   0.837   9.350 -0.5820 -0.0472  1.5958
   62SAPC  C210 4906   2.005   0.875   9.388 -0.2668  0.3581 -0.7743
   62SAPC  H10R 4907   2.064   0.864   9.481  0.4794  0.2516 -1.2492
   62SAPC  H10S 4908   1.991   0.984   9.369  2.1642  1.0043  0.7340
   62SAPC  C211 4909   2.065   0.802   9.272 -0.5305  0.0794 -0.1390
   62SAPC  H11R 4910   2.120   0.710   9.296 -1.8054 -1.2891 -2.0892
   62SAPC  C212 4911   2.061   0.826   9.139 -0.4487  0.1575  0.1269
   62SAPC  H12R 4912   2.102   0.750   9.071  0.5665 -1.0720  2.0515
   62SAPC  C213 4913   1.992   0.939   9.067 -1.0666  0.6758 -0.0409
   62SAPC  H13R 4914   2.062   0.984   8.993 -0.9677 -0.7956 -0.8868
   62SAPC  H13S 4915   1.977   1.015   9.147  1.4596 -0.1807  1.3699
   62SAPC  C214 4916   1.859   0.894   9.006  0.2328  0.3087  0.0920
   62SAPC  H14R 4917   1.781   0.855   9.073  0.8656  1.9526  1.8586
   62SAPC  C215 4918   1.828   0.867   8.878  0.2881  0.0504  0.2604
   62SAPC  H15R 4919   1.726   0.834   8.853 -0.1492  1.9659 -0.6408
   62SAPC  C216 4920   1.922   0.864   8.765 -0.6439 -0.4472  0.2701
   62SAPC  H16R 4921   1.903   0.765   8.719  1.0414 -0.9525  0.5931
   62SAPC  H16S 4922   2.031   0.868   8.786 -0.3367  1.1801 -1.3142
   62SAPC  C217 4923   1.886   0.979   8.667  0.8181 -0.0976 -0.4381
   62SAPC  H17R 4924   1.912   1.073   8.721 -0.0309 -0.4710  0.6676
   62SAPC  H17S 4925   1.776   0.969   8.653  0.4584 -0.4948  2.2012
   62SAPC  C218 4926   1.951   0.982   8.531  0.1386  0.4432 -0.1130
   62SAPC  H18R 4927   1.915   1.068   8.470 -1.6568  0.6428  1.1502
   62SAPC  H18S 4928   1.932   0.887   8.476 -0.6549 -0.3330  1.4345
   62SAPC  C219 4929   2.102   1.009   8.549  0.3539 -0.2435  1.0342
   62SAPC  H19R 4930   2.150   0.922   8.600  0.0327 -1.8907 -1.3314
   62SAPC  H19S 4931   2.120   1.099   8.612  2.1400 -0.3200  0.7084
   62SAPC  C220 4932   2.158   1.021   8.404 -0.7086  0.0686 -0.2957
   62SAPC  H20R 4933   2.112   1.105   8.347  0.4135  1.4801  0.8126
   62SAPC  H20S 4934   2.155   0.926   8.345 -0.3586 -0.2284  0.1627
   62SAPC  H20T 4935   2.266   1.044   8.407 -1.0571  1.7359  0.0337
   62SAPC   C33 4936   1.523   0.887  10.149 -0.7310  0.4825 -0.3449
   62SAPC   H3X 4937   1.456   0.894  10.238 -0.9156  1.9724 -0.5827
   62SAPC   H3Y 4938   1.530   0.785  10.104  1.7078  1.0828 -1.4511
   62SAPC   C34 4939   1.447   0.970  10.043 -0.3709 -1.0108 -0.5222
   62SAPC   H4X 4940   1.415   1.066  10.088 -2.1978 -1.4475 -0.8026
   62SAPC   H4Y 4941   1.353   0.913  10.028 -0.2796 -0.9562 -1.3558
   62SAPC   C35 4942   1.533   0.987   9.917  0.0650  0.4117  0.5737
   62SAPC   H5X 4943   1.586   0.892   9.893  1.0827  0.5672  2.0619
   62SAPC   H5Y 4944   1.611   1.062   9.940  0.9296 -0.6267  1.1298
   62SAPC   C36 4945   1.471   1.046   9.791 -0.1257  0.5517  0.1533
   62SAPC   H6X 4946   1.445   1.154   9.798 -0.8734  0.2668  3.0227
   62SAPC   H6Y 4947   1.375   0.991   9.780 -0.2185  0.7348  0.0450
   62SAPC   C37 4948   1.573   1.030   9.673 -0.5522  0.6137  0.0704
   62SAPC   H7X 4949   1.588   0.923   9.648  1.0934  0.3841  1.8246
   62SAPC   H7Y 4950   1.672   1.060   9.713  0.1196  0.2838 -1.2851
   62SAPC   C38 4951   1.522   1.095   9.545  0.4875  0.8706  0.1256
   62SAPC   H8X 4952   1.526   1.206   9.551  0.9981  0.7987  1.5414
   62SAPC   H8Y 4953   1.418   1.058   9.542  0.6967  0.2964 -0.1837
   62SAPC   C39 4954   1.581   1.037   9.418  0.4177 -0.6518  0.6359
   62SAPC   H9X 4955   1.534   0.937   9.418 -2.8609  0.7598 -0.7895
   62SAPC   H9Y 4956   1.692   1.036   9.427  0.7436  1.9030 -1.6961
   62SAPC  C310 4957   1.540   1.120   9.290 -0.8107  0.1657 -0.3823
   62SAPC  H10X 4958   1.541   1.230   9.307  1.4952  0.1973 -0.4004
   62SAPC  H10Y 4959   1.438   1.083   9.264 -1.0399  0.9735 -0.6661
   62SAPC  C311 4960   1.627   1.094   9.166 -0.0629 -0.1782  0.5091
   62SAPC  H11X 4961   1.630   0.992   9.121  3.0542  0.9117 -2.1444
   62SAPC  H11Y 4962   1.734   1.102   9.195  1.1712 -1.1396 -3.2500
   62SAPC  C312 4963   1.578   1.181   9.052 -0.3057 -0.2520  0.2546
   62SAPC  H12X 4964   1.661   1.204   8.983 -2.4666 -0.6343 -2.6529
   62SAPC  H12Y 4965   1.540   1.275   9.097  0.2144 -0.7719  1.8628
   62SAPC  C313 4966   1.472   1.111   8.967 -0.1211  0.0084 -0.4525
   62SAPC  H13X 4967   1.384   1.099   9.034  1.3974 -1.7363  1.3600
   62SAPC  H13Y 4968   1.505   1.008   8.942  1.4367  0.1086  1.0023
   62SAPC  C314 4969   1.444   1.207   8.845 -0.5238  0.1455  0.3416
   62SAPC  H14X 4970   1.467   1.310   8.879 -0.1634  0.9077 -2.0491
   62SAPC  H14Y 4971   1.335   1.202   8.826 -0.2650  2.5051 -2.4107
   62SAPC  C315 4972   1.533   1.174   8.724  0.1493 -0.5399  0.0421
   62SAPC  H15X 4973   1.470   1.118   8.652 -0.1400 -0.3242  0.1243
   62SAPC  H15Y 4974   1.622   1.115   8.756  2.3999  2.2305 -0.6122
   62SAPC  C316 4975   1.596   1.303   8.662 -1.0886  0.6572 -0.0913
   62SAPC  H16X 4976   1.652   1.362   8.737  2.4847  1.9074 -3.4318
   62SAPC  H16Y 4977   1.503   1.357   8.634 -2.3631 -1.0846  0.6117
   62SAPC  C317 4978   1.694   1.278   8.556  1.2515  0.4830  1.0273
   62SAPC  H17X 4979   1.639   1.222   8.477 -1.2857  3.3689  0.5312
   62SAPC  H17Y 4980   1.776   1.212   8.591  0.9552 -0.2574  0.3550
   62SAPC  C318 4981   1.752   1.402   8.487  0.2386 -0.7531 -0.6474
   62SAPC  H18X 4982   1.844   1.372   8.432  1.2242 -2.9715  1.9967
   62SAPC  H18Y 4983   1.796   1.479   8.553 -0.9577 -0.4522 -0.1748
   62SAPC  H18Z 4984   1.673   1.455   8.429 -1.3131  0.7543  2.5792
   63SAPC     N 4985   3.099   4.461   5.952  0.5671  0.7257 -1.1195
   63SAPC   C12 4986   3.153   4.556   6.054  0.1124 -0.0083 -0.1965
   63SAPC  H12A 4987   3.162   4.653   6.005  1.6716  0.5449  1.1025
   63SAPC  H12B 4988   3.253   4.532   6.084 -0.6357 -0.0185  2.5396
   63SAPC   C13 4989   3.187   4.467   5.831 -1.1697  0.0915 -0.1820
   63SAPC  H13A 4990   3.291   4.472   5.861 -0.8011  2.2593 -1.5689
   63SAPC  H13B 4991   3.162   4.384   5.767 -0.9806 -0.6350  0.6555
   63SAPC  H13C 4992   3.159   4.558   5.779 -2.6775  1.1104  2.2329
   63SAPC   C14 4993   3.104   4.327   6.018  0.0050 -0.1326  0.6410
   63SAPC  H14A 4994   3.204   4.300   6.048 -0.1273  1.9665  3.3327
   63SAPC  H14B 4995   3.046   4.319   6.109 -1.6752 -1.9164 -0.4785
   63SAPC  H14C 4996   3.056   4.252   5.955 -0.6464  0.1030  0.8443
   63SAPC   C15 4997   2.955   4.487   5.925  0.3890  0.1381 -0.1787
   63SAPC  H15A 4998   2.923   4.405   5.863  0.7049 -1.1036  1.2568
   63SAPC  H15B 4999   2.896   4.481   6.015 -0.2755 -2.9168 -0.7064
   63SAPC  H15C 5000   2.942   4.576   5.865 -1.0061 -0.6788 -1.1294
   63SAPC   C11 5001   3.067   4.587   6.188  0.1983  0.2726  0.1081
   63SAPC  H11A 5002   2.961   4.606   6.162  0.0185  0.4465  0.9597
   63SAPC  H11B 5003   3.117   4.676   6.231  0.6168 -0.0943  0.3855
   63SAPC     P 5004   3.198   4.460   6.367  0.3599  0.3229 -0.5458
   63SAPC   O13 5005   3.176   4.335   6.446 -0.0405 -0.3951 -0.2765
   63SAPC   O14 5006   3.322   4.471   6.288 -1.0992  0.0052 -0.2102
   63SAPC   O12 5007   3.072   4.472   6.275  0.7607 -0.6462  0.1724
   63SAPC   O11 5008   3.187   4.582   6.474  0.9854  0.3639 -0.2710
   63SAPC    C1 5009   3.066   4.589   6.558 -0.3577  0.3132  0.2281
   63SAPC    HA 5010   2.975   4.614   6.499  1.5904 -0.9004 -3.5945
   63SAPC    HB 5011   3.046   4.495   6.614 -0.0468  0.4412  0.5560
   63SAPC    C2 5012   3.077   4.687   6.675 -0.1029 -0.3813  0.1369
   63SAPC    HS 5013   3.109   4.784   6.630  2.2617 -1.8360 -1.6074
   63SAPC   O21 5014   3.177   4.640   6.769 -0.2372  0.1511 -0.1153
   63SAPC   C21 5015   3.243   4.732   6.837  0.0266 -0.4063 -0.9557
   63SAPC   O22 5016   3.229   4.854   6.839 -0.2209  0.5445  0.4884
   63SAPC   C22 5017   3.371   4.673   6.905  0.3914  0.0244  0.5265
   63SAPC   H2R 5018   3.449   4.751   6.889 -0.0539  0.5043  0.6892
   63SAPC   H2S 5019   3.343   4.658   7.011  0.8655  0.0335  0.6576
   63SAPC    C3 5020   2.935   4.706   6.744  0.1073  0.5000  0.4771
   63SAPC    HX 5021   2.899   4.603   6.766 -1.0742  0.7901 -0.0369
   63SAPC    HY 5022   2.878   4.747   6.658 -0.6814 -0.0720  0.7188
   63SAPC   O31 5023   2.946   4.790   6.858  0.3859 -0.1800 -0.2413
   63SAPC   C31 5024   2.867   4.897   6.862 -0.6032  0.5240  0.2967
   63SAPC   O32 5025   2.807   4.942   6.764  1.0993  0.0184  0.3687
   63SAPC   C32 5026   2.890   4.945   7.001  0.4274 -0.1301 -0.2014
   63SAPC   H2X 5027   2.991   4.936   7.047 -0.0586 -0.7247  0.7880
   63SAPC   H2Y 5028   2.837   4.873   7.067 -1.7619  0.3265 -1.3966
   63SAPC   C23 5029   3.427   4.545   6.844 -0.4538  0.3230  0.6083
   63SAPC   H3R 5030   3.473   4.579   6.749 -1.4606 -0.3232 -0.1389
   63SAPC   H3S 5031   3.338   4.485   6.813 -0.5905  0.1229  1.3825
   63SAPC   C24 5032   3.528   4.460   6.930 -0.5147  0.2609 -0.1547
   63SAPC   H4R 5033   3.613   4.527   6.955 -0.2300 -0.8713  2.1538
   63SAPC   H4S 5034   3.566   4.379   6.864 -0.4220  0.6297 -0.5601
   63SAPC   C25 5035   3.463   4.402   7.050 -0.3616 -1.3436 -0.7164
   63SAPC   H5R 5036   3.382   4.331   7.026 -1.1638 -0.8006  0.3079
   63SAPC   C26 5037   3.503   4.421   7.180  0.1277 -0.7193 -1.1160
   63SAPC   H6R 5038   3.441   4.372   7.256  3.4541 -0.7897  1.7861
   63SAPC   C27 5039   3.618   4.494   7.248  0.0053  0.7474 -0.2695
   63SAPC   H7R 5040   3.576   4.548   7.336  1.7556  1.2951  0.2746
   63SAPC   H7S 5041   3.659   4.575   7.185  0.4155  0.0662 -0.8937
   63SAPC   C28 5042   3.718   4.394   7.305 -0.0366  0.0927 -0.1754
   63SAPC   H8R 5043   3.765   4.335   7.225 -0.8407 -0.6667 -0.0985
   63SAPC   C29 5044   3.734   4.363   7.438  0.1797  0.1149  0.4560
   63SAPC   H9R 5045   3.807   4.283   7.460 -1.8854 -2.1570 -0.4355
   63SAPC  C210 5046   3.671   4.431   7.557  0.6722 -0.1177 -0.2745
   63SAPC  H10R 5047   3.580   4.369   7.575  1.6546 -2.7904 -3.5460
   63SAPC  H10S 5048   3.649   4.536   7.529  1.2138 -0.1201 -0.7228
   63SAPC  C211 5049   3.750   4.416   7.688  0.2129 -0.2141  0.0710
   63SAPC  H11R 5050   3.807   4.506   7.713 -2.1670  1.2542  0.5002
   63SAPC  C212 5051   3.769   4.324   7.778 -0.2321 -0.1598  0.1025
   63SAPC  H12R 5052   3.841   4.343   7.859  0.0576 -1.6935  0.2345
   63SAPC  C213 5053   3.700   4.187   7.785 -0.1908  0.0713 -0.4131
   63SAPC  H13R 5054   3.753   4.123   7.711 -0.8201 -0.4556 -0.4170
   63SAPC  H13S 5055   3.594   4.191   7.751 -0.6845  0.7869  1.1223
   63SAPC  C214 5056   3.707   4.124   7.915  0.6796 -0.2619 -0.0501
   63SAPC  H14R 5057   3.788   4.052   7.934  0.6186  0.0562  1.5874
   63SAPC  C215 5058   3.629   4.162   8.023  0.0691  0.0852  0.5126
   63SAPC  H15R 5059   3.632   4.103   8.116  0.0823  1.2153  1.2497
   63SAPC  C216 5060   3.521   4.263   8.020  0.4065  0.1943 -0.0505
   63SAPC  H16R 5061   3.490   4.309   7.923 -3.8751 -0.6189  0.7094
   63SAPC  H16S 5062   3.550   4.348   8.085  0.5031  0.9236 -1.0204
   63SAPC  C217 5063   3.393   4.196   8.069 -0.1652  0.6062 -0.1007
   63SAPC  H17R 5064   3.366   4.123   7.989  0.6269 -0.2391  0.3779
   63SAPC  H17S 5065   3.312   4.270   8.055 -2.6403 -2.1121 -1.0405
   63SAPC  C218 5066   3.382   4.141   8.212 -0.0412 -0.1844 -0.1885
   63SAPC  H18R 5067   3.367   4.229   8.279 -1.3591 -0.3120 -0.2903
   63SAPC  H18S 5068   3.480   4.097   8.241  0.9504 -0.2931 -3.3611
   63SAPC  C219 5069   3.268   4.038   8.235  0.7453 -0.4452  0.2266
   63SAPC  H19R 5070   3.312   3.943   8.198  3.1524  1.1327 -1.3107
   63SAPC  H19S 5071   3.177   4.061   8.176 -0.5414 -0.8140  1.9782
   63SAPC  C220 5072   3.227   4.035   8.380  0.3966 -0.5011  0.4937
   63SAPC  H20R 5073   3.318   4.019   8.442  1.0954 -0.1780 -0.4127
   63SAPC  H20S 5074   3.152   3.957   8.404 -0.7863  0.8153  1.2210
   63SAPC  H20T 5075   3.176   4.127   8.417 -2.5138 -2.4127  1.6156
   63SAPC   C33 5076   2.852   5.092   7.019 -0.0791 -0.4033  0.2288
   63SAPC   H3X 5077   2.832   5.099   7.128 -1.6159 -2.0269  0.0926
   63SAPC   H3Y 5078   2.755   5.110   6.968 -0.5521 -1.1716  0.8416
   63SAPC   C34 5079   2.955   5.197   6.981  0.8348  0.6044  0.3055
   63SAPC   H4X 5080   2.921   5.303   6.976 -0.4765  0.1497 -1.3217
   63SAPC   H4Y 5081   2.999   5.170   6.883  2.3506 -0.1287  1.1506
   63SAPC   C35 5082   3.070   5.200   7.082  0.0090  0.6134 -0.1242
   63SAPC   H5X 5083   3.164   5.221   7.028  0.1503  1.0834  0.2972
   63SAPC   H5Y 5084   3.084   5.104   7.137  0.4947  0.6070 -0.2554
   63SAPC   C36 5085   3.047   5.309   7.192  0.5816  0.1857 -0.0973
   63SAPC   H6X 5086   2.952   5.273   7.236  0.5240  1.4241  0.8613
   63SAPC   H6Y 5087   3.027   5.402   7.133 -1.2849  0.5597  1.0428
   63SAPC   C37 5088   3.158   5.326   7.288  0.3800 -0.2789  0.5293
   63SAPC   H7X 5089   3.152   5.429   7.330  0.7258 -0.4153  0.9193
   63SAPC   H7Y 5090   3.256   5.323   7.235  0.3399  2.4927  0.1213
   63SAPC   C38 5091   3.165   5.228   7.407  0.2057 -0.7065  0.3005
   63SAPC   H8X 5092   3.204   5.132   7.366 -0.8283 -1.1344  0.3049
   63SAPC   H8Y 5093   3.063   5.198   7.439  0.2279  0.5143  1.6015
   63SAPC   C39 5094   3.248   5.276   7.522  0.0586  0.1417  0.1095
   63SAPC   H9X 5095   3.228   5.382   7.551  0.3335  0.1426  0.2952
   63SAPC   H9Y 5096   3.349   5.252   7.484 -0.7868 -0.8988 -1.6236
   63SAPC  C310 5097   3.235   5.203   7.651 -0.2193  0.5989  0.0072
   63SAPC  H10X 5098   3.252   5.093   7.642  2.4132  1.0747 -2.2278
   63SAPC  H10Y 5099   3.133   5.214   7.693 -0.6425  2.1421 -1.3328
   63SAPC  C311 5100   3.327   5.268   7.755  0.4778  0.2203  0.2302
   63SAPC  H11X 5101   3.311   5.378   7.747  1.4405  0.2564 -2.3501
   63SAPC  H11Y 5102   3.433   5.248   7.727  0.8016 -0.9042  2.0865
   63SAPC  C312 5103   3.313   5.219   7.900  0.6256  0.3961 -0.4582
   63SAPC  H12X 5104   3.357   5.118   7.907 -0.0732  0.1405  0.4122
   63SAPC  H12Y 5105   3.206   5.209   7.930  1.0793 -0.1918  1.0524
   63SAPC  C313 5106   3.382   5.313   8.001 -0.0101 -0.9162  0.3476
   63SAPC  H13X 5107   3.353   5.419   7.984 -0.6054 -1.1670 -0.2632
   63SAPC  H13Y 5108   3.490   5.313   7.976  0.3797  0.0444  1.8914
   63SAPC  C314 5109   3.357   5.260   8.150  0.1693  0.5028 -0.3649
   63SAPC  H14X 5110   3.248   5.262   8.173  0.4054  1.2711  0.7910
   63SAPC  H14Y 5111   3.407   5.334   8.217  0.6918 -0.2934  0.1511
   63SAPC  C315 5112   3.413   5.123   8.193  0.3296 -0.6319  0.5996
   63SAPC  H15X 5113   3.514   5.115   8.146  0.1751  1.6764 -0.2479
   63SAPC  H15Y 5114   3.349   5.049   8.140 -1.5200  1.3007 -0.0077
   63SAPC  C316 5115   3.404   5.068   8.334 -0.0766 -0.4902  0.4536
   63SAPC  H16X 5116   3.484   5.121   8.390  0.4959 -1.9380  1.0752
   63SAPC  H16Y 5117   3.422   4.958   8.342 -0.7194 -0.6134  0.2362
   63SAPC  C317 5118   3.270   5.101   8.411 -0.7692 -0.1802  0.6159
   63SAPC  H17X 5119   3.241   5.206   8.388  0.0792 -0.4085 -1.7989
   63SAPC  H17Y 5120   3.286   5.100   8.521 -1.9304  0.2548  0.8022
   63SAPC  C318 5121   3.161   5.009   8.365 -0.0927  0.1091  0.4678
   63SAPC  H18X 5122   3.123   5.039   8.265 -1.2221  1.6813  1.3141
   63SAPC  H18Y 5123   3.079   5.023   8.438 -0.0715  3.1981  0.0577
   63SAPC  H18Z 5124   3.192   4.904   8.347 -0.5648  0.0632 -0.1030
   64SAPC     N 5125   4.937   5.775   5.940 -0.3157  0.2821 -0.1564
   64SAPC   C12 5126   4.918   5.859   6.070  0.1399  0.2794 -0.1638
   64SAPC  H12A 5127   4.883   5.956   6.038  0.1328 -0.2050 -1.7050
   64SAPC  H12B 5128   5.014   5.879   6.116  2.0059 -2.4140 -2.5409
   64SAPC   C13 5129   4.827   5.809   5.844  0.4734 -0.1199  0.4979
   64SAPC  H13A 5130   4.803   5.740   5.764  0.5072 -0.0779  0.4507
   64SAPC  H13B 5131   4.738   5.830   5.901  0.5642  2.1061 -0.0928
   64SAPC  H13C 5132   4.853   5.904   5.800 -0.6928 -0.6405 -1.4284
   64SAPC   C14 5133   5.069   5.800   5.875  0.3862  0.6155  0.1259
   64SAPC  H14A 5134   5.080   5.901   5.838  1.5065 -0.3841 -2.5098
   64SAPC  H14B 5135   5.155   5.788   5.939 -0.5412  0.2453  1.3400
   64SAPC  H14C 5136   5.079   5.740   5.785 -0.8610  0.6715 -0.0631
   64SAPC   C15 5137   4.934   5.631   5.970 -0.7633 -0.3707 -0.2309
   64SAPC  H15A 5138   5.009   5.608   6.044 -1.7545  0.1254  0.9671
   64SAPC  H15B 5139   4.849   5.621   6.036  1.8077  2.9145  4.1049
   64SAPC  H15C 5140   4.935   5.564   5.886  0.1362  0.4906 -0.9220
   64SAPC   C11 5141   4.819   5.814   6.182 -0.4114 -0.4843 -0.0947
   64SAPC  H11A 5142   4.828   5.896   6.257  0.5422  0.5501 -1.3138
   64SAPC  H11B 5143   4.859   5.725   6.237  3.6031  0.9352 -0.4329
   64SAPC     P 5144   4.572   5.899   6.136  0.1408  0.1189  0.3478
   64SAPC   O13 5145   4.590   5.985   6.019  0.0304 -0.1666 -0.1763
   64SAPC   O14 5146   4.442   5.829   6.148 -0.1759 -0.0139 -0.1666
   64SAPC   O12 5147   4.693   5.791   6.134  0.3143  0.2308 -0.5043
   64SAPC   O11 5148   4.587   5.981   6.266  0.9556  0.1716  0.7066
   64SAPC    C1 5149   4.587   5.913   6.391 -0.4675  0.2341  0.2837
   64SAPC    HA 5150   4.506   5.837   6.403 -0.3292  0.0293 -0.0499
   64SAPC    HB 5151   4.688   5.888   6.430 -0.5999 -1.1550 -0.1980
   64SAPC    C2 5152   4.546   6.012   6.502  0.2670  0.0424 -0.1883
   64SAPC    HS 5153   4.619   6.096   6.498  0.7869 -0.3695  0.3986
   64SAPC   O21 5154   4.563   5.943   6.625 -0.3716  0.6893  0.4680
   64SAPC   C21 5155   4.673   5.975   6.696  0.8123 -0.6807  0.2361
   64SAPC   O22 5156   4.762   6.042   6.649 -0.2951  0.1444  0.2518
   64SAPC   C22 5157   4.677   5.900   6.823 -0.1856 -0.2915 -0.6051
   64SAPC   H2R 5158   4.577   5.911   6.871  0.6006 -0.8817  1.2619
   64SAPC   H2S 5159   4.693   5.791   6.811  1.1749 -0.1374 -0.4014
   64SAPC    C3 5160   4.402   6.069   6.494  0.3054 -0.0277 -0.3355
   64SAPC    HX 5161   4.345   5.987   6.543 -1.2171  0.7425 -0.7694
   64SAPC    HY 5162   4.371   6.083   6.388  1.9344 -0.5774 -0.9098
   64SAPC   O31 5163   4.394   6.186   6.582  0.2486  0.3778  0.0774
   64SAPC   C31 5164   4.318   6.293   6.541 -0.7776 -0.3574  0.7297
   64SAPC   O32 5165   4.258   6.295   6.434 -0.3199  0.0268 -0.3554
   64SAPC   C32 5166   4.311   6.406   6.639  0.7324 -0.6330  0.5444
   64SAPC   H2X 5167   4.283   6.498   6.583 -2.7713 -2.1989 -0.5644
   64SAPC   H2Y 5168   4.398   6.405   6.708  1.1880 -1.3571 -0.0360
   64SAPC   C23 5169   4.774   5.945   6.935 -0.4742 -0.8701 -0.0807
   64SAPC   H3R 5170   4.791   6.055   6.931  0.4549 -0.9829  0.5707
   64SAPC   H3S 5171   4.869   5.892   6.913 -1.4957 -2.8220 -0.0533
   64SAPC   C24 5172   4.738   5.906   7.079  0.1735  0.3225 -0.2289
   64SAPC   H4R 5173   4.829   5.912   7.144  1.6835 -2.5192 -1.8775
   64SAPC   H4S 5174   4.708   5.799   7.072 -0.4203  0.4907 -0.2771
   64SAPC   C25 5175   4.625   5.983   7.148  0.0784  0.3582 -0.0750
   64SAPC   H5R 5176   4.530   5.952   7.103  0.0467 -2.2518  1.5838
   64SAPC   C26 5177   4.638   6.061   7.260 -0.1543 -0.7655 -0.6718
   64SAPC   H6R 5178   4.541   6.101   7.294 -1.4027 -2.6072 -1.9167
   64SAPC   C27 5179   4.767   6.105   7.343  0.6478  0.0840 -0.0479
   64SAPC   H7R 5180   4.746   6.204   7.389 -2.8186 -0.3471 -0.4050
   64SAPC   H7S 5181   4.858   6.125   7.284  0.3637  0.7661 -0.2569
   64SAPC   C28 5182   4.801   6.012   7.460 -0.1284  0.2884 -0.2878
   64SAPC   H8R 5183   4.865   5.926   7.436 -1.4345 -0.5343 -0.9147
   64SAPC   C29 5184   4.752   6.016   7.584  0.1595  0.1469  0.3569
   64SAPC   H9R 5185   4.797   5.952   7.661  0.2538  0.3491  0.4716
   64SAPC  C210 5186   4.658   6.119   7.644 -0.3059  0.0869  0.2909
   64SAPC  H10R 5187   4.639   6.203   7.574  0.2982 -0.1354 -0.1504
   64SAPC  H10S 5188   4.713   6.164   7.729  0.8335  0.5088 -0.6351
   64SAPC  C211 5189   4.526   6.053   7.688  0.2835 -0.1241  0.5686
   64SAPC  H11R 5190   4.506   5.949   7.658  2.7966 -0.4061 -0.3194
   64SAPC  C212 5191   4.433   6.128   7.745 -0.0969  0.8891  0.8062
   64SAPC  H12R 5192   4.331   6.091   7.763 -0.0851 -0.3699 -1.3319
   64SAPC  C213 5193   4.455   6.270   7.784 -0.9517 -0.4326  0.3872
   64SAPC  H13R 5194   4.462   6.320   7.685 -0.7571  1.0575  1.1242
   64SAPC  H13S 5195   4.552   6.304   7.828 -1.4954  2.0306 -0.1619
   64SAPC  C214 5196   4.343   6.330   7.863 -0.2970  0.5986  0.1311
   64SAPC  H14R 5197   4.255   6.354   7.801  0.7915 -2.3420 -2.8597
   64SAPC  C215 5198   4.341   6.373   7.993  0.2726  0.5152 -0.3889
   64SAPC  H15R 5199   4.247   6.413   8.033 -0.1404 -0.4723 -0.3429
   64SAPC  C216 5200   4.442   6.363   8.108 -0.0937 -0.3204 -0.1553
   64SAPC  H16R 5201   4.538   6.349   8.053  0.1796  0.4016  0.1349
   64SAPC  H16S 5202   4.427   6.275   8.173 -2.8578 -0.3921 -0.7596
   64SAPC  C217 5203   4.455   6.501   8.179  0.5417 -0.1463 -0.0599
   64SAPC  H17R 5204   4.460   6.584   8.106 -1.4105  0.0658 -0.0074
   64SAPC  H17S 5205   4.556   6.505   8.227 -0.1491  0.4477  1.4058
   64SAPC  C218 5206   4.353   6.520   8.291  0.3573  0.1541 -0.1538
   64SAPC  H18R 5207   4.352   6.420   8.339  1.1610 -0.5649 -1.5688
   64SAPC  H18S 5208   4.257   6.535   8.236  0.7911  0.8448 -0.7486
   64SAPC  C219 5209   4.387   6.630   8.392 -0.3887 -0.6067 -0.0223
   64SAPC  H19R 5210   4.360   6.721   8.334  0.7072 -1.3064 -1.7383
   64SAPC  H19S 5211   4.494   6.644   8.417 -0.0738 -0.5399 -1.3062
   64SAPC  C220 5212   4.300   6.628   8.522 -0.5070  0.4952  0.3167
   64SAPC  H20R 5213   4.323   6.719   8.581  0.2139  0.4112  0.1810
   64SAPC  H20S 5214   4.337   6.540   8.579  1.3793  1.7878  1.1996
   64SAPC  H20T 5215   4.191   6.614   8.503 -0.2320  0.1645 -1.2025
   64SAPC   C33 5216   4.200   6.391   6.751  0.3066  0.6221 -0.2460
   64SAPC   H3X 5217   4.111   6.346   6.702  0.3585 -1.4980  1.4439
   64SAPC   H3Y 5218   4.177   6.489   6.797 -0.3275  0.0770  0.6433
   64SAPC   C34 5219   4.256   6.303   6.870 -0.0826  0.3329  0.3567
   64SAPC   H4X 5220   4.356   6.340   6.899 -0.1871  1.7870 -1.0534
   64SAPC   H4Y 5221   4.281   6.199   6.841  3.9584  1.1559  0.3226
   64SAPC   C35 5222   4.161   6.303   6.992  0.2916 -0.3699  0.4792
   64SAPC   H5X 5223   4.081   6.226   6.991  0.5504 -0.6400  0.4683
   64SAPC   H5Y 5224   4.115   6.403   7.000  2.7533  0.9722 -0.7604
   64SAPC   C36 5225   4.229   6.277   7.125  0.5905  0.4828 -0.5218
   64SAPC   H6X 5226   4.301   6.357   7.154 -0.7618  0.8247  2.0827
   64SAPC   H6Y 5227   4.284   6.180   7.126  1.5867  1.0330  0.7282
   64SAPC   C37 5228   4.135   6.261   7.251  0.1378  0.4707  0.0937
   64SAPC   H7X 5229   4.059   6.187   7.220  1.1046  0.0147 -1.2857
   64SAPC   H7Y 5230   4.082   6.354   7.280 -0.3106  0.2906 -0.1498
   64SAPC   C38 5231   4.212   6.217   7.375 -0.0501  0.1539  0.3896
   64SAPC   H8X 5232   4.308   6.272   7.378 -0.0763  0.1941  0.5548
   64SAPC   H8Y 5233   4.237   6.111   7.355  4.1679  0.8113  1.3347
   64SAPC   C39 5234   4.131   6.244   7.506  0.0762 -0.0411  0.0575
   64SAPC   H9X 5235   4.095   6.349   7.500 -0.9080 -0.3230  0.6646
   64SAPC   H9Y 5236   4.200   6.237   7.592 -0.7072 -1.9770  0.6099
   64SAPC  C310 5237   4.019   6.140   7.537 -0.6070  0.0190  0.9687
   64SAPC  H10X 5238   4.062   6.043   7.569 -0.1541 -0.0606  0.1316
   64SAPC  H10Y 5239   3.956   6.125   7.447 -0.5008  3.7181  0.0994
   64SAPC  C311 5240   3.925   6.189   7.646  0.5294 -0.1314  0.0415
   64SAPC  H11X 5241   3.871   6.281   7.617 -0.9662 -0.9030  0.2833
   64SAPC  H11Y 5242   3.985   6.210   7.737  0.2441  1.9376 -0.2009
   64SAPC  C312 5243   3.818   6.084   7.678  0.0095 -0.2286 -0.7706
   64SAPC  H12X 5244   3.869   5.988   7.703  4.4018  1.6214 -1.6646
   64SAPC  H12Y 5245   3.748   6.063   7.594  0.3640 -0.6512 -0.9679
   64SAPC  C313 5246   3.729   6.137   7.796  0.4924 -0.1399  0.3310
   64SAPC  H13X 5247   3.644   6.067   7.814 -0.3146  0.2666 -1.6382
   64SAPC  H13Y 5248   3.684   6.233   7.763 -1.7861 -1.5089 -0.8344
   64SAPC  C314 5249   3.806   6.151   7.927  0.3576  0.4486 -0.0547
   64SAPC  H14X 5250   3.888   6.226   7.932 -0.3250  1.2167 -0.0872
   64SAPC  H14Y 5251   3.848   6.051   7.952  1.8963  0.9857 -0.3862
   64SAPC  C315 5252   3.713   6.190   8.044 -0.0050  0.6798  0.4728
   64SAPC  H15X 5253   3.654   6.281   8.020  0.4013  0.4035 -1.8986
   64SAPC  H15Y 5254   3.779   6.221   8.128  0.6330  0.2531  0.1404
   64SAPC  C316 5255   3.619   6.074   8.090 -0.1362  0.0884 -0.7369
   64SAPC  H16X 5256   3.678   5.988   8.129 -0.7667  0.4816  1.1692
   64SAPC  H16Y 5257   3.555   6.035   8.008  0.0022 -0.2168 -0.7036
   64SAPC  C317 5258   3.520   6.122   8.199 -0.3071 -0.1998 -0.1167
   64SAPC  H17X 5259   3.459   6.205   8.156  0.9302  0.6317 -0.3091
   64SAPC  H17Y 5260   3.571   6.166   8.287 -0.5425 -0.7108  0.2813
   64SAPC  C318 5261   3.432   6.004   8.232  0.2150  0.0798  0.1403
   64SAPC  H18X 5262   3.378   5.960   8.145  0.6050  1.8132 -1.0415
   64SAPC  H18Y 5263   3.342   6.020   8.294  0.9480  1.3934  0.9059
   64SAPC  H18Z 5264   3.491   5.924   8.282  1.2664  0.7358 -0.0188
   65SAPC     N 5265   4.636   0.890   5.928  0.3354  0.1401  0.1142
   65SAPC   C12 5266   4.608   0.831   6.066 -0.7446  0.7427 -0.4939
   65SAPC  H12A 5267   4.527   0.888   6.110 -0.5973 -1.7453  3.5286
   65SAPC  H12B 5268   4.699   0.842   6.122 -0.2689 -0.5864 -0.9641
   65SAPC   C13 5269   4.525   0.857   5.838 -0.4979 -0.5116 -0.1466
   65SAPC  H13A 5270   4.438   0.907   5.877 -0.7489 -0.1848 -1.0961
   65SAPC  H13B 5271   4.548   0.886   5.737 -0.2048 -0.1324  0.0248
   65SAPC  H13C 5272   4.502   0.751   5.833 -1.3855 -0.4364  1.5268
   65SAPC   C14 5273   4.648   1.035   5.942  0.1305  0.3521  0.1660
   65SAPC  H14A 5274   4.737   1.044   6.003 -0.9954 -0.8252  2.0955
   65SAPC  H14B 5275   4.661   1.091   5.851  1.6335  0.7918  0.6215
   65SAPC  H14C 5276   4.566   1.085   5.992  0.9661  1.5629  0.3582
   65SAPC   C15 5277   4.752   0.832   5.855 -0.5885  0.5577  0.4054
   65SAPC  H15A 5278   4.744   0.725   5.845 -0.9897  0.5576  0.7150
   65SAPC  H15B 5279   4.748   0.869   5.753 -1.5316 -2.2352 -0.6914
   65SAPC  H15C 5280   4.846   0.857   5.902 -0.1264 -0.1176 -0.1290
   65SAPC   C11 5281   4.571   0.677   6.073 -0.2512  0.2777 -0.3382
   65SAPC  H11A 5282   4.564   0.639   6.177 -1.0152 -0.0540 -0.5021
   65SAPC  H11B 5283   4.661   0.631   6.027 -0.5489 -0.8653  0.1738
   65SAPC     P 5284   4.299   0.642   6.062  0.2545 -0.1651 -0.0627
   65SAPC   O13 5285   4.244   0.777   6.088  0.2474  0.7289 -0.1730
   65SAPC   O14 5286   4.226   0.548   5.972  0.0315  0.3030  0.2849
   65SAPC   O12 5287   4.444   0.655   6.004 -0.4772  0.0094 -0.4487
   65SAPC   O11 5288   4.319   0.575   6.202  0.8065  0.7197  0.4245
   65SAPC    C1 5289   4.278   0.640   6.322 -0.2408  0.7226 -0.5809
   65SAPC    HA 5290   4.186   0.701   6.314 -1.0440 -0.4956 -0.8393
   65SAPC    HB 5291   4.265   0.568   6.406 -2.4916  2.7819  0.9554
   65SAPC    C2 5292   4.383   0.745   6.374 -0.3179 -0.5392 -0.5690
   65SAPC    HS 5293   4.414   0.809   6.289  1.6632 -2.1145 -1.1326
   65SAPC   O21 5294   4.500   0.672   6.420 -0.0726 -0.2790 -0.0254
   65SAPC   C21 5295   4.612   0.743   6.413  0.5331  0.1568 -0.5873
   65SAPC   O22 5296   4.626   0.857   6.377  0.2748 -0.2171  0.3121
   65SAPC   C22 5297   4.717   0.666   6.492  0.3322 -0.0127 -0.6149
   65SAPC   H2R 5298   4.675   0.660   6.595 -0.2158 -0.9199 -0.8874
   65SAPC   H2S 5299   4.734   0.563   6.453  0.7432 -0.9821  1.9343
   65SAPC    C3 5300   4.327   0.843   6.487  0.1812  0.3011 -0.0509
   65SAPC    HX 5301   4.255   0.909   6.433  1.3622  0.1489 -1.9256
   65SAPC    HY 5302   4.416   0.904   6.516  0.3840  0.2199 -0.4818
   65SAPC   O31 5303   4.263   0.767   6.597  0.2901 -0.1560 -0.2310
   65SAPC   C31 5304   4.343   0.752   6.700 -0.1408 -0.5193  0.4039
   65SAPC   O32 5305   4.450   0.808   6.725 -0.4942 -0.3164  0.9946
   65SAPC   C32 5306   4.283   0.642   6.788 -0.4205  0.0449 -0.5024
   65SAPC   H2X 5307   4.274   0.557   6.718 -0.2662 -1.4205  1.1718
   65SAPC   H2Y 5308   4.181   0.671   6.824 -0.9311  0.6549 -2.3614
   65SAPC   C23 5309   4.857   0.740   6.496  0.8577 -0.2293  0.2616
   65SAPC   H3R 5310   4.842   0.847   6.519 -1.2881 -0.3673 -0.3269
   65SAPC   H3S 5311   4.905   0.728   6.396  2.1482 -0.7254  0.9186
   65SAPC   C24 5312   4.940   0.673   6.605  0.1406 -0.3625  0.5770
   65SAPC   H4R 5313   4.949   0.564   6.583  2.0677  0.2696 -2.4577
   65SAPC   H4S 5314   4.895   0.688   6.705 -0.4838  1.4041  0.0648
   65SAPC   C25 5315   5.085   0.724   6.606 -0.2087  0.0698  0.0666
   65SAPC   H5R 5316   5.138   0.722   6.509 -2.4742  0.5357 -1.2357
   65SAPC   C26 5317   5.162   0.743   6.718  0.3453  0.8841  0.3086
   65SAPC   H6R 5318   5.264   0.783   6.706  0.8972 -0.2274  1.1662
   65SAPC   C27 5319   5.124   0.744   6.862  0.6230  0.2118 -0.5520
   65SAPC   H7R 5320   5.193   0.673   6.914  0.9537  2.0348  1.6608
   65SAPC   H7S 5321   5.018   0.717   6.883  0.2840  0.6910 -1.5773
   65SAPC   C28 5322   5.154   0.880   6.926 -0.4725  0.2524  0.0987
   65SAPC   H8R 5323   5.121   0.970   6.873 -1.8924 -0.1127  0.3120
   65SAPC   C29 5324   5.204   0.892   7.054  0.0951  0.4718  0.2344
   65SAPC   H9R 5325   5.213   0.994   7.095  1.0169 -0.2680  1.9562
   65SAPC  C210 5326   5.246   0.792   7.156 -0.1842  0.1845  0.3621
   65SAPC  H10R 5327   5.355   0.809   7.161 -0.2467  0.7493 -0.1624
   65SAPC  H10S 5328   5.223   0.690   7.118 -0.0410  0.4506 -0.4348
   65SAPC  C211 5329   5.183   0.812   7.296 -0.8409 -0.4691 -0.4752
   65SAPC  H11R 5330   5.153   0.916   7.311 -0.6950 -0.4757 -0.1426
   65SAPC  C212 5331   5.154   0.715   7.386 -0.0223  0.0706 -0.0293
   65SAPC  H12R 5332   5.101   0.737   7.479 -0.0755 -0.7720  0.1493
   65SAPC  C213 5333   5.171   0.560   7.376 -0.0219  0.0108  0.3677
   65SAPC  H13R 5334   5.268   0.537   7.423 -0.1336 -0.5488  0.3296
   65SAPC  H13S 5335   5.170   0.528   7.270 -2.5209  0.0732  0.2960
   65SAPC  C214 5336   5.069   0.477   7.445 -0.6132  0.0335  0.4867
   65SAPC  H14R 5337   4.996   0.427   7.379 -1.5506 -0.6621  1.9799
   65SAPC  C215 5338   5.063   0.453   7.573  0.2553  0.4535  0.0156
   65SAPC  H15R 5339   4.985   0.384   7.612 -0.7896  2.2070  1.1591
   65SAPC  C216 5340   5.144   0.499   7.690  0.2555 -0.3578  0.0285
   65SAPC  H16R 5341   5.225   0.568   7.659  1.5749 -0.7935  2.3663
   65SAPC  H16S 5342   5.187   0.407   7.736 -2.0607 -0.8773  1.3155
   65SAPC  C217 5343   5.055   0.559   7.803  0.1553  0.0044 -0.9506
   65SAPC  H17R 5344   4.978   0.625   7.757 -1.1059  0.0427  1.0975
   65SAPC  H17S 5345   5.125   0.614   7.869 -0.2182  0.2569 -0.7592
   65SAPC  C218 5346   4.988   0.449   7.885 -0.1479 -0.6495 -0.4946
   65SAPC  H18R 5347   5.060   0.371   7.920  0.2001 -0.7744 -1.4784
   65SAPC  H18S 5348   4.908   0.394   7.832 -0.1763 -2.5021  1.3184
   65SAPC  C219 5349   4.930   0.505   8.016 -0.0893 -0.1250 -0.8551
   65SAPC  H19R 5350   4.828   0.463   8.028  0.9558 -2.2516  1.9991
   65SAPC  H19S 5351   4.918   0.615   8.020  1.0504 -0.0158  0.2561
   65SAPC  C220 5352   5.009   0.460   8.140  0.0934  0.4807 -0.3164
   65SAPC  H20R 5353   4.982   0.521   8.229 -2.7746  1.0924 -1.4999
   65SAPC  H20S 5354   5.117   0.451   8.115 -0.5466 -0.9644 -2.9362
   65SAPC  H20T 5355   4.978   0.354   8.157 -0.2641  0.8170  1.3575
   65SAPC   C33 5356   4.375   0.619   6.918 -0.1640  0.0079  0.2321
   65SAPC   H3X 5357   4.392   0.714   6.974  0.6878 -0.1654  0.2919
   65SAPC   H3Y 5358   4.474   0.578   6.888 -0.7556 -1.5024  0.2945
   65SAPC   C34 5359   4.311   0.512   7.012  0.4046  0.1249 -0.2403
   65SAPC   H4X 5360   4.294   0.413   6.966  0.5566  0.5083 -1.1411
   65SAPC   H4Y 5361   4.211   0.536   7.053 -0.3026 -0.4081 -1.5947
   65SAPC   C35 5362   4.405   0.483   7.129  0.3168 -0.6326  0.2077
   65SAPC   H5X 5363   4.417   0.570   7.197 -1.1001 -0.1138 -0.1677
   65SAPC   H5Y 5364   4.509   0.455   7.101  0.5767  0.9903 -0.5694
   65SAPC   C36 5365   4.350   0.373   7.227 -0.2376 -0.8321 -0.1018
   65SAPC   H6X 5366   4.319   0.279   7.177 -1.2760 -0.2954 -0.5131
   65SAPC   H6Y 5367   4.257   0.400   7.282 -0.4628  3.2565 -2.1039
   65SAPC   C37 5368   4.455   0.340   7.340  0.3447  0.0046 -0.1685
   65SAPC   H7X 5369   4.405   0.272   7.411 -0.0823 -0.7858 -1.1991
   65SAPC   H7Y 5370   4.489   0.433   7.389  2.1640 -1.1558  0.8891
   65SAPC   C38 5371   4.579   0.259   7.283 -0.2947  1.1312 -0.0520
   65SAPC   H8X 5372   4.620   0.303   7.190 -0.0274  0.6543 -0.1645
   65SAPC   H8Y 5373   4.546   0.155   7.262  0.0890  0.3755  2.7092
   65SAPC   C39 5374   4.688   0.247   7.389  0.3494 -0.5326 -0.1918
   65SAPC   H9X 5375   4.712   0.346   7.431  1.2533 -1.6963  2.2103
   65SAPC   H9Y 5376   4.783   0.212   7.344  0.2664 -1.1959  0.1320
   65SAPC  C310 5377   4.637   0.160   7.508  0.3015  0.4340  0.6780
   65SAPC  H10X 5378   4.626   0.059   7.462  1.8779  0.2186  0.7343
   65SAPC  H10Y 5379   4.533   0.183   7.539 -0.9316 -2.0207 -1.2212
   65SAPC  C311 5380   4.727   0.163   7.628 -1.1519 -0.4771  0.1071
   65SAPC  H11X 5381   4.738   0.267   7.666  3.0689 -0.2625 -1.1563
   65SAPC  H11Y 5382   4.830   0.125   7.615 -1.2491 -1.7410  2.5075
   65SAPC  C312 5383   4.668   0.084   7.750 -0.5896 -0.3001  0.0315
   65SAPC  H12X 5384   4.647  -0.022   7.724 -0.6853 -0.7477  1.8038
   65SAPC  H12Y 5385   4.563   0.113   7.777 -0.8605 -0.5265 -0.7651
   65SAPC  C313 5386   4.736   0.110   7.886 -0.6812  0.0415  0.0484
   65SAPC  H13X 5387   4.729   0.219   7.906 -0.5317  0.6765 -2.9045
   65SAPC  H13Y 5388   4.841   0.075   7.892 -0.1318  1.7062  0.7670
   65SAPC  C314 5389   4.662   0.043   8.001 -0.0768  0.0870  0.3031
   65SAPC  H14X 5390   4.686  -0.065   7.997  3.3654  0.6882  1.1619
   65SAPC  H14Y 5391   4.554   0.070   7.999 -0.2856 -0.6266  1.2104
   65SAPC  C315 5392   4.717   0.088   8.138  0.0411  0.7479 -0.3032
   65SAPC  H15X 5393   4.708   0.198   8.153 -0.9445  0.9723 -2.2552
   65SAPC  H15Y 5394   4.828   0.075   8.137 -0.0288 -1.2745  2.9614
   65SAPC  C316 5395   4.671   0.018   8.266 -0.1923 -1.0097  0.6752
   65SAPC  H16X 5396   4.694  -0.090   8.258 -0.5914 -1.0697  0.2918
   65SAPC  H16Y 5397   4.560   0.026   8.273 -0.0823  1.3159  0.6873
   65SAPC  C317 5398   4.729   0.075   8.394  0.2902 -0.0975  0.0395
   65SAPC  H17X 5399   4.657   0.058   8.477  0.8702  1.6016  0.9494
   65SAPC  H17Y 5400   4.730   0.185   8.379  0.4190 -0.3545 -2.2533
   65SAPC  C318 5401   4.858   0.025   8.450  0.0866 -0.3795 -0.3823
   65SAPC  H18X 5402   4.844  -0.085   8.448 -0.8901 -0.3115  1.1916
   65SAPC  H18Y 5403   4.885   0.063   8.550 -1.5721  1.0213 -0.4218
   65SAPC  H18Z 5404   4.936   0.059   8.378  1.6046  0.1127  1.4373
   66SAPC     N 5405   2.897   2.229   6.186  0.5882  0.5618  0.0446
   66SAPC   C12 5406   2.754   2.254   6.139  0.0453  0.3086  0.2346
   66SAPC  H12A 5407   2.731   2.204   6.046 -2.3870  0.4011  0.7231
   66SAPC  H12B 5408   2.751   2.359   6.115 -4.1971  0.2959 -0.1017
   66SAPC   C13 5409   2.911   2.089   6.244  0.0561 -0.7031  0.2357
   66SAPC  H13A 5410   2.826   2.062   6.305 -1.7355  0.5201 -1.5663
   66SAPC  H13B 5411   2.916   2.022   6.159 -0.7228 -1.8880  1.0924
   66SAPC  H13C 5412   3.002   2.075   6.300  1.6648  1.0762 -1.7677
   66SAPC   C14 5413   2.990   2.249   6.071 -0.9479  0.0501  0.2580
   66SAPC  H14A 5414   2.973   2.349   6.036 -0.2823 -0.0359 -0.3288
   66SAPC  H14B 5415   3.091   2.246   6.109 -0.3288  3.0731 -0.8927
   66SAPC  H14C 5416   2.968   2.188   5.984  0.2991  0.7397 -0.5721
   66SAPC   C15 5417   2.935   2.327   6.289  0.0866 -0.0514 -1.3474
   66SAPC  H15A 5418   3.041   2.347   6.292  0.2807 -1.0786 -0.7601
   66SAPC  H15B 5419   2.878   2.418   6.283 -1.3600 -0.8154  0.0513
   66SAPC  H15C 5420   2.902   2.290   6.385 -2.6873  2.2261 -1.3101
   66SAPC   C11 5421   2.631   2.223   6.226 -0.2845  0.4381 -0.0085
   66SAPC  H11A 5422   2.545   2.267   6.169 -0.7067 -1.5405 -1.0030
   66SAPC  H11B 5423   2.637   2.268   6.327 -0.3901 -1.9210  1.1126
   66SAPC     P 5424   2.584   1.974   6.147 -0.3502  0.9235 -0.2864
   66SAPC   O13 5425   2.604   2.021   6.011  0.2258 -0.3428  0.9345
   66SAPC   O14 5426   2.651   1.846   6.182 -0.0338 -0.8669  0.1404
   66SAPC   O12 5427   2.616   2.083   6.253 -0.8249 -0.0445  0.6595
   66SAPC   O11 5428   2.426   1.964   6.164  0.2652  0.3392 -0.0018
   66SAPC    C1 5429   2.334   2.069   6.175 -0.3060 -0.2148  0.3654
   66SAPC    HA 5430   2.372   2.157   6.119  0.2662 -0.4265  0.4159
   66SAPC    HB 5431   2.241   2.033   6.126  1.0635 -1.7035 -1.2866
   66SAPC    C2 5432   2.298   2.097   6.321  1.1022 -0.7766 -0.0175
   66SAPC    HS 5433   2.384   2.155   6.360  2.4707 -1.5743 -1.7049
   66SAPC   O21 5434   2.279   1.973   6.388 -0.9910 -0.1648 -0.7214
   66SAPC   C21 5435   2.289   1.980   6.517 -0.4188 -0.2654  0.4210
   66SAPC   O22 5436   2.318   2.079   6.580 -0.4769  0.1429  0.0474
   66SAPC   C22 5437   2.263   1.849   6.577  0.3870  0.1815 -0.1472
   66SAPC   H2R 5438   2.166   1.865   6.628  1.2427  0.5872  1.4216
   66SAPC   H2S 5439   2.245   1.768   6.503  2.1150  0.5117 -0.9960
   66SAPC    C3 5440   2.172   2.197   6.329  0.1514 -0.0770  0.5906
   66SAPC    HX 5441   2.086   2.139   6.291 -0.9723  2.0666 -0.3151
   66SAPC    HY 5442   2.193   2.279   6.257 -1.3119  0.0215  0.2563
   66SAPC   O31 5443   2.150   2.246   6.458 -0.3306 -0.2383 -0.3795
   66SAPC   C31 5444   2.230   2.335   6.513  0.3193  0.6554  0.0523
   66SAPC   O32 5445   2.332   2.379   6.459 -0.1681  0.1388  0.5608
   66SAPC   C32 5446   2.179   2.372   6.648 -0.4032  0.0889  0.2045
   66SAPC   H2X 5447   2.202   2.285   6.712  1.7784  0.6357  0.2397
   66SAPC   H2Y 5448   2.069   2.387   6.644 -1.1030 -4.0172 -1.8408
   66SAPC   C23 5449   2.362   1.792   6.681  0.0463  0.9269 -0.4653
   66SAPC   H3R 5450   2.470   1.815   6.672  1.2326 -3.4684  0.0125
   66SAPC   H3S 5451   2.357   1.681   6.683 -0.3807  0.9450 -0.4261
   66SAPC   C24 5452   2.323   1.840   6.826  0.1216  0.4375  0.0630
   66SAPC   H4R 5453   2.224   1.791   6.842  1.2023 -2.1365 -0.5956
   66SAPC   H4S 5454   2.312   1.951   6.828  1.3023  0.6371  4.2352
   66SAPC   C25 5455   2.427   1.805   6.928  1.1663  0.6579 -0.0442
   66SAPC   H5R 5456   2.527   1.790   6.883  1.2976  0.9496  0.1464
   66SAPC   C26 5457   2.412   1.792   7.062  0.1812 -0.4061  0.3218
   66SAPC   H6R 5458   2.503   1.760   7.114  0.7580 -0.4259 -0.6669
   66SAPC   C27 5459   2.282   1.806   7.138 -0.8872  0.0248 -0.4957
   66SAPC   H7R 5460   2.193   1.816   7.072 -1.4475  0.4070  0.3073
   66SAPC   H7S 5461   2.280   1.902   7.194 -0.4560  0.8465 -1.8223
   66SAPC   C28 5462   2.257   1.681   7.215  0.5164  0.2036 -0.2035
   66SAPC   H8R 5463   2.207   1.605   7.153  1.7674 -1.3190  0.5892
   66SAPC   C29 5464   2.309   1.661   7.343 -0.2874 -0.0005  0.6553
   66SAPC   H9R 5465   2.292   1.562   7.387 -1.4815  0.0343  0.2956
   66SAPC  C210 5466   2.390   1.749   7.425 -0.0404  0.5601  0.4402
   66SAPC  H10R 5467   2.427   1.836   7.367 -0.7643 -0.4737 -1.6648
   66SAPC  H10S 5468   2.476   1.688   7.460 -0.2705  0.3474  0.6355
   66SAPC  C211 5469   2.306   1.792   7.536  0.3412 -0.5771  0.2206
   66SAPC  H11R 5470   2.227   1.865   7.513  0.2818 -0.0328  2.0003
   66SAPC  C212 5471   2.325   1.759   7.664  0.1124  0.1849 -0.4901
   66SAPC  H12R 5472   2.260   1.814   7.733 -0.8260  0.4139 -1.5421
   66SAPC  C213 5473   2.432   1.678   7.725 -0.2699 -0.0887 -0.1790
   66SAPC  H13R 5474   2.512   1.751   7.750  0.4290 -1.1650  0.8529
   66SAPC  H13S 5475   2.483   1.606   7.658 -1.7153 -1.1410 -0.1910
   66SAPC  C214 5476   2.386   1.600   7.843  0.0235  0.1453  0.1240
   66SAPC  H14R 5477   2.303   1.531   7.822 -2.1969  2.6149  0.3491
   66SAPC  C215 5478   2.425   1.612   7.972 -0.0353  0.1843 -0.6082
   66SAPC  H15R 5479   2.383   1.537   8.040  0.3380 -1.0194 -1.6753
   66SAPC  C216 5480   2.532   1.703   8.024 -0.5401 -0.2957 -0.5735
   66SAPC  H16R 5481   2.492   1.785   8.088 -0.0243  0.5311 -1.2825
   66SAPC  H16S 5482   2.594   1.760   7.951 -0.6311  0.2434 -0.2350
   66SAPC  C217 5483   2.628   1.632   8.119  0.0279  0.0388  0.6071
   66SAPC  H17R 5484   2.702   1.712   8.141 -0.2491  0.2609  0.7366
   66SAPC  H17S 5485   2.684   1.558   8.057 -0.7699  1.2900 -1.6954
   66SAPC  C218 5486   2.565   1.561   8.237 -0.1786 -0.3733 -0.4673
   66SAPC  H18R 5487   2.650   1.518   8.295  0.6373  0.7963 -0.7642
   66SAPC  H18S 5488   2.495   1.487   8.192 -2.2749  1.9800 -1.2583
   66SAPC  C219 5489   2.472   1.653   8.319 -0.8911 -0.8869  0.5599
   66SAPC  H19R 5490   2.383   1.684   8.260 -0.7803 -0.2555  0.7220
   66SAPC  H19S 5491   2.530   1.743   8.348 -0.8170  0.3882 -3.0608
   66SAPC  C220 5492   2.418   1.589   8.453  0.1541  0.3195  0.0497
   66SAPC  H20R 5493   2.345   1.648   8.513  0.5002 -0.5590  1.3876
   66SAPC  H20S 5494   2.502   1.575   8.525 -0.5650  2.1415  1.3022
   66SAPC  H20T 5495   2.373   1.492   8.424 -0.4802  0.7871 -0.5660
   66SAPC   C33 5496   2.241   2.503   6.702  0.8951  0.2791 -0.0292
   66SAPC   H3X 5497   2.216   2.599   6.651  0.5944  1.1310  1.6458
   66SAPC   H3Y 5498   2.353   2.504   6.699  0.9175 -0.1685  0.5942
   66SAPC   C34 5499   2.210   2.529   6.850 -0.1795  0.0542 -1.3681
   66SAPC   H4X 5500   2.233   2.434   6.903 -0.0958 -0.0725 -1.6327
   66SAPC   H4Y 5501   2.109   2.570   6.870 -0.4232  0.2061 -2.8153
   66SAPC   C35 5502   2.303   2.640   6.907 -0.7296 -0.5413  0.0110
   66SAPC   H5X 5503   2.277   2.726   6.843  0.3670  1.2498  1.8602
   66SAPC   H5Y 5504   2.413   2.631   6.902 -0.4845  1.6963  0.3296
   66SAPC   C36 5505   2.259   2.683   7.047  0.6619 -0.5349  0.3081
   66SAPC   H6X 5506   2.148   2.690   7.041  0.7189  0.4684  0.3392
   66SAPC   H6Y 5507   2.293   2.788   7.062 -2.0891  0.5551 -0.3792
   66SAPC   C37 5508   2.325   2.590   7.152  0.2096  0.4006 -0.4194
   66SAPC   H7X 5509   2.433   2.615   7.152  0.4060 -0.2307  1.7388
   66SAPC   H7Y 5510   2.315   2.485   7.117 -1.4969  0.2245  0.4869
   66SAPC   C38 5511   2.266   2.613   7.298 -0.3441 -0.0110 -0.0399
   66SAPC   H8X 5512   2.160   2.581   7.305  0.3002 -2.2912  0.0032
   66SAPC   H8Y 5513   2.279   2.723   7.308  2.4258 -0.2944  0.3135
   66SAPC   C39 5514   2.339   2.538   7.412 -0.1133  0.3538 -0.9176
   66SAPC   H9X 5515   2.443   2.578   7.416  0.1685 -0.4897  1.7594
   66SAPC   H9Y 5516   2.335   2.427   7.408  2.6191  0.0399  1.5685
   66SAPC  C310 5517   2.286   2.582   7.547  0.3316  0.4840  0.1423
   66SAPC  H10X 5518   2.195   2.530   7.583 -0.8258  2.1910 -0.1971
   66SAPC  H10Y 5519   2.269   2.692   7.542  0.9539  0.5921  0.2698
   66SAPC  C311 5520   2.399   2.566   7.651  0.2051  0.3865 -0.6305
   66SAPC  H11X 5521   2.488   2.629   7.629 -0.7934  1.4482 -1.7619
   66SAPC  H11Y 5522   2.437   2.463   7.637 -0.2766 -0.3572  2.7224
   66SAPC  C312 5523   2.363   2.582   7.805 -0.3699  0.2158  1.1116
   66SAPC  H12X 5524   2.262   2.543   7.826  0.1772 -2.5072 -0.7570
   66SAPC  H12Y 5525   2.358   2.692   7.818 -1.5630  0.5902 -1.8162
   66SAPC  C313 5526   2.443   2.502   7.899 -0.4130 -0.0235 -0.8784
   66SAPC  H13X 5527   2.547   2.509   7.860 -0.2879  2.0208 -0.3157
   66SAPC  H13Y 5528   2.424   2.393   7.913 -1.5251  0.2765  0.0738
   66SAPC  C314 5529   2.434   2.552   8.037 -0.3638  0.1341 -0.0463
   66SAPC  H14X 5530   2.330   2.560   8.076 -0.3973 -0.6320  0.0306
   66SAPC  H14Y 5531   2.476   2.654   8.028  1.2620 -0.5874 -1.0853
   66SAPC  C315 5532   2.525   2.481   8.136 -0.4671  0.1770  0.1374
   66SAPC  H15X 5533   2.615   2.454   8.076 -1.2145 -0.4814 -0.7269
   66SAPC  H15Y 5534   2.477   2.386   8.168 -0.5117 -0.2321 -1.0627
   66SAPC  C316 5535   2.567   2.578   8.256  0.3312 -0.1384  0.5089
   66SAPC  H16X 5536   2.472   2.632   8.278  0.7667  0.9148 -0.1296
   66SAPC  H16Y 5537   2.633   2.659   8.218 -1.0402  0.8003  0.0459
   66SAPC  C317 5538   2.630   2.517   8.376  0.0580 -0.0874  0.4688
   66SAPC  H17X 5539   2.721   2.458   8.352  1.0046  1.0956  0.9773
   66SAPC  H17Y 5540   2.558   2.452   8.429 -1.2128  0.6297 -0.3435
   66SAPC  C318 5541   2.673   2.621   8.483  0.4163 -0.1924 -0.2564
   66SAPC  H18X 5542   2.736   2.568   8.558  1.9124  1.7045 -0.1025
   66SAPC  H18Y 5543   2.581   2.667   8.526  0.1184 -0.4190 -0.6420
   66SAPC  H18Z 5544   2.733   2.702   8.436  2.3117 -1.3281  0.0949
   67SAPC     N 5545   4.873   2.901   6.166 -0.2466  0.2296  0.6602
   67SAPC   C12 5546   4.759   2.841   6.249 -0.7892  0.6393 -0.4432
   67SAPC  H12A 5547   4.736   2.737   6.232 -0.2042  0.4154  0.1289
   67SAPC  H12B 5548   4.680   2.905   6.211 -0.2321  1.0839 -0.8619
   67SAPC   C13 5549   4.865   3.045   6.187 -0.0051 -0.4173 -0.8294
   67SAPC  H13A 5550   4.944   3.096   6.135  1.0385 -0.8107  0.3106
   67SAPC  H13B 5551   4.769   3.080   6.154 -0.0915  0.6564  0.4667
   67SAPC  H13C 5552   4.878   3.074   6.290  0.0379 -1.3666 -0.5509
   67SAPC   C14 5553   5.011   2.852   6.191  0.2031  0.0715 -0.2282
   67SAPC  H14A 5554   5.057   2.879   6.284  0.5153 -1.9726  0.2570
   67SAPC  H14B 5555   5.018   2.745   6.189  1.0029  0.0944  0.9049
   67SAPC  H14C 5556   5.083   2.895   6.124 -0.3614 -0.3096 -1.1027
   67SAPC   C15 5557   4.839   2.882   6.017 -0.0779  0.3753  0.1838
   67SAPC  H15A 5558   4.745   2.925   5.984 -0.3625 -0.9798 -0.8938
   67SAPC  H15B 5559   4.915   2.924   5.953 -2.4119  1.6234 -1.9446
   67SAPC  H15C 5560   4.825   2.777   5.994 -0.3826  0.4592 -0.0256
   67SAPC   C11 5561   4.770   2.870   6.404  0.1315  0.8237 -0.1189
   67SAPC  H11A 5562   4.875   2.852   6.434  0.2535 -0.1722 -1.0638
   67SAPC  H11B 5563   4.713   2.793   6.461  1.0305 -1.9994 -2.7418
   67SAPC     P 5564   4.576   3.053   6.417 -0.0654 -0.1039 -0.2286
   67SAPC   O13 5565   4.552   3.185   6.477  0.0195 -0.0370  0.1538
   67SAPC   O14 5566   4.541   3.042   6.271 -0.1668 -0.2407 -0.4160
   67SAPC   O12 5567   4.724   3.004   6.435  0.6721  0.6332  0.4325
   67SAPC   O11 5568   4.497   2.945   6.499  0.3794 -0.1469  0.3479
   67SAPC    C1 5569   4.432   2.972   6.620 -0.3112  0.0920  0.7777
   67SAPC    HA 5570   4.382   3.070   6.631  1.5218  0.8212  3.5754
   67SAPC    HB 5571   4.355   2.896   6.645 -1.4691  0.7003 -0.7481
   67SAPC    C2 5572   4.538   2.968   6.735 -0.4398 -0.1646 -1.0438
   67SAPC    HS 5573   4.595   3.063   6.726 -2.9675  1.6320  0.2308
   67SAPC   O21 5574   4.625   2.859   6.727  0.1028 -0.3606 -0.5141
   67SAPC   C21 5575   4.750   2.878   6.770 -0.3140  0.6683 -0.1088
   67SAPC   O22 5576   4.800   2.977   6.820  0.0542 -0.1587 -0.1121
   67SAPC   C22 5577   4.826   2.755   6.745  0.5430  0.3756  0.1657
   67SAPC   H2R 5578   4.768   2.694   6.673  1.2534 -1.5127  1.1126
   67SAPC   H2S 5579   4.917   2.795   6.696  0.4814  3.2998  2.2332
   67SAPC    C3 5580   4.466   2.968   6.871  0.2759  0.1317 -0.2149
   67SAPC    HX 5581   4.421   2.869   6.890  0.1938  0.1188 -0.4742
   67SAPC    HY 5582   4.382   3.041   6.865 -2.5388 -2.9191 -0.3889
   67SAPC   O31 5583   4.560   3.010   6.980  0.2656  0.2119 -0.3818
   67SAPC   C31 5584   4.565   3.133   7.020  0.0283  0.6099 -0.1477
   67SAPC   O32 5585   4.487   3.225   6.990 -0.3433 -0.0517  0.2995
   67SAPC   C32 5586   4.686   3.151   7.127 -0.1453  0.4115 -0.6505
   67SAPC   H2X 5587   4.648   3.223   7.202  1.8511  0.3848  0.4739
   67SAPC   H2Y 5588   4.773   3.200   7.077  0.8305  0.5660  1.1423
   67SAPC   C23 5589   4.855   2.673   6.878 -0.4015  0.1070  0.8757
   67SAPC   H3R 5590   4.761   2.666   6.936 -0.7524 -0.5992  0.2518
   67SAPC   H3S 5591   4.935   2.722   6.938  0.0837 -1.1092  1.2567
   67SAPC   C24 5592   4.883   2.528   6.850  0.0705 -0.1808  0.1879
   67SAPC   H4R 5593   4.810   2.492   6.775 -0.7946  0.6166  0.6314
   67SAPC   H4S 5594   4.869   2.462   6.938 -1.5757  0.9241  0.7938
   67SAPC   C25 5595   5.030   2.506   6.811  0.3967 -0.5817 -1.3628
   67SAPC   H5R 5596   5.049   2.495   6.703 -0.7887 -1.6611 -1.4906
   67SAPC   C26 5597   5.140   2.494   6.895 -0.0513  0.1143 -0.1177
   67SAPC   H6R 5598   5.236   2.491   6.842 -0.4768  0.7996 -0.9626
   67SAPC   C27 5599   5.149   2.496   7.046  0.0398 -0.4467  0.1670
   67SAPC   H7R 5600   5.053   2.538   7.083 -0.5956 -0.0087 -1.8554
   67SAPC   H7S 5601   5.230   2.561   7.085  1.0639 -0.6454 -1.5683
   67SAPC   C28 5602   5.166   2.358   7.108 -0.0036  0.4737 -0.6489
   67SAPC   H8R 5603   5.183   2.269   7.045  1.2374 -0.3356  0.7543
   67SAPC   C29 5604   5.189   2.335   7.240 -0.2956  0.4797 -0.7112
   67SAPC   H9R 5605   5.197   2.232   7.278 -3.6639  0.2662 -0.3122
   67SAPC  C210 5606   5.190   2.444   7.345  0.4225  0.3474  0.1998
   67SAPC  H10R 5607   5.153   2.541   7.307  1.3352  1.5177  2.1156
   67SAPC  H10S 5608   5.296   2.457   7.378  0.3695 -0.5551  0.7657
   67SAPC  C211 5609   5.102   2.406   7.463 -0.1905 -0.3021 -0.6731
   67SAPC  H11R 5610   4.997   2.408   7.430 -0.6904 -0.7237  0.7847
   67SAPC  C212 5611   5.136   2.370   7.591 -0.0216  0.8259 -0.1026
   67SAPC  H12R 5612   5.051   2.342   7.655 -2.5472  0.9825 -3.1641
   67SAPC  C213 5613   5.274   2.347   7.642  0.0631  0.7404  0.0711
   67SAPC  H13R 5614   5.346   2.320   7.561 -1.8461 -1.1949 -1.1005
   67SAPC  H13S 5615   5.275   2.253   7.701 -2.3997  0.2735 -0.5331
   67SAPC  C214 5616   5.313   2.469   7.723  0.8757 -0.4827 -0.2665
   67SAPC  H14R 5617   5.383   2.536   7.671  0.0013  2.2561  1.8048
   67SAPC  C215 5618   5.298   2.482   7.854 -0.2161 -0.8595  0.4524
   67SAPC  H15R 5619   5.337   2.575   7.899 -0.1291 -0.0512 -1.2218
   67SAPC  C216 5620   5.226   2.389   7.952  0.2881  0.1887 -0.0899
   67SAPC  H16R 5621   5.163   2.320   7.892  1.0927  0.6918 -1.5541
   67SAPC  H16S 5622   5.148   2.433   8.019 -1.3379 -2.9605  0.2694
   67SAPC  C217 5623   5.322   2.305   8.040  0.9185 -0.1565 -0.2835
   67SAPC  H17R 5624   5.399   2.257   7.976  1.6456 -0.4566  0.7803
   67SAPC  H17S 5625   5.262   2.217   8.073  0.5359  0.1304 -0.2145
   67SAPC  C218 5626   5.374   2.381   8.163 -0.3627 -0.3212 -0.1441
   67SAPC  H18R 5627   5.302   2.391   8.247 -0.0459 -3.0943  0.5469
   67SAPC  H18S 5628   5.392   2.479   8.115  0.2602 -0.6021 -0.4932
   67SAPC  C219 5629   5.501   2.322   8.213 -0.0214 -0.5132 -0.0137
   67SAPC  H19R 5630   5.535   2.359   8.312  3.5325 -3.1754 -0.0257
   67SAPC  H19S 5631   5.582   2.332   8.137  0.2784 -0.1831  0.3445
   67SAPC  C220 5632   5.491   2.169   8.244  0.5195 -0.0129  0.0749
   67SAPC  H20R 5633   5.478   2.124   8.143  0.4128  2.8372 -1.2660
   67SAPC  H20S 5634   5.403   2.152   8.310  0.6927 -0.9363  0.0864
   67SAPC  H20T 5635   5.580   2.128   8.297  0.0420  0.6392  1.4257
   67SAPC   C33 5636   4.735   3.016   7.185  0.3462  0.0797 -0.1497
   67SAPC   H3X 5637   4.784   2.967   7.099  1.2548  4.2748 -2.2587
   67SAPC   H3Y 5638   4.660   2.947   7.229 -0.0889  1.6095  1.6999
   67SAPC   C34 5639   4.854   3.046   7.288 -0.8836  0.9096 -0.6027
   67SAPC   H4X 5640   4.923   3.126   7.255 -0.8947  0.6206 -1.3531
   67SAPC   H4Y 5641   4.907   2.948   7.291 -0.0077  1.4146  0.8864
   67SAPC   C35 5642   4.794   3.071   7.435 -0.5014  0.1690  0.7433
   67SAPC   H5X 5643   4.765   2.971   7.473  2.8264 -1.1256  0.2435
   67SAPC   H5Y 5644   4.708   3.141   7.426 -0.5671 -0.1926 -4.2444
   67SAPC   C36 5645   4.903   3.126   7.531 -0.0706  0.1910  0.5778
   67SAPC   H6X 5646   4.930   3.225   7.487 -0.2198  0.1037  0.2863
   67SAPC   H6Y 5647   4.983   3.049   7.525 -1.1413 -0.8446 -1.1486
   67SAPC   C37 5648   4.855   3.154   7.681  0.9032 -0.6321  0.5439
   67SAPC   H7X 5649   4.801   3.064   7.716 -0.5426  0.3182  0.8180
   67SAPC   H7Y 5650   4.785   3.238   7.661  2.6328  0.4425 -1.3929
   67SAPC   C38 5651   4.957   3.201   7.775  0.4283  0.2832  0.0700
   67SAPC   H8X 5652   5.000   3.301   7.752  1.4612 -0.1903 -0.1417
   67SAPC   H8Y 5653   5.048   3.137   7.765  1.6434  1.4810  2.4085
   67SAPC   C39 5654   4.903   3.197   7.914 -0.1181 -0.1361  0.9383
   67SAPC   H9X 5655   4.876   3.091   7.933  1.0323 -0.7233 -0.5366
   67SAPC   H9Y 5656   4.811   3.259   7.909 -1.3208 -1.9050  0.0261
   67SAPC  C310 5657   5.003   3.246   8.017  0.5639 -0.8012 -0.0364
   67SAPC  H10X 5658   5.041   3.343   7.981 -0.4131 -1.0304 -1.7823
   67SAPC  H10Y 5659   5.085   3.172   8.026  0.8564 -0.5001 -0.2131
   67SAPC  C311 5660   4.943   3.285   8.156 -0.6543  0.7567 -0.0772
   67SAPC  H11X 5661   4.848   3.337   8.132 -2.0309 -0.9509  1.3357
   67SAPC  H11Y 5662   5.004   3.361   8.209 -0.2914 -0.3426  1.1282
   67SAPC  C312 5663   4.913   3.164   8.241 -0.1556  0.5363 -0.3038
   67SAPC  H12X 5664   4.850   3.090   8.186 -0.6317  1.5325 -1.1218
   67SAPC  H12Y 5665   4.871   3.198   8.338  2.6472  0.6706  0.9475
   67SAPC  C313 5666   5.041   3.084   8.283 -0.2175 -0.6590  0.0787
   67SAPC  H13X 5667   5.120   3.159   8.305  0.3813 -1.3526  0.3771
   67SAPC  H13Y 5668   5.071   3.035   8.187  1.7314 -0.1794  0.4007
   67SAPC  C314 5669   5.031   2.976   8.387  0.5110 -0.8329 -0.4405
   67SAPC  H14X 5670   4.936   2.920   8.367  0.3946 -0.1823 -1.8581
   67SAPC  H14Y 5671   5.019   3.028   8.484  0.5991  0.9879 -1.3686
   67SAPC  C315 5672   5.157   2.886   8.406 -0.0292 -0.3646 -0.3069
   67SAPC  H15X 5673   5.229   2.956   8.453 -1.1099  1.8620 -1.7814
   67SAPC  H15Y 5674   5.184   2.855   8.303  1.6050  0.0692 -0.0309
   67SAPC  C316 5675   5.133   2.767   8.501  0.2426 -0.5833 -0.0947
   67SAPC  H16X 5676   5.098   2.686   8.433 -1.2493  0.5395 -0.7160
   67SAPC  H16Y 5677   5.056   2.800   8.574 -0.9982 -0.1564 -1.5347
   67SAPC  C317 5678   5.266   2.743   8.568  0.3577 -0.4170  0.3972
   67SAPC  H17X 5679   5.240   2.666   8.644 -1.7859  0.0128  0.1389
   67SAPC  H17Y 5680   5.292   2.831   8.630  0.8469  0.1641 -0.6080
   67SAPC  C318 5681   5.391   2.703   8.478 -0.4451  0.1924  0.0451
   67SAPC  H18X 5682   5.418   2.765   8.390 -0.6308  1.2602  0.7201
   67SAPC  H18Y 5683   5.370   2.598   8.452  3.0355 -0.6851  0.3071
   67SAPC  H18Z 5684   5.479   2.705   8.546 -1.7907  1.8551  1.8904
   68SAPC     N 5685   3.733   1.242   6.061  0.2994  0.9112 -0.4831
   68SAPC   C12 5686   3.687   1.386   6.028  0.4057  0.4975 -0.0549
   68SAPC  H12A 5687   3.583   1.392   6.059  0.7430 -1.4229  1.6638
   68SAPC  H12B 5688   3.684   1.401   5.921 -1.8336  0.2697 -0.0810
   68SAPC   C13 5689   3.868   1.210   6.026 -0.2918 -0.1077  0.5157
   68SAPC  H13A 5690   3.926   1.252   6.108 -2.9495  3.8109  0.6667
   68SAPC  H13B 5691   3.891   1.104   6.025  2.6621  0.4241 -1.4258
   68SAPC  H13C 5692   3.906   1.257   5.937  2.9856 -1.2517  1.1664
   68SAPC   C14 5693   3.704   1.196   6.203 -1.1160 -0.0588  0.0848
   68SAPC  H14A 5694   3.791   1.217   6.264 -0.4013  0.2100 -1.0072
   68SAPC  H14B 5695   3.608   1.238   6.230 -0.3139  0.8626  1.6078
   68SAPC  H14C 5696   3.696   1.088   6.210  0.4527 -0.1552  0.8718
   68SAPC   C15 5697   3.632   1.155   5.976 -0.2924  0.2066 -0.7140
   68SAPC  H15A 5698   3.671   1.054   5.977 -2.1888 -0.5746 -0.1804
   68SAPC  H15B 5699   3.529   1.161   6.007  0.5720  0.5224  2.5393
   68SAPC  H15C 5700   3.627   1.191   5.875  2.3605  3.4084  0.1291
   68SAPC   C11 5701   3.764   1.506   6.090 -0.6916  0.0124  0.2445
   68SAPC  H11A 5702   3.711   1.597   6.056 -2.0143 -0.9574 -0.3777
   68SAPC  H11B 5703   3.861   1.505   6.038 -1.1510 -0.6517 -0.6290
   68SAPC     P 5704   3.653   1.565   6.316  0.3925  0.3864 -0.2813
   68SAPC   O13 5705   3.696   1.707   6.312 -0.4203  0.4141 -1.3312
   68SAPC   O14 5706   3.522   1.526   6.264  0.1012  0.0061  0.4121
   68SAPC   O12 5707   3.766   1.490   6.234 -0.0860 -0.4695 -1.0394
   68SAPC   O11 5708   3.680   1.499   6.458  0.1090  0.4212 -0.3540
   68SAPC    C1 5709   3.800   1.440   6.500 -0.2930  0.1293 -0.4407
   68SAPC    HA 5710   3.783   1.331   6.487 -0.2382 -0.0110  0.5899
   68SAPC    HB 5711   3.893   1.470   6.447  1.8207 -0.1034  2.8827
   68SAPC    C2 5712   3.826   1.455   6.663 -0.4010 -0.5759  0.4636
   68SAPC    HS 5713   3.926   1.411   6.681 -0.1211  0.3649  1.2954
   68SAPC   O21 5714   3.718   1.392   6.736 -0.1165  0.1513  0.0067
   68SAPC   C21 5715   3.723   1.259   6.751  0.5230 -0.7385 -0.4163
   68SAPC   O22 5716   3.826   1.193   6.728 -0.3023  0.0621 -1.1110
   68SAPC   C22 5717   3.598   1.214   6.824  0.1392  0.1623  0.3940
   68SAPC   H2R 5718   3.525   1.296   6.836 -0.0827  0.1451 -0.7255
   68SAPC   H2S 5719   3.551   1.125   6.777  1.5393 -0.1605 -0.4269
   68SAPC    C3 5720   3.826   1.604   6.701  0.2871 -0.6888  0.1062
   68SAPC    HX 5721   3.729   1.656   6.714  1.1415  0.7601  0.9887
   68SAPC    HY 5722   3.873   1.668   6.623  2.0861 -3.0907 -0.9026
   68SAPC   O31 5723   3.888   1.619   6.834  0.4170  0.5088  0.1837
   68SAPC   C31 5724   4.010   1.671   6.849  0.1526 -0.2720  0.2447
   68SAPC   O32 5725   4.077   1.710   6.753 -0.1585 -0.2504 -0.4573
   68SAPC   C32 5726   4.052   1.653   6.995 -0.6775 -0.2558 -0.0659
   68SAPC   H2X 5727   3.959   1.684   7.047  0.6797  2.9868  0.6739
   68SAPC   H2Y 5728   4.120   1.736   7.027  2.5553 -2.0451 -1.7267
   68SAPC   C23 5729   3.658   1.168   6.958 -0.4068  0.0869 -0.2696
   68SAPC   H3R 5730   3.733   1.087   6.943 -0.6383 -0.1186 -0.3353
   68SAPC   H3S 5731   3.585   1.110   7.018 -0.1594  1.2121  1.1775
   68SAPC   C24 5732   3.715   1.265   7.053  0.6996 -0.6070 -0.3453
   68SAPC   H4R 5733   3.781   1.328   6.990  3.4158 -1.4694  1.4707
   68SAPC   H4S 5734   3.787   1.211   7.117 -0.9558 -1.2691  1.0415
   68SAPC   C25 5735   3.608   1.341   7.141  0.0802 -0.0500  0.7623
   68SAPC   H5R 5736   3.521   1.381   7.087 -1.1970 -1.3345  1.8195
   68SAPC   C26 5737   3.606   1.365   7.270  0.0860  0.5656  0.1420
   68SAPC   H6R 5738   3.514   1.410   7.312 -0.5186  0.6606 -1.2244
   68SAPC   C27 5739   3.704   1.332   7.376 -0.0295 -0.1443  0.5346
   68SAPC   H7R 5740   3.647   1.354   7.469 -0.9909  1.6744 -0.4234
   68SAPC   H7S 5741   3.764   1.426   7.373 -0.2575  0.0350 -3.0905
   68SAPC   C28 5742   3.788   1.210   7.378 -0.2206  0.1397  0.2364
   68SAPC   H8R 5743   3.870   1.206   7.305 -1.5062  1.0111 -1.3205
   68SAPC   C29 5744   3.771   1.109   7.462 -0.1697  0.4617 -0.0054
   68SAPC   H9R 5745   3.839   1.022   7.460  0.1881  0.7513 -2.0735
   68SAPC  C210 5746   3.659   1.093   7.565 -0.4257  0.6422  0.0503
   68SAPC  H10R 5747   3.652   0.985   7.587 -1.4264  0.0767 -2.5909
   68SAPC  H10S 5748   3.564   1.128   7.518 -0.8275  1.5652  1.4830
   68SAPC  C211 5749   3.663   1.190   7.680 -0.0265  0.4603  0.3909
   68SAPC  H11R 5750   3.693   1.290   7.646 -0.1040 -0.4349 -2.5262
   68SAPC  C212 5751   3.641   1.167   7.812 -0.1288  0.2753 -0.0303
   68SAPC  H12R 5752   3.661   1.245   7.888  1.8387 -0.3113  0.1058
   68SAPC  C213 5753   3.610   1.034   7.878  0.7897 -0.7187 -0.8579
   68SAPC  H13R 5754   3.700   0.968   7.884  0.1661 -1.5944 -0.8944
   68SAPC  H13S 5755   3.529   0.977   7.828  1.0891 -1.8306 -0.1140
   68SAPC  C214 5756   3.561   1.048   8.023 -0.2443 -0.0925 -0.2102
   68SAPC  H14R 5757   3.453   1.028   8.031 -0.4175 -0.4292 -2.6559
   68SAPC  C215 5758   3.635   1.076   8.130 -0.5433  0.6670  0.0680
   68SAPC  H15R 5759   3.603   1.066   8.235  0.5869 -2.5317  0.2141
   68SAPC  C216 5760   3.786   1.111   8.127  0.0505 -0.2643  0.3102
   68SAPC  H16R 5761   3.786   1.204   8.188  0.0515 -0.4673  0.6222
   68SAPC  H16S 5762   3.821   1.145   8.027 -0.1523 -1.3309 -0.1429
   68SAPC  C217 5763   3.887   1.012   8.201  0.7568  0.0721 -0.2344
   68SAPC  H17R 5764   3.850   0.980   8.301 -0.3860  0.2588 -0.5918
   68SAPC  H17S 5765   3.989   1.055   8.215  1.3859 -1.5231  0.2934
   68SAPC  C218 5766   3.918   0.882   8.124 -0.5836 -0.4701  0.4103
   68SAPC  H18R 5767   3.958   0.914   8.025 -0.0856 -0.4334  0.6167
   68SAPC  H18S 5768   3.821   0.835   8.100 -1.3067  1.5930 -0.9419
   68SAPC  C219 5769   4.012   0.783   8.193  0.3235  1.2166 -0.1011
   68SAPC  H19R 5770   4.022   0.700   8.120  2.8800  2.2391 -1.0440
   68SAPC  H19S 5771   3.957   0.726   8.271  3.2391 -0.3275  0.9820
   68SAPC  C220 5772   4.163   0.815   8.212 -0.9355  0.1101  0.1927
   68SAPC  H20R 5773   4.179   0.899   8.282  2.5644  0.1366 -0.4302
   68SAPC  H20S 5774   4.217   0.838   8.117 -0.7227  1.0516  0.5390
   68SAPC  H20T 5775   4.217   0.733   8.264 -2.3467 -0.2657  1.1081
   68SAPC   C33 5776   4.111   1.511   7.044 -0.0051  0.1303 -0.0757
   68SAPC   H3X 5777   4.200   1.476   6.988 -1.9907 -0.0576 -3.3938
   68SAPC   H3Y 5778   4.035   1.431   7.027 -0.9820  0.4886  2.2025
   68SAPC   C34 5779   4.147   1.515   7.190 -0.0873 -0.1471 -0.1313
   68SAPC   H4X 5780   4.209   1.606   7.200 -0.7394  0.2122  0.8990
   68SAPC   H4Y 5781   4.219   1.435   7.217 -0.0801 -0.0326  0.2017
   68SAPC   C35 5782   4.021   1.508   7.280 -0.4614  0.3381 -0.0423
   68SAPC   H5X 5783   3.953   1.428   7.244  1.0848 -0.8661 -0.3860
   68SAPC   H5Y 5784   3.968   1.606   7.285  0.4224  0.7713  1.7541
   68SAPC   C36 5785   4.049   1.487   7.428 -0.5015  0.4882  0.1468
   68SAPC   H6X 5786   4.114   1.397   7.437 -1.5300 -0.2983 -0.1532
   68SAPC   H6Y 5787   3.956   1.457   7.481  1.5661 -0.8356  3.3597
   68SAPC   C37 5788   4.122   1.609   7.501 -0.5950  0.5186 -0.9126
   68SAPC   H7X 5789   4.059   1.699   7.484 -0.2715  0.6936 -1.1946
   68SAPC   H7Y 5790   4.215   1.605   7.441 -2.2007 -2.1294 -3.5057
   68SAPC   C38 5791   4.161   1.592   7.645  0.2742  0.8635 -0.0029
   68SAPC   H8X 5792   4.199   1.690   7.680  0.6149  0.7059  0.0655
   68SAPC   H8Y 5793   4.244   1.522   7.666 -0.1188  0.8412  1.5859
   68SAPC   C39 5794   4.037   1.546   7.728 -0.5694 -0.2949 -0.3294
   68SAPC   H9X 5795   3.996   1.451   7.686 -3.7105  1.7207 -2.2534
   68SAPC   H9Y 5796   3.959   1.624   7.715  0.9077  1.2778 -0.0351
   68SAPC  C310 5797   4.060   1.536   7.878 -0.2821  0.3840 -0.3317
   68SAPC  H10X 5798   4.130   1.611   7.919 -0.8472 -0.3263  2.1088
   68SAPC  H10Y 5799   4.107   1.437   7.896 -2.4754 -0.5155  0.8000
   68SAPC  C311 5800   3.932   1.547   7.963  0.0435 -0.2327 -0.2887
   68SAPC  H11X 5801   3.866   1.463   7.929  1.5604 -1.6445  0.1235
   68SAPC  H11Y 5802   3.887   1.648   7.955 -0.6557 -0.6364 -2.2469
   68SAPC  C312 5803   3.973   1.531   8.113 -0.6214 -0.3040 -0.1739
   68SAPC  H12X 5804   4.044   1.610   8.145  1.3529 -0.8426 -2.8456
   68SAPC  H12Y 5805   4.030   1.436   8.121 -0.7161 -0.4858 -1.4173
   68SAPC  C313 5806   3.847   1.552   8.201 -0.1246 -0.1575 -0.6482
   68SAPC  H13X 5807   3.761   1.502   8.152 -3.0111  3.1491  0.6656
   68SAPC  H13Y 5808   3.819   1.658   8.219  1.0515  0.3109 -1.4242
   68SAPC  C314 5809   3.858   1.489   8.343 -0.3672  0.0854  0.6221
   68SAPC  H14X 5810   3.949   1.427   8.345 -0.6888 -0.4671 -0.6864
   68SAPC  H14Y 5811   3.769   1.427   8.364 -0.1332  0.1482  1.8426
   68SAPC  C315 5812   3.861   1.603   8.454  0.2910 -0.2620  0.5904
   68SAPC  H15X 5813   3.779   1.678   8.444 -0.5198 -0.3835  4.5920
   68SAPC  H15Y 5814   3.950   1.669   8.445 -1.9135  2.7225 -1.5789
   68SAPC  C316 5815   3.858   1.550   8.588 -0.0092  0.1698 -0.2191
   68SAPC  H16X 5816   3.925   1.463   8.604 -1.2593 -0.9706 -0.9984
   68SAPC  H16Y 5817   3.760   1.505   8.612  0.0746 -0.4949 -1.0876
   68SAPC  C317 5818   3.893   1.653   8.698  0.5668 -0.2958 -0.6795
   68SAPC  H17X 5819   3.961   1.735   8.664  2.0391 -1.4979 -0.7732
   68SAPC  H17Y 5820   3.949   1.607   8.782 -0.7521 -2.2220 -0.7897
   68SAPC  C318 5821   3.769   1.714   8.761 -0.4389  0.1837 -0.5176
   68SAPC  H18X 5822   3.791   1.792   8.837 -1.1177 -0.5168  0.4056
   68SAPC  H18Y 5823   3.708   1.637   8.812 -0.5885  0.1219 -0.7866
   68SAPC  H18Z 5824   3.712   1.754   8.674  0.6080  1.0142 -0.8519
   69SLPC     N 5825   1.316   3.275  10.963 -0.1860  0.1484  0.0598
   69SLPC   C13 5826   1.195   3.308  11.051  0.0980 -0.8503  0.2045
   69SLPC  H13A 5827   1.226   3.385  11.121 -1.3580 -0.3291  0.3205
   69SLPC  H13B 5828   1.104   3.335  11.000 -1.3690  0.5121  3.2784
   69SLPC  H13C 5829   1.170   3.219  11.108  2.7399 -1.1926  0.9545
   69SLPC   C14 5830   1.273   3.204  10.843  0.0955 -0.4023  0.2173
   69SLPC  H14A 5831   1.246   3.273  10.764 -0.6641 -2.2702 -1.2255
   69SLPC  H14B 5832   1.354   3.145  10.804  0.6074  0.1741  0.3820
   69SLPC  H14C 5833   1.196   3.129  10.854  0.1211 -0.6602 -1.1535
   69SLPC   C15 5834   1.402   3.183  11.053  0.0235 -0.4226  0.9283
   69SLPC  H15A 5835   1.439   3.242  11.136  0.8855 -0.2637  0.4395
   69SLPC  H15B 5836   1.345   3.100  11.092  0.5262 -0.4633  1.5950
   69SLPC  H15C 5837   1.491   3.146  11.004 -0.0576  1.7377 -1.0247
   69SLPC   C12 5838   1.406   3.401  10.934 -0.8641  0.5568 -0.2846
   69SLPC  H12A 5839   1.495   3.371  10.880 -1.1039 -0.5522 -0.0907
   69SLPC  H12B 5840   1.445   3.427  11.031  3.1020 -0.5120 -1.3931
   69SLPC   C11 5841   1.350   3.525  10.852 -0.1764  0.8944 -0.2207
   69SLPC  H11A 5842   1.303   3.481  10.761  0.8603  0.1332 -0.3998
   69SLPC  H11B 5843   1.439   3.585  10.823  0.6019  0.0104  0.2872
   69SLPC     P 5844   1.321   3.692  11.052  0.6266  0.4115  0.0831
   69SLPC   O13 5845   1.208   3.751  11.131  0.6353  0.7441 -0.4835
   69SLPC   O14 5846   1.420   3.616  11.128  0.0980 -0.0043 -0.5073
   69SLPC   O12 5847   1.255   3.595  10.941 -0.2616  0.2599  0.1927
   69SLPC   O11 5848   1.391   3.808  10.971 -0.1045  0.3507  0.4806
   69SLPC    C1 5849   1.319   3.917  10.925  0.2878 -0.0777  0.0176
   69SLPC    HA 5850   1.270   3.959  11.015  0.3602 -1.5068  0.7576
   69SLPC    HB 5851   1.399   3.991  10.902  0.2960  0.5597  1.9448
   69SLPC    C2 5852   1.232   3.884  10.803 -0.8469  0.3169 -0.1677
   69SLPC    HS 5853   1.185   3.787  10.833 -1.9485  0.6889 -0.6539
   69SLPC   O21 5854   1.320   3.868  10.688  0.5247 -0.0316  0.2964
   69SLPC   C21 5855   1.263   3.811  10.582  0.7183  0.2827  0.3927
   69SLPC   O22 5856   1.159   3.749  10.588 -0.9240 -0.9249  0.2187
   69SLPC   C22 5857   1.355   3.817  10.456 -0.4523 -0.2467  1.0579
   69SLPC   H2R 5858   1.380   3.925  10.447 -1.4729 -0.1474 -1.0734
   69SLPC   H2S 5859   1.441   3.763  10.502  1.3787  0.8795 -0.8224
   69SLPC    C3 5860   1.125   3.995  10.785 -0.6174  0.2725 -0.4568
   69SLPC    HX 5861   1.179   4.079  10.737 -0.6269 -0.6635 -2.1636
   69SLPC    HY 5862   1.104   4.036  10.886 -0.2122  0.8025 -0.5847
   69SLPC   O31 5863   1.007   3.961  10.712  0.6898 -0.0582  0.0112
   69SLPC   C31 5864   0.936   3.862  10.764 -0.0389 -0.9368 -0.0515
   69SLPC   O32 5865   0.950   3.822  10.880  0.0926  0.1335  0.3456
   69SLPC   C32 5866   0.824   3.825  10.659 -0.4002 -0.0195  0.2931
   69SLPC   H2X 5867   0.744   3.901  10.673 -0.1264  0.1101  1.2528
   69SLPC   H2Y 5868   0.778   3.728  10.689 -0.8270 -0.0467 -0.4351
   69SLPC   C23 5869   1.296   3.753  10.333  0.4087 -0.0166  0.2295
   69SLPC   H3R 5870   1.217   3.821  10.294 -1.6427 -3.3274 -1.9010
   69SLPC   H3S 5871   1.255   3.652  10.354 -0.4736  0.3730  0.4592
   69SLPC   C24 5872   1.408   3.738  10.224  0.0879 -0.4405 -0.7533
   69SLPC   H4R 5873   1.405   3.631  10.196  4.1979 -1.5506  2.0264
   69SLPC   H4S 5874   1.511   3.750  10.266 -0.0705  0.3036 -0.5514
   69SLPC   C25 5875   1.392   3.844  10.111  0.2034  0.5538  0.3210
   69SLPC   H5R 5876   1.428   3.937  10.161 -0.9244  0.6350  1.0214
   69SLPC   H5S 5877   1.282   3.845  10.091 -0.1309 -1.7551  1.7166
   69SLPC   C26 5878   1.476   3.819   9.985 -0.1891 -0.1722  0.1491
   69SLPC   H6R 5879   1.441   3.716   9.963 -1.1020  0.5778 -2.2641
   69SLPC   H6S 5880   1.584   3.816  10.010 -0.2009 -1.6514  0.1101
   69SLPC   C27 5881   1.437   3.908   9.863  0.5225  0.0453 -0.1712
   69SLPC   H7R 5882   1.520   3.961   9.812  1.5255  0.0457  1.3971
   69SLPC   H7S 5883   1.370   3.991   9.894  0.2045 -0.1715 -0.2758
   69SLPC   C28 5884   1.365   3.833   9.753 -0.1397 -0.3059 -0.0080
   69SLPC   H8R 5885   1.307   3.903   9.689  0.4116  0.4217  0.2783
   69SLPC   H8S 5886   1.281   3.775   9.796  1.5662 -1.4169  1.9789
   69SLPC   C29 5887   1.440   3.738   9.669 -0.1216 -0.1423  0.6167
   69SLPC   H9R 5888   1.522   3.674   9.704  2.3676  2.2848 -0.3887
   69SLPC  C210 5889   1.432   3.726   9.532 -0.4767 -0.3272 -0.0857
   69SLPC  H10R 5890   1.508   3.671   9.475 -0.8055  0.7508 -1.6618
   69SLPC  C211 5891   1.347   3.808   9.440  0.9602  0.1966 -0.3108
   69SLPC  H11R 5892   1.265   3.864   9.491 -0.4755 -0.9898 -1.2470
   69SLPC  H11S 5893   1.286   3.732   9.387  0.2232  1.5504 -1.4629
   69SLPC  C212 5894   1.429   3.892   9.345  0.1451  0.6975 -0.0583
   69SLPC  H12R 5895   1.485   3.969   9.400 -1.6292  0.8238  1.6740
   69SLPC  C213 5896   1.435   3.876   9.214 -0.1119  0.4005 -0.4895
   69SLPC  H13R 5897   1.480   3.954   9.151  3.8629  0.0732  1.6835
   69SLPC  C214 5898   1.372   3.772   9.130 -0.1171  0.1121  0.2944
   69SLPC  H14R 5899   1.361   3.676   9.185  0.9637 -1.1493 -1.6033
   69SLPC  H14S 5900   1.450   3.753   9.054  0.5261  3.8930 -0.1642
   69SLPC  C215 5901   1.241   3.822   9.067 -0.3007  0.3275 -0.1468
   69SLPC  H15R 5902   1.253   3.922   9.022  0.2373 -0.0552 -0.8657
   69SLPC  H15S 5903   1.154   3.823   9.137 -1.0357 -1.6272 -0.9462
   69SLPC  C216 5904   1.182   3.732   8.956 -0.4979 -0.1768 -0.2552
   69SLPC  H16R 5905   1.173   3.629   8.998 -0.3687  0.6056  1.7930
   69SLPC  H16S 5906   1.261   3.728   8.878  1.6991 -0.9025  1.8802
   69SLPC  C217 5907   1.052   3.787   8.903  0.3594  0.3904 -0.2801
   69SLPC  H17R 5908   1.056   3.896   8.884 -1.8030  0.2970 -1.7108
   69SLPC  H17S 5909   0.972   3.768   8.978 -2.0751  1.7332 -2.3401
   69SLPC  C218 5910   1.004   3.723   8.776 -0.3814 -0.2108 -0.1748
   69SLPC  H18R 5911   0.894   3.733   8.761 -0.1779  0.5983 -1.1641
   69SLPC  H18S 5912   1.020   3.613   8.774 -2.4948 -0.5561 -0.7552
   69SLPC  H18T 5913   1.049   3.774   8.689 -1.2250  0.7972 -0.0418
   69SLPC   C33 5914   0.872   3.811  10.518  0.4778 -0.0290  0.5636
   69SLPC   H3X 5915   0.934   3.719  10.506 -1.5558 -1.9111  3.3263
   69SLPC   H3Y 5916   0.940   3.895  10.491  0.7948  0.6366  3.1984
   69SLPC   C34 5917   0.762   3.807  10.415  0.0254 -0.3780  0.4439
   69SLPC   H4X 5918   0.699   3.899  10.412  0.0001 -0.4261 -0.6788
   69SLPC   H4Y 5919   0.695   3.724  10.448 -1.3809  0.3117 -0.5608
   69SLPC   C35 5920   0.805   3.788  10.261  0.6666  0.2495 -0.2076
   69SLPC   H5X 5921   0.711   3.815  10.207  0.4702 -0.3939 -0.1950
   69SLPC   H5Y 5922   0.825   3.679  10.253 -0.8379 -0.4913  3.6554
   69SLPC   C36 5923   0.902   3.889  10.202 -0.6485  0.3972 -0.3177
   69SLPC   H6X 5924   0.971   3.911  10.286  0.2190 -0.9568 -0.6457
   69SLPC   H6Y 5925   0.850   3.984  10.177  2.3459  1.4976 -3.0262
   69SLPC   C37 5926   0.980   3.845  10.072  0.1342 -0.5839 -0.2354
   69SLPC   H7X 5927   1.018   3.742  10.086 -0.1465 -0.3704  2.4841
   69SLPC   H7Y 5928   1.063   3.916  10.055  0.1444 -0.7708 -1.0177
   69SLPC   C38 5929   0.894   3.837   9.944 -0.1577  0.1045  0.3452
   69SLPC   H8X 5930   0.862   3.936   9.905  1.2687  0.1184 -0.8797
   69SLPC   H8Y 5931   0.797   3.791   9.972 -0.1343 -1.1382 -1.4926
   69SLPC   C39 5932   0.970   3.765   9.835 -0.4864 -0.0419 -0.7826
   69SLPC   H9X 5933   1.036   3.686   9.876  2.4201  1.0835 -2.8922
   69SLPC   H9Y 5934   1.052   3.827   9.791 -0.7447  1.1602  0.3825
   69SLPC  C310 5935   0.882   3.714   9.718 -0.2605 -0.0582 -0.0121
   69SLPC  H10X 5936   0.848   3.803   9.662  0.2813  0.0769 -0.1305
   69SLPC  H10Y 5937   0.802   3.649   9.760 -2.5094  1.6481 -1.4494
   69SLPC  C311 5938   0.958   3.627   9.606  0.0434 -0.9587 -0.0157
   69SLPC  H11X 5939   1.002   3.532   9.644  0.6756  0.0971  2.1052
   69SLPC  H11Y 5940   1.047   3.687   9.575  0.9968 -2.5472 -0.4576
   69SLPC  C312 5941   0.865   3.604   9.489  0.6219 -0.5150 -0.4028
   69SLPC  H12X 5942   0.818   3.701   9.465  0.9014 -0.0424  0.8566
   69SLPC  H12Y 5943   0.775   3.547   9.520 -1.6511  3.5220  1.2323
   69SLPC  C313 5944   0.940   3.558   9.367  0.2923  0.0212  0.3056
   69SLPC  H13X 5945   1.036   3.615   9.368 -0.4416  1.2841  1.0080
   69SLPC  H13Y 5946   0.890   3.584   9.272  0.9254 -2.5338 -0.8058
   69SLPC  C314 5947   0.967   3.410   9.364 -0.0638  0.7423 -0.1544
   69SLPC  H14X 5948   0.867   3.361   9.362  0.2668 -0.2026  2.6818
   69SLPC  H14Y 5949   1.026   3.392   9.457  2.1407  2.1205 -1.2115
   69SLPC  C315 5950   1.041   3.352   9.244  0.2886  0.0670 -0.2767
   69SLPC  H15X 5951   1.142   3.396   9.238 -0.3733  1.6866 -0.0908
   69SLPC  H15Y 5952   0.998   3.395   9.151  1.3797  0.0999 -0.7828
   69SLPC  C316 5953   1.036   3.200   9.236 -0.0679 -0.7083 -0.1069
   69SLPC  H16X 5954   0.931   3.165   9.244 -0.4075  0.2961 -0.0337
   69SLPC  H16Y 5955   1.100   3.157   9.316  0.7430  1.8317  0.6903
   69SLPC  C317 5956   1.101   3.146   9.107 -0.3786  0.1395  0.2098
   69SLPC  H17X 5957   1.199   3.194   9.088 -0.5271  1.0941  1.6944
   69SLPC  H17Y 5958   1.027   3.182   9.033  0.3010  1.0299 -0.0575
   69SLPC  C318 5959   1.112   2.994   9.098 -0.4879 -0.0162 -0.5094
   69SLPC  H18X 5960   1.009   2.952   9.099 -0.6723  0.3918  1.5059
   69SLPC  H18Y 5961   1.179   2.944   9.171 -0.1615  1.4237  0.2095
   69SLPC  H18Z 5962   1.151   2.956   9.001  2.5790 -1.7845  1.2826
   70SLPC     N 5963   3.006   2.556  10.965 -0.7197  0.1003  0.1754
   70SLPC   C13 5964   2.964   2.551  11.108  0.4244 -0.1813 -0.7886
   70SLPC  H13A 5965   3.000   2.463  11.160  0.4926  0.7822  0.8632
   70SLPC  H13B 5966   2.986   2.639  11.166 -1.1455  0.0204 -0.4547
   70SLPC  H13C 5967   2.858   2.530  11.105 -0.0352  1.9819 -1.0297
   70SLPC   C14 5968   2.945   2.681  10.904  0.5937  0.4680 -0.4168
   70SLPC  H14A 5969   2.838   2.680  10.922  0.9231  2.3146  2.0705
   70SLPC  H14B 5970   2.986   2.773  10.942  2.3480 -0.9642  1.3615
   70SLPC  H14C 5971   2.967   2.685  10.798  2.1148 -1.3121 -0.2063
   70SLPC   C15 5972   2.961   2.433  10.897 -0.1388 -0.4153  0.3740
   70SLPC  H15A 5973   2.855   2.419  10.909 -0.4238  1.3578  0.2136
   70SLPC  H15B 5974   2.970   2.433  10.790  0.8495 -1.4696  0.4314
   70SLPC  H15C 5975   3.011   2.347  10.939 -1.5338 -1.2176  0.4383
   70SLPC   C12 5976   3.155   2.572  10.965 -0.7733 -1.0557 -0.2061
   70SLPC  H12A 5977   3.180   2.665  11.015  3.3244 -1.3613 -1.2562
   70SLPC  H12B 5978   3.193   2.589  10.865  0.5809  0.0391  0.4581
   70SLPC   C11 5979   3.244   2.466  11.031  0.0931 -0.2111  0.1210
   70SLPC  H11A 5980   3.225   2.373  10.973 -2.6641  0.2579  0.1571
   70SLPC  H11B 5981   3.210   2.455  11.136 -4.0492 -3.4075 -1.3109
   70SLPC     P 5982   3.481   2.485  10.913  0.3325  0.0246 -0.0889
   70SLPC   O13 5983   3.583   2.592  10.921 -0.1884  0.3463 -0.0933
   70SLPC   O14 5984   3.523   2.347  10.953 -0.4048  0.1714  0.0823
   70SLPC   O12 5985   3.375   2.529  11.026  0.2478  0.7019  0.0131
   70SLPC   O11 5986   3.390   2.502  10.786  0.3379  0.1731  0.6607
   70SLPC    C1 5987   3.344   2.382  10.708 -0.0639  0.1815 -0.4831
   70SLPC    HA 5988   3.298   2.307  10.775 -0.5009  0.4416 -0.4903
   70SLPC    HB 5989   3.266   2.418  10.638 -0.1089  0.5093 -0.2657
   70SLPC    C2 5990   3.449   2.304  10.636 -0.0670 -0.2953 -0.2358
   70SLPC    HS 5991   3.512   2.254  10.712  1.7474 -1.8577 -2.6544
   70SLPC   O21 5992   3.515   2.398  10.545 -0.2806  0.1505 -0.0218
   70SLPC   C21 5993   3.638   2.367  10.512  0.0979  0.0452  0.0542
   70SLPC   O22 5994   3.685   2.258  10.542 -0.0303 -0.0423  0.3030
   70SLPC   C22 5995   3.704   2.474  10.434 -0.6588  0.1124 -0.3950
   70SLPC   H2R 5996   3.651   2.570  10.452 -1.1878 -0.1955 -0.3116
   70SLPC   H2S 5997   3.811   2.488  10.462 -0.2709 -0.6992 -1.4068
   70SLPC    C3 5998   3.382   2.186  10.557  0.1279 -0.4284  0.7040
   70SLPC    HX 5999   3.325   2.116  10.621 -0.1647 -2.6521 -1.7808
   70SLPC    HY 6000   3.461   2.119  10.516 -0.0561  1.0295 -2.3818
   70SLPC   O31 6001   3.290   2.224  10.454  0.5942 -0.5759 -0.2744
   70SLPC   C31 6002   3.357   2.240  10.333 -0.5945 -0.5733  0.0422
   70SLPC   O32 6003   3.460   2.187  10.309 -0.3765  0.7668  0.5372
   70SLPC   C32 6004   3.283   2.328  10.240  0.1178 -0.6333  0.3407
   70SLPC   H2X 6005   3.359   2.379  10.177 -0.1861 -1.0869 -0.4044
   70SLPC   H2Y 6006   3.233   2.406  10.302 -0.5554  0.5112 -1.5682
   70SLPC   C23 6007   3.697   2.435  10.288  0.1408 -0.2591 -0.3169
   70SLPC   H3R 6008   3.591   2.419  10.257 -0.6829  2.0263  1.0587
   70SLPC   H3S 6009   3.753   2.340  10.276 -0.2675 -1.0668  3.1545
   70SLPC   C24 6010   3.762   2.548  10.213 -0.4849 -0.4609 -0.4544
   70SLPC   H4R 6011   3.859   2.581  10.256 -0.2897 -1.3768 -0.1775
   70SLPC   H4S 6012   3.690   2.632  10.225 -0.3989  0.0541 -2.9439
   70SLPC   C25 6013   3.792   2.537  10.064  0.4112 -0.3513 -0.7016
   70SLPC   H5R 6014   3.879   2.601  10.038 -0.0586 -0.2066 -1.9465
   70SLPC   H5S 6015   3.708   2.566   9.999 -2.6301 -3.6565  1.3907
   70SLPC   C26 6016   3.807   2.387  10.025  1.2342 -0.7859 -0.0007
   70SLPC   H6R 6017   3.706   2.341  10.028  0.4929  0.7970  0.2919
   70SLPC   H6S 6018   3.861   2.333  10.106  1.5411  2.0772  1.8807
   70SLPC   C27 6019   3.871   2.379   9.886 -0.2727 -0.3506  1.0200
   70SLPC   H7R 6020   3.976   2.407   9.911  0.2855 -0.1027 -1.3211
   70SLPC   H7S 6021   3.830   2.465   9.830  2.8288  0.6411  0.0681
   70SLPC   C28 6022   3.866   2.237   9.828  0.8485  0.2274  0.6821
   70SLPC   H8R 6023   3.761   2.201   9.826  0.6267  0.8812 -0.0979
   70SLPC   H8S 6024   3.923   2.158   9.880  0.8110 -2.3425 -2.7821
   70SLPC   C29 6025   3.932   2.235   9.689 -0.8206  0.3112  0.4065
   70SLPC   H9R 6026   4.041   2.233   9.705 -0.9798  1.8125  1.9631
   70SLPC  C210 6027   3.878   2.236   9.570 -0.4941  0.0204  0.5059
   70SLPC  H10R 6028   3.945   2.246   9.483  0.0739 -1.6868  0.7078
   70SLPC  C211 6029   3.725   2.241   9.535 -0.1259 -0.4545 -0.8591
   70SLPC  H11R 6030   3.697   2.326   9.469  0.2343  0.6179  0.3391
   70SLPC  H11S 6031   3.660   2.256   9.623  0.7276  2.1416 -0.5915
   70SLPC  C212 6032   3.690   2.109   9.470 -0.0440  0.0431 -0.3330
   70SLPC  H12R 6033   3.640   2.040   9.540  0.3045  0.7718  0.6598
   70SLPC  C213 6034   3.722   2.063   9.348  0.8728  0.2886  0.5777
   70SLPC  H13R 6035   3.685   1.963   9.321  0.3395  1.0828 -1.8768
   70SLPC  C214 6036   3.802   2.138   9.241  0.3457 -0.1261 -1.1193
   70SLPC  H14R 6037   3.876   2.205   9.289 -3.5738  2.9693  1.2687
   70SLPC  H14S 6038   3.739   2.215   9.191 -0.7442  1.8896  2.9108
   70SLPC  C215 6039   3.882   2.056   9.142 -0.9515  0.0381 -0.6472
   70SLPC  H15R 6040   3.940   1.980   9.199 -1.1800 -0.3935 -0.9855
   70SLPC  H15S 6041   3.964   2.116   9.096  1.2467 -2.4574 -0.2104
   70SLPC  C216 6042   3.792   1.994   9.032 -0.3017 -0.3539 -0.8348
   70SLPC  H16R 6043   3.723   1.921   9.078 -0.0692  0.9664  1.7911
   70SLPC  H16S 6044   3.847   1.948   8.947 -0.8887  0.0025 -1.4089
   70SLPC  C217 6045   3.703   2.093   8.965  0.4578  0.5178  0.7680
   70SLPC  H17R 6046   3.765   2.178   8.928 -1.2696  1.1102 -0.9003
   70SLPC  H17S 6047   3.627   2.131   9.037  0.0615  0.8295  0.1900
   70SLPC  C218 6048   3.628   2.035   8.844  0.2856 -0.8343  0.4115
   70SLPC  H18R 6049   3.561   1.949   8.864 -2.3548  0.6866 -1.3602
   70SLPC  H18S 6050   3.702   2.013   8.764  0.1371  0.2572 -0.0476
   70SLPC  H18T 6051   3.565   2.109   8.791  0.2631 -0.9664  0.2522
   70SLPC   C33 6052   3.178   2.256  10.146 -0.1518 -0.6777 -0.4160
   70SLPC   H3X 6053   3.104   2.332  10.115 -0.6244 -0.2602  1.5969
   70SLPC   H3Y 6054   3.131   2.170  10.200 -1.1458  0.8342  1.2166
   70SLPC   C34 6055   3.258   2.199  10.025 -0.5928  0.1120 -0.1781
   70SLPC   H4X 6056   3.205   2.122   9.965 -2.2741  1.8542 -1.0377
   70SLPC   H4Y 6057   3.344   2.140  10.061 -1.0662 -2.4821 -2.8950
   70SLPC   C35 6058   3.306   2.307   9.920 -0.1976  0.3442 -0.4245
   70SLPC   H5X 6059   3.366   2.383   9.974 -1.1683  0.3721  0.6339
   70SLPC   H5Y 6060   3.229   2.367   9.867 -0.6372  1.0025  0.9191
   70SLPC   C36 6061   3.396   2.239   9.810  1.0599  0.0693  0.2379
   70SLPC   H6X 6062   3.472   2.180   9.866  0.5511 -0.1956  0.6510
   70SLPC   H6Y 6063   3.457   2.311   9.751  2.8951 -0.1063  1.8026
   70SLPC   C37 6064   3.309   2.166   9.698 -0.8994 -0.5694 -0.1412
   70SLPC   H7X 6065   3.249   2.090   9.752  0.0623 -0.4452  1.1701
   70SLPC   H7Y 6066   3.385   2.117   9.633 -1.2898 -2.2997  0.6498
   70SLPC   C38 6067   3.199   2.247   9.631 -0.4199 -0.0365 -0.5441
   70SLPC   H8X 6068   3.233   2.349   9.604  1.6038 -0.0772  1.5371
   70SLPC   H8Y 6069   3.121   2.273   9.706  1.3382 -0.6536  1.6153
   70SLPC   C39 6070   3.134   2.185   9.509  0.0562  0.1486  0.6820
   70SLPC   H9X 6071   3.043   2.244   9.485  0.2849  0.2784  0.1076
   70SLPC   H9Y 6072   3.108   2.080   9.533 -0.0857 -0.1654 -0.7623
   70SLPC  C310 6073   3.216   2.192   9.383 -0.4203  0.3614  1.1958
   70SLPC  H10X 6074   3.312   2.145   9.415  0.1365  0.4891 -0.2079
   70SLPC  H10Y 6075   3.231   2.300   9.361  2.5197 -0.0033  0.9646
   70SLPC  C311 6076   3.162   2.107   9.269 -0.0095 -0.0627  0.7300
   70SLPC  H11X 6077   3.054   2.135   9.261  0.1854  0.3086 -5.3911
   70SLPC  H11Y 6078   3.160   1.999   9.296  0.1527 -0.0457  0.8078
   70SLPC  C312 6079   3.234   2.137   9.131  0.2193  0.7446 -0.2502
   70SLPC  H12X 6080   3.340   2.103   9.127  0.3521  1.1582 -0.2142
   70SLPC  H12Y 6081   3.234   2.246   9.113 -0.7548  0.6460 -0.9294
   70SLPC  C313 6082   3.163   2.068   9.014 -0.3980  0.9797 -0.8905
   70SLPC  H13X 6083   3.055   2.089   9.028 -0.5632  0.1939 -0.9706
   70SLPC  H13Y 6084   3.178   1.958   9.018  1.5214  1.2356  0.5551
   70SLPC  C314 6085   3.225   2.131   8.890  0.3358  0.7718  0.6358
   70SLPC  H14X 6086   3.332   2.102   8.896 -0.1376 -2.1011 -2.3659
   70SLPC  H14Y 6087   3.215   2.242   8.892 -2.3177  0.6083  2.2115
   70SLPC  C315 6088   3.153   2.089   8.763  0.5398  0.3108 -0.0538
   70SLPC  H15X 6089   3.045   2.105   8.785  0.5284  0.6209 -0.3068
   70SLPC  H15Y 6090   3.167   1.986   8.724 -0.5450 -0.1563  0.7497
   70SLPC  C316 6091   3.181   2.189   8.644 -0.1666 -0.2409  0.6134
   70SLPC  H16X 6092   3.290   2.194   8.622  0.2015  0.7079  2.4465
   70SLPC  H16Y 6093   3.149   2.291   8.675  0.4970 -0.2066  1.2195
   70SLPC  C317 6094   3.100   2.146   8.514  0.4973 -0.1223 -1.0142
   70SLPC  H17X 6095   2.992   2.156   8.539  0.5564 -0.9670 -0.3804
   70SLPC  H17Y 6096   3.131   2.041   8.493  0.8140  0.1642 -2.0266
   70SLPC  C318 6097   3.129   2.239   8.389  0.7726  0.3126  0.4913
   70SLPC  H18X 6098   3.112   2.344   8.421 -1.1796 -0.3509  1.8344
   70SLPC  H18Y 6099   3.055   2.215   8.310  0.4008  2.3790  0.1479
   70SLPC  H18Z 6100   3.236   2.230   8.363  0.3186  1.2477 -1.9474
   71SLPC     N 6101   1.952   1.859  11.071  0.2341 -0.1345  0.0428
   71SLPC   C13 6102   1.889   1.853  10.939 -0.5222 -0.0969  0.2592
   71SLPC  H13A 6103   1.792   1.806  10.930 -0.0104 -1.3350  0.9710
   71SLPC  H13B 6104   1.893   1.956  10.905 -3.0434  0.2907  0.9982
   71SLPC  H13C 6105   1.959   1.803  10.873 -2.5223 -1.9334 -0.5649
   71SLPC   C14 6106   1.958   1.725  11.132  0.0149  0.4188 -0.0745
   71SLPC  H14A 6107   2.020   1.663  11.070 -0.0507  0.2654  0.0131
   71SLPC  H14B 6108   2.005   1.728  11.229  1.2791  0.2314 -0.6705
   71SLPC  H14C 6109   1.861   1.677  11.131  0.2818 -0.4003  2.7357
   71SLPC   C15 6110   1.878   1.947  11.167 -0.3670  0.7506  0.2823
   71SLPC  H15A 6111   1.894   1.929  11.272  1.1183  0.1616 -0.0202
   71SLPC  H15B 6112   1.897   2.053  11.157 -1.3383  0.9660  0.5418
   71SLPC  H15C 6113   1.773   1.945  11.142 -0.3682  1.4545  0.2178
   71SLPC   C12 6114   2.098   1.910  11.057  0.2802 -0.6477  0.2049
   71SLPC  H12A 6115   2.146   1.925  11.153  1.4292  2.2247 -0.7079
   71SLPC  H12B 6116   2.096   2.009  11.015 -0.1784 -0.5675  0.4168
   71SLPC   C11 6117   2.190   1.830  10.961 -0.0187 -0.3093  0.1479
   71SLPC  H11A 6118   2.191   1.724  10.995  0.5332 -0.6442 -0.8658
   71SLPC  H11B 6119   2.286   1.885  10.977  0.2526 -1.4112  2.8878
   71SLPC     P 6120   2.188   1.948  10.723  0.2630 -0.4732  0.0170
   71SLPC   O13 6121   2.144   1.906  10.590  0.2012 -0.0880  0.6417
   71SLPC   O14 6122   2.151   2.079  10.768  0.2821 -0.2216  0.3675
   71SLPC   O12 6123   2.141   1.841  10.826 -0.0934 -0.1285 -0.1510
   71SLPC   O11 6124   2.342   1.934  10.732 -0.2692 -0.3797 -0.2421
   71SLPC    C1 6125   2.418   1.817  10.698 -0.4896 -0.2875 -0.4296
   71SLPC    HA 6126   2.451   1.757  10.786  1.1634 -1.3295 -1.7108
   71SLPC    HB 6127   2.357   1.741  10.647  0.1696 -0.3618 -1.1253
   71SLPC    C2 6128   2.548   1.843  10.611  0.2685 -1.2276 -0.5192
   71SLPC    HS 6129   2.626   1.900  10.665 -2.5527  2.3991  0.1395
   71SLPC   O21 6130   2.503   1.910  10.495 -0.0967 -0.0539 -0.4417
   71SLPC   C21 6131   2.523   2.032  10.492 -0.1509  0.6554  0.0461
   71SLPC   O22 6132   2.564   2.100  10.582  0.0534  0.4813 -0.4705
   71SLPC   C22 6133   2.464   2.096  10.363 -0.2928  0.1490  0.1992
   71SLPC   H2R 6134   2.376   2.155  10.396  0.3680 -0.1453  2.6512
   71SLPC   H2S 6135   2.536   2.170  10.323  0.7289 -1.4841 -1.1155
   71SLPC    C3 6136   2.617   1.708  10.580 -0.3880  0.4187  0.3655
   71SLPC    HX 6137   2.637   1.674  10.684  0.7501  1.0846  0.3821
   71SLPC    HY 6138   2.719   1.723  10.539  0.6172 -1.6292  1.8889
   71SLPC   O31 6139   2.541   1.610  10.504  0.2743 -0.2074  0.1042
   71SLPC   C31 6140   2.529   1.652  10.380 -0.2921  0.2638  0.0394
   71SLPC   O32 6141   2.623   1.701  10.320  0.5974  0.4669 -0.1170
   71SLPC   C32 6142   2.392   1.640  10.314  0.3459  0.4462 -0.6147
   71SLPC   H2X 6143   2.358   1.746  10.316 -1.0102  0.0122  1.4293
   71SLPC   H2Y 6144   2.330   1.585  10.388  0.7490  0.2316 -0.4352
   71SLPC   C23 6145   2.417   2.001  10.247 -0.1059 -0.5516 -0.0148
   71SLPC   H3R 6146   2.323   1.948  10.274 -1.2701  1.8045  0.8852
   71SLPC   H3S 6147   2.502   1.931  10.232  1.0521  0.5677  1.0477
   71SLPC   C24 6148   2.404   2.061  10.100  0.1960 -0.0474 -0.5224
   71SLPC   H4R 6149   2.389   1.973  10.034 -1.4192  1.8988 -2.8609
   71SLPC   H4S 6150   2.490   2.119  10.060  1.4444 -1.0975  0.5132
   71SLPC   C25 6151   2.285   2.150  10.093  0.8592  0.7259  0.5016
   71SLPC   H5R 6152   2.290   2.240  10.159 -0.1865 -0.5052  2.3473
   71SLPC   H5S 6153   2.204   2.091  10.140  1.6756 -0.5084  0.3894
   71SLPC   C26 6154   2.249   2.201   9.949 -0.0651 -0.0564 -0.1928
   71SLPC   H6R 6155   2.172   2.281   9.957 -0.7002 -0.4477 -1.9660
   71SLPC   H6S 6156   2.200   2.130   9.880 -0.7462  1.3889 -1.2506
   71SLPC   C27 6157   2.361   2.259   9.869  0.2954 -0.1746 -0.4530
   71SLPC   H7R 6158   2.427   2.175   9.840  0.9126 -0.5564  1.8607
   71SLPC   H7S 6159   2.425   2.320   9.936  0.6217 -1.6866  0.6629
   71SLPC   C28 6160   2.320   2.347   9.753  0.3115 -0.1537  0.3615
   71SLPC   H8R 6161   2.413   2.392   9.712 -1.1858  2.4463 -0.3918
   71SLPC   H8S 6162   2.268   2.436   9.793  0.9806  1.0145 -1.2868
   71SLPC   C29 6163   2.239   2.277   9.647  0.4100 -0.3397 -0.2019
   71SLPC   H9R 6164   2.170   2.201   9.687  0.9677  0.2567  2.0867
   71SLPC  C210 6165   2.238   2.299   9.515  0.4258 -0.2033  0.3516
   71SLPC  H10R 6166   2.166   2.236   9.463 -0.5749  1.2891 -0.1323
   71SLPC  C211 6167   2.323   2.387   9.429 -0.4911  0.3093 -0.3151
   71SLPC  H11R 6168   2.289   2.354   9.329 -3.2844 -0.5296  0.7921
   71SLPC  H11S 6169   2.426   2.346   9.429 -0.5508  0.1570 -0.2485
   71SLPC  C212 6170   2.323   2.536   9.433 -0.9571 -0.1278 -0.2105
   71SLPC  H12R 6171   2.246   2.582   9.498 -1.5891  1.9982 -2.3401
   71SLPC  C213 6172   2.398   2.623   9.355  0.0020 -0.0884 -0.6655
   71SLPC  H13R 6173   2.377   2.728   9.377  3.4783  1.2345 -2.8611
   71SLPC  C214 6174   2.496   2.591   9.239 -0.1568 -0.4917  0.0606
   71SLPC  H14R 6175   2.532   2.487   9.254 -0.2487 -0.4278  0.7789
   71SLPC  H14S 6176   2.576   2.666   9.220  0.3113 -0.8380  0.6274
   71SLPC  C215 6177   2.421   2.569   9.099 -0.3276 -0.7488 -0.7490
   71SLPC  H15R 6178   2.367   2.664   9.079 -0.0206 -0.5497 -0.6474
   71SLPC  H15S 6179   2.355   2.480   9.102 -2.9269  1.0652  2.1272
   71SLPC  C216 6180   2.511   2.541   8.980  0.5984  0.3901 -0.3737
   71SLPC  H16R 6181   2.561   2.443   8.994  2.1935  1.0550 -1.2392
   71SLPC  H16S 6182   2.591   2.617   8.980 -0.6098  1.6992 -0.4405
   71SLPC  C217 6183   2.436   2.550   8.848  0.6146 -0.4216 -0.3504
   71SLPC  H17R 6184   2.361   2.468   8.840  1.2095 -0.9421 -0.6001
   71SLPC  H17S 6185   2.506   2.524   8.767  1.8254 -3.3970  1.4951
   71SLPC  C218 6186   2.375   2.689   8.821 -0.9062  0.2790  0.9371
   71SLPC  H18R 6187   2.450   2.768   8.845  0.5392 -1.5261  2.6054
   71SLPC  H18S 6188   2.275   2.713   8.861 -1.2665 -0.5959  0.5814
   71SLPC  H18T 6189   2.355   2.712   8.714 -1.4204  0.2132  1.0178
   71SLPC   C33 6190   2.395   1.572  10.170 -0.7860  0.1026 -0.2049
   71SLPC   H3X 6191   2.439   1.470  10.162 -1.1648  0.0314 -1.9209
   71SLPC   H3Y 6192   2.464   1.634  10.108 -0.0696 -3.0499 -2.8434
   71SLPC   C34 6193   2.257   1.567  10.109  0.7108 -0.2021  0.5262
   71SLPC   H4X 6194   2.223   1.672  10.094  3.0468  0.5097 -0.1911
   71SLPC   H4Y 6195   2.186   1.509  10.172 -0.0842  0.6263  0.4282
   71SLPC   C35 6196   2.258   1.498   9.973  0.9571  0.1908  0.6227
   71SLPC   H5X 6197   2.160   1.519   9.925  1.1279 -1.9641 -0.7819
   71SLPC   H5Y 6198   2.267   1.388   9.981  1.1998  0.1047 -0.6758
   71SLPC   C36 6199   2.375   1.546   9.871  0.0228 -0.0751 -0.7850
   71SLPC   H6X 6200   2.359   1.482   9.782 -1.4380 -0.7001 -0.1095
   71SLPC   H6Y 6201   2.473   1.530   9.921 -2.1392 -3.9250  2.8738
   71SLPC   C37 6202   2.356   1.685   9.818 -0.0429 -0.3244 -0.4459
   71SLPC   H7X 6203   2.422   1.750   9.880  1.2743 -0.9499 -1.1377
   71SLPC   H7Y 6204   2.249   1.713   9.828  0.3829  1.0921  0.5610
   71SLPC   C38 6205   2.395   1.697   9.668  0.5158 -0.0060 -0.0390
   71SLPC   H8X 6206   2.312   1.647   9.614  0.6117  0.6323 -0.8087
   71SLPC   H8Y 6207   2.491   1.649   9.641  0.7654  1.9068 -3.1075
   71SLPC   C39 6208   2.409   1.842   9.628  0.0166  0.2154  0.4947
   71SLPC   H9X 6209   2.505   1.885   9.666  1.4420 -1.7293 -0.7622
   71SLPC   H9Y 6210   2.323   1.898   9.670 -0.8086 -0.7345  0.0989
   71SLPC  C310 6211   2.397   1.856   9.469 -0.3993  0.0936 -0.1357
   71SLPC  H10X 6212   2.293   1.830   9.439 -0.4568  2.9782 -2.9466
   71SLPC  H10Y 6213   2.456   1.779   9.416 -1.2949 -0.3272 -0.5462
   71SLPC  C311 6214   2.435   1.997   9.404 -0.5699  0.9083 -0.0516
   71SLPC  H11X 6215   2.529   2.027   9.455  2.3070 -2.7440 -2.6626
   71SLPC  H11Y 6216   2.353   2.065   9.434 -0.7687  0.2884  0.8783
   71SLPC  C312 6217   2.458   1.993   9.254  0.6268  0.5960  0.1815
   71SLPC  H12X 6218   2.371   1.943   9.207  0.4391  0.4154  0.7176
   71SLPC  H12Y 6219   2.555   1.949   9.223 -1.4003 -2.8125 -1.8445
   71SLPC  C313 6220   2.443   2.131   9.191  0.4692 -0.1877  0.0425
   71SLPC  H13X 6221   2.512   2.206   9.234  3.3859 -1.8551 -1.4553
   71SLPC  H13Y 6222   2.342   2.162   9.225  0.0767 -1.0398 -0.3117
   71SLPC  C314 6223   2.446   2.132   9.037  0.9896  0.1594 -0.6925
   71SLPC  H14X 6224   2.400   2.227   9.001  0.4308 -0.7659 -2.5818
   71SLPC  H14Y 6225   2.380   2.053   8.996  0.1428  0.8379 -0.6651
   71SLPC  C315 6226   2.584   2.109   8.970 -0.0661  0.4700 -0.5053
   71SLPC  H15X 6227   2.619   2.014   9.015 -1.4869 -0.0264 -0.3865
   71SLPC  H15Y 6228   2.646   2.198   8.994 -1.1776  1.0724  0.2440
   71SLPC  C316 6229   2.576   2.108   8.818 -0.0092 -0.1484 -0.1952
   71SLPC  H16X 6230   2.550   2.204   8.767 -3.5241 -1.0817 -0.4573
   71SLPC  H16Y 6231   2.491   2.037   8.805  0.8977 -1.8409  2.4099
   71SLPC  C317 6232   2.710   2.063   8.764 -0.1438 -0.2004 -0.0076
   71SLPC  H17X 6233   2.746   1.973   8.820 -0.4480  0.5625  1.4674
   71SLPC  H17Y 6234   2.785   2.145   8.765 -1.5257  1.1473 -1.9446
   71SLPC  C318 6235   2.709   2.026   8.618  0.1597 -0.9929 -0.3614
   71SLPC  H18X 6236   2.803   1.970   8.598  0.6250 -0.1864 -0.4981
   71SLPC  H18Y 6237   2.695   2.114   8.552 -0.2964 -1.2780 -0.6488
   71SLPC  H18Z 6238   2.627   1.959   8.586  1.0166 -1.3248 -2.0000
   72SLPC     N 6239   3.152   0.625  11.075 -0.8193 -0.1083  0.0854
   72SLPC   C13 6240   3.204   0.579  11.209  0.0831  0.1018 -0.1397
   72SLPC  H13A 6241   3.150   0.497  11.254  0.3865 -0.8345 -1.4142
   72SLPC  H13B 6242   3.303   0.535  11.211 -0.0502 -0.2173  2.1860
   72SLPC  H13C 6243   3.210   0.658  11.282  1.7050  0.1928 -0.3184
   72SLPC   C14 6244   3.249   0.730  11.031  0.0653  0.7427 -0.4020
   72SLPC  H14A 6245   3.238   0.769  10.931 -1.0569 -1.8538 -1.4047
   72SLPC  H14B 6246   3.249   0.806  11.108  0.5444 -1.0664  1.4758
   72SLPC  H14C 6247   3.349   0.691  11.028 -0.9582 -2.1833 -0.5284
   72SLPC   C15 6248   3.022   0.691  11.105 -0.2478 -0.1271  0.3080
   72SLPC  H15A 6249   2.963   0.711  11.016 -0.9364 -0.3855  0.6997
   72SLPC  H15B 6250   2.971   0.619  11.167 -0.2307 -0.6667 -0.2989
   72SLPC  H15C 6251   3.027   0.773  11.175 -0.8071 -0.6924  1.0204
   72SLPC   C12 6252   3.143   0.515  10.976  0.0184  0.2994 -0.3999
   72SLPC  H12A 6253   3.084   0.554  10.894 -2.4835  1.4777  1.8079
   72SLPC  H12B 6254   3.078   0.436  11.011  0.5576 -0.9047 -1.9795
   72SLPC   C11 6255   3.276   0.459  10.935  0.0044 -0.2520 -0.2429
   72SLPC  H11A 6256   3.338   0.409  11.012 -1.6807 -1.3809  0.4454
   72SLPC  H11B 6257   3.349   0.535  10.901 -0.2278 -1.3944 -3.6743
   72SLPC     P 6258   3.193   0.238  10.838  0.0915  0.4056  0.3236
   72SLPC   O13 6259   3.286   0.160  10.922 -0.2009  0.3006  0.5110
   72SLPC   O14 6260   3.055   0.247  10.884  0.2316 -0.5719  0.3063
   72SLPC   O12 6261   3.253   0.381  10.816 -0.1055  0.1552 -0.5855
   72SLPC   O11 6262   3.189   0.180  10.690  0.2607 -0.3872  0.5706
   72SLPC    C1 6263   3.315   0.151  10.628  0.2493  0.2859 -0.1701
   72SLPC    HA 6264   3.373   0.242  10.605 -0.7731  1.1421  0.5649
   72SLPC    HB 6265   3.377   0.078  10.685 -0.4394 -1.3839 -1.4639
   72SLPC    C2 6266   3.283   0.081  10.489 -0.6804 -0.8227 -0.2357
   72SLPC    HS 6267   3.204   0.147  10.446 -1.0596 -1.4721 -0.5573
   72SLPC   O21 6268   3.221  -0.044  10.510  0.3271  1.0258 -0.0794
   72SLPC   C21 6269   3.122  -0.074  10.428  0.1704  0.3265  0.3919
   72SLPC   O22 6270   3.096  -0.010  10.324 -0.0496  0.4354  0.2142
   72SLPC   C22 6271   3.051  -0.202  10.469  0.4034 -0.4349 -1.1249
   72SLPC   H2R 6272   3.114  -0.293  10.479  0.1437 -0.3613  2.7092
   72SLPC   H2S 6273   3.012  -0.183  10.571  1.6081  1.0384 -0.8993
   72SLPC    C3 6274   3.407   0.071  10.396 -0.4634  0.3301 -0.2459
   72SLPC    HX 6275   3.469  -0.010  10.440 -0.5015 -0.8086 -2.1595
   72SLPC    HY 6276   3.472   0.159  10.412 -0.5640  0.0462  2.0464
   72SLPC   O31 6277   3.369   0.042  10.257  0.1322 -0.0384 -0.3000
   72SLPC   C31 6278   3.330   0.152  10.188  0.1008 -0.2142 -0.0103
   72SLPC   O32 6279   3.334   0.271  10.230 -0.1072 -0.1060  0.5071
   72SLPC   C32 6280   3.247   0.111  10.068 -0.6715 -0.0361 -0.3795
   72SLPC   H2X 6281   3.154   0.171  10.081  0.8672  2.1087  1.4118
   72SLPC   H2Y 6282   3.227   0.002  10.074 -0.7780 -0.0339 -0.6482
   72SLPC   C23 6283   2.928  -0.220  10.381  0.0583  0.6855 -0.3817
   72SLPC   H3R 6284   2.966  -0.255  10.282 -1.2335 -0.4582 -0.5020
   72SLPC   H3S 6285   2.870  -0.127  10.364 -0.3619  0.2934 -1.1396
   72SLPC   C24 6286   2.837  -0.336  10.436 -0.0895 -0.1961 -0.2737
   72SLPC   H4R 6287   2.788  -0.318  10.534 -1.5515 -0.2509 -0.9639
   72SLPC   H4S 6288   2.894  -0.429  10.457 -0.1665  0.2298  2.0236
   72SLPC   C25 6289   2.735  -0.360  10.337  0.0022 -0.1735  0.6953
   72SLPC   H5R 6290   2.687  -0.260  10.324  2.5483  1.2668  1.6468
   72SLPC   H5S 6291   2.670  -0.434  10.389 -1.8914  0.9984  0.1262
   72SLPC   C26 6292   2.790  -0.407  10.201 -0.3174  0.1787  0.3106
   72SLPC   H6R 6293   2.885  -0.465  10.209 -0.8035 -0.8760 -1.1599
   72SLPC   H6S 6294   2.801  -0.318  10.136  1.4950 -0.8763 -0.9164
   72SLPC   C27 6295   2.708  -0.521  10.132 -0.1765 -0.4169 -1.1559
   72SLPC   H7R 6296   2.604  -0.485  10.115 -0.0993  0.3349 -0.1381
   72SLPC   H7S 6297   2.704  -0.599  10.211 -0.4468 -0.0083 -0.7668
   72SLPC   C28 6298   2.764  -0.584  10.008 -0.0617 -0.2987 -0.0095
   72SLPC   H8R 6299   2.698  -0.664   9.969 -1.6978  0.5621  0.8784
   72SLPC   H8S 6300   2.862  -0.633  10.028 -1.1218 -3.4880 -2.0288
   72SLPC   C29 6301   2.791  -0.493   9.891  0.0849 -0.6087 -0.0211
   72SLPC   H9R 6302   2.848  -0.402   9.913  0.5790 -0.5598 -1.3886
   72SLPC  C210 6303   2.751  -0.515   9.766 -0.7374  0.5466 -0.4219
   72SLPC  H10R 6304   2.769  -0.439   9.689  1.5386  1.2390  0.6796
   72SLPC  C211 6305   2.674  -0.629   9.724 -0.6981  0.2091  0.8821
   72SLPC  H11R 6306   2.605  -0.592   9.645  3.8669  3.5048 -2.1071
   72SLPC  H11S 6307   2.605  -0.673   9.799 -2.4898 -0.4962 -1.0778
   72SLPC  C212 6308   2.758  -0.739   9.674 -0.7668 -0.0467 -0.2940
   72SLPC  H12R 6309   2.815  -0.797   9.748  0.9155  1.8111 -0.0579
   72SLPC  C213 6310   2.760  -0.781   9.547 -0.1820  0.2217  0.4721
   72SLPC  H13R 6311   2.816  -0.873   9.526  0.8369  0.7364  0.8982
   72SLPC  C214 6312   2.674  -0.725   9.433  0.4306  0.9913  0.0190
   72SLPC  H14R 6313   2.635  -0.623   9.454  0.5765  1.0984 -0.2171
   72SLPC  H14S 6314   2.588  -0.794   9.419  1.1762  0.1378 -0.5058
   72SLPC  C215 6315   2.739  -0.726   9.297  0.6744 -0.1206  0.1713
   72SLPC  H15R 6316   2.783  -0.825   9.275 -1.0857 -0.6444 -1.3306
   72SLPC  H15S 6317   2.824  -0.656   9.283  1.3160 -0.4268  2.2489
   72SLPC  C216 6318   2.642  -0.684   9.186  0.6709 -0.2882 -0.1386
   72SLPC  H16R 6319   2.610  -0.579   9.202  1.1143 -0.3341  1.1624
   72SLPC  H16S 6320   2.552  -0.747   9.195 -0.6135  1.4505 -0.1923
   72SLPC  C217 6321   2.694  -0.698   9.042 -0.2806  0.0339 -0.3423
   72SLPC  H17R 6322   2.750  -0.795   9.040  0.8047  0.6572 -1.1296
   72SLPC  H17S 6323   2.760  -0.611   9.021 -2.4539  1.4515 -1.6851
   72SLPC  C218 6324   2.593  -0.699   8.929 -0.6219  0.1190 -0.0335
   72SLPC  H18R 6325   2.524  -0.613   8.938 -1.6441 -0.5723 -0.9744
   72SLPC  H18S 6326   2.536  -0.794   8.940  1.7193 -1.3290  0.5867
   72SLPC  H18T 6327   2.649  -0.697   8.833 -1.2180  0.0096 -0.3859
   72SLPC   C33 6328   3.315   0.153   9.934 -0.1253  0.8960 -0.1877
   72SLPC   H3X 6329   3.425   0.134   9.937 -0.3833 -0.5900  0.3763
   72SLPC   H3Y 6330   3.275   0.252   9.902 -1.8751 -0.6567 -3.2967
   72SLPC   C34 6331   3.286   0.046   9.828 -0.1992  0.0653  0.3117
   72SLPC   H4X 6332   3.178   0.038   9.806 -0.2593 -1.9580  1.1315
   72SLPC   H4Y 6333   3.311  -0.056   9.863 -1.7721  0.4899  2.8555
   72SLPC   C35 6334   3.361   0.087   9.696  0.2861 -0.1582 -0.7325
   72SLPC   H5X 6335   3.466   0.092   9.731  0.2541  0.4695 -0.7191
   72SLPC   H5Y 6336   3.334   0.188   9.659  0.7747  0.3136  0.1759
   72SLPC   C36 6337   3.357  -0.020   9.587  0.5786 -0.7450 -0.2558
   72SLPC   H6X 6338   3.251  -0.046   9.566  0.6989  0.4351 -2.7029
   72SLPC   H6Y 6339   3.413  -0.114   9.605  1.8684 -0.0801 -0.6464
   72SLPC   C37 6340   3.408   0.039   9.451 -0.4203 -0.3539 -0.3836
   72SLPC   H7X 6341   3.505   0.087   9.478 -0.0516 -0.2468 -1.8003
   72SLPC   H7Y 6342   3.339   0.114   9.406 -0.6934 -0.5177 -0.2339
   72SLPC   C38 6343   3.425  -0.071   9.348  0.3694  0.0420  0.4986
   72SLPC   H8X 6344   3.328  -0.125   9.345  0.9317 -1.0844 -3.5442
   72SLPC   H8Y 6345   3.511  -0.138   9.369 -0.8964 -2.5845 -2.0805
   72SLPC   C39 6346   3.444  -0.014   9.204 -0.1939  0.0228 -0.3650
   72SLPC   H9X 6347   3.518   0.069   9.211 -0.9003  0.7524 -1.2416
   72SLPC   H9Y 6348   3.347   0.034   9.182 -0.2548  0.0702  0.0045
   72SLPC  C310 6349   3.461  -0.127   9.094  0.0009  0.2124 -0.0249
   72SLPC  H10X 6350   3.372  -0.190   9.114  0.2378  0.2527  1.2467
   72SLPC  H10Y 6351   3.556  -0.178   9.121  0.9665  1.5651 -0.6917
   72SLPC  C311 6352   3.477  -0.079   8.948  0.3835  0.3643 -0.3562
   72SLPC  H11X 6353   3.428   0.019   8.929  1.0709  1.0797  1.3954
   72SLPC  H11Y 6354   3.432  -0.163   8.892 -0.7465 -0.3200  1.5218
   72SLPC  C312 6355   3.624  -0.068   8.912 -0.2568 -0.0886  0.1428
   72SLPC  H12X 6356   3.662  -0.172   8.911 -0.1960 -0.0664 -1.6696
   72SLPC  H12Y 6357   3.686  -0.016   8.989  0.8607  0.3729 -1.0461
   72SLPC  C313 6358   3.655   0.029   8.789  0.5525  0.9716 -0.2586
   72SLPC  H13X 6359   3.762   0.041   8.759  0.3042 -2.7978 -3.4041
   72SLPC  H13Y 6360   3.612   0.129   8.810 -1.6334 -0.5217  3.3912
   72SLPC  C314 6361   3.578  -0.032   8.664  0.4640 -0.2563 -0.1237
   72SLPC  H14X 6362   3.474  -0.049   8.698 -0.6054 -2.0438 -3.8207
   72SLPC  H14Y 6363   3.623  -0.130   8.639 -0.3768 -0.6763 -0.0137
   72SLPC  C315 6364   3.574   0.057   8.540  1.0462 -0.4339 -0.2308
   72SLPC  H15X 6365   3.527  -0.004   8.460 -3.4761 -1.8339  3.0766
   72SLPC  H15Y 6366   3.679   0.081   8.510  0.4570  0.2438 -1.8734
   72SLPC  C316 6367   3.486   0.189   8.536  0.6244 -0.0897 -0.2070
   72SLPC  H16X 6368   3.473   0.214   8.429 -1.6819  2.7317  0.6026
   72SLPC  H16Y 6369   3.536   0.281   8.575 -0.2589  0.8978 -1.3412
   72SLPC  C317 6370   3.341   0.173   8.591  0.1989  0.1980  0.1166
   72SLPC  H17X 6371   3.344   0.144   8.698 -1.2817  0.8160  0.3406
   72SLPC  H17Y 6372   3.284   0.097   8.534  1.1564  0.4585 -1.2589
   72SLPC  C318 6373   3.259   0.307   8.566 -0.4461  0.0605 -0.5353
   72SLPC  H18X 6374   3.240   0.325   8.458 -2.6528 -1.4371 -0.4731
   72SLPC  H18Y 6375   3.306   0.396   8.611 -1.7980  1.0014 -0.9252
   72SLPC  H18Z 6376   3.168   0.309   8.630 -1.2880  2.5447 -1.6897
   73SLPC     N 6377   3.616   6.257  11.010 -0.2448  0.7588 -0.1277
   73SLPC   C13 6378   3.507   6.181  11.070  0.2415 -0.1812 -0.6942
   73SLPC  H13A 6379   3.499   6.080  11.034  0.7088 -1.2751  2.0324
   73SLPC  H13B 6380   3.525   6.172  11.176  2.5174 -0.1369 -1.0456
   73SLPC  H13C 6381   3.410   6.229  11.071 -0.6461 -1.7429  2.9372
   73SLPC   C14 6382   3.754   6.219  11.044  0.0452  0.3492 -0.4721
   73SLPC  H14A 6383   3.792   6.143  10.976  1.7057 -0.1034  0.9012
   73SLPC  H14B 6384   3.820   6.304  11.053  0.9907 -0.2742 -1.2896
   73SLPC  H14C 6385   3.753   6.179  11.144  2.1437  1.7274  0.1740
   73SLPC   C15 6386   3.598   6.392  11.068  0.1045 -0.0742 -0.9071
   73SLPC  H15A 6387   3.496   6.426  11.060 -0.2609 -1.1900 -1.2346
   73SLPC  H15B 6388   3.619   6.389  11.174  1.6955  0.9433 -1.1512
   73SLPC  H15C 6389   3.672   6.459  11.026  1.7229 -1.1604  0.0974
   73SLPC   C12 6390   3.604   6.254  10.856 -0.4503  0.5306 -0.2369
   73SLPC  H12A 6391   3.506   6.284  10.821 -0.8997  1.8404  1.9046
   73SLPC  H12B 6392   3.630   6.155  10.822  3.1507  0.8589  1.0914
   73SLPC   C11 6393   3.696   6.353  10.777 -0.3440  0.6953  0.4923
   73SLPC  H11A 6394   3.692   6.316  10.672 -0.9590  0.5901  0.5492
   73SLPC  H11B 6395   3.800   6.355  10.816  0.0075  0.2411 -0.3848
   73SLPC     P 6396   3.523   6.566  10.753  0.5458  0.4973  0.0519
   73SLPC   O13 6397   3.441   6.604  10.876  0.2878  0.1207 -0.1051
   73SLPC   O14 6398   3.555   6.668  10.651 -0.3067 -0.6356 -0.2518
   73SLPC   O12 6399   3.652   6.486  10.793  0.0654 -0.1071 -0.6884
   73SLPC   O11 6400   3.451   6.449  10.675  0.0076 -0.1355 -0.2510
   73SLPC    C1 6401   3.405   6.462  10.543  0.0283  0.3892  0.4240
   73SLPC    HA 6402   3.313   6.402  10.527  0.7835 -0.8645  0.6350
   73SLPC    HB 6403   3.383   6.566  10.511 -1.8768 -0.0159  0.2841
   73SLPC    C2 6404   3.515   6.424  10.444 -0.1378  0.2908  0.0309
   73SLPC    HS 6405   3.611   6.468  10.479 -0.5774  2.4724 -1.3283
   73SLPC   O21 6406   3.476   6.472  10.313  0.0301 -1.2470  0.0648
   73SLPC   C21 6407   3.575   6.521  10.238  0.3215  0.0960 -0.5421
   73SLPC   O22 6408   3.687   6.548  10.271  0.0465  0.0059 -0.6781
   73SLPC   C22 6409   3.525   6.550  10.095 -0.2931 -0.5721 -0.5772
   73SLPC   H2R 6410   3.521   6.446  10.056  0.9065 -0.7003 -0.4046
   73SLPC   H2S 6411   3.419   6.580  10.098 -0.3656 -0.8429 -0.3761
   73SLPC    C3 6412   3.536   6.266  10.430 -0.5116 -0.2270  0.2068
   73SLPC    HX 6413   3.444   6.224  10.382 -1.8007  0.1700  2.2142
   73SLPC    HY 6414   3.520   6.242  10.537  1.3856 -0.2446  0.5186
   73SLPC   O31 6415   3.671   6.223  10.392  0.6441  0.0400 -0.4962
   73SLPC   C31 6416   3.672   6.162  10.277 -0.1249 -0.0471 -0.3736
   73SLPC   O32 6417   3.580   6.162  10.194 -0.4584  0.1595 -0.1898
   73SLPC   C32 6418   3.813   6.116  10.244 -0.5419  0.1604  0.8502
   73SLPC   H2X 6419   3.820   6.010  10.277 -0.1823 -0.3834 -0.8729
   73SLPC   H2Y 6420   3.882   6.175  10.308 -0.4512  0.2598  0.6613
   73SLPC   C23 6421   3.612   6.644  10.003 -0.0018 -0.5342  0.3522
   73SLPC   H3R 6422   3.647   6.719  10.077  0.4540 -0.9715  0.5873
   73SLPC   H3S 6423   3.537   6.699   9.942  0.4268 -0.3126  0.0159
   73SLPC   C24 6424   3.721   6.591   9.912 -1.0250 -0.4872 -0.4856
   73SLPC   H4R 6425   3.801   6.561   9.984 -1.3491  1.1625  0.6338
   73SLPC   H4S 6426   3.766   6.673   9.852 -0.6633  0.0969  0.5513
   73SLPC   C25 6427   3.692   6.469   9.832  0.6795 -0.9539 -0.0172
   73SLPC   H5R 6428   3.669   6.381   9.895 -1.2279 -0.1529  0.4666
   73SLPC   H5S 6429   3.783   6.443   9.774  1.0014 -0.2326  0.1575
   73SLPC   C26 6430   3.572   6.483   9.737  0.7950  0.0661  0.4771
   73SLPC   H6R 6431   3.596   6.540   9.644 -0.3890  1.0468  0.7544
   73SLPC   H6S 6432   3.479   6.524   9.782  0.0167  0.3032 -1.2636
   73SLPC   C27 6433   3.519   6.344   9.695  0.5306  0.6060  0.4310
   73SLPC   H7R 6434   3.422   6.370   9.648  0.5395  0.6220  0.4214
   73SLPC   H7S 6435   3.519   6.272   9.780  0.9019 -1.1807 -1.0260
   73SLPC   C28 6436   3.598   6.279   9.577  0.2342  0.0888  0.5214
   73SLPC   H8R 6437   3.682   6.232   9.633 -0.0093 -1.8878 -0.6859
   73SLPC   H8S 6438   3.638   6.348   9.499 -0.2762  0.1643  0.3206
   73SLPC   C29 6439   3.521   6.168   9.512  0.0237  0.8440  0.9528
   73SLPC   H9R 6440   3.462   6.106   9.581  0.0190 -0.9828 -0.6267
   73SLPC  C210 6441   3.523   6.137   9.381 -0.4542  0.5505  0.2318
   73SLPC  H10R 6442   3.468   6.046   9.352 -0.6701  0.8003 -0.1540
   73SLPC  C211 6443   3.593   6.216   9.276 -0.8198 -0.4093  0.6416
   73SLPC  H11R 6444   3.700   6.227   9.304 -0.7215 -0.0278  0.1506
   73SLPC  H11S 6445   3.548   6.313   9.246  1.7518 -0.0540 -2.6436
   73SLPC  C212 6446   3.593   6.134   9.145  0.2690  0.0960  0.2385
   73SLPC  H12R 6447   3.565   6.028   9.153 -3.1471  0.9557  1.3343
   73SLPC  C213 6448   3.586   6.177   9.015  0.8100  0.4015  0.4540
   73SLPC  H13R 6449   3.570   6.103   8.935 -0.9981  1.0528  0.1705
   73SLPC  C214 6450   3.592   6.317   8.978  0.0719 -0.5125 -0.0762
   73SLPC  H14R 6451   3.693   6.357   8.956 -1.0807  1.5739 -1.9986
   73SLPC  H14S 6452   3.557   6.383   9.061  2.4553 -0.2976  0.8348
   73SLPC  C215 6453   3.504   6.329   8.854  0.7071 -0.0574  0.4936
   73SLPC  H15R 6454   3.472   6.435   8.848 -2.0173 -0.8758 -2.4364
   73SLPC  H15S 6455   3.407   6.275   8.866 -0.5460  1.7970 -0.6206
   73SLPC  C216 6456   3.567   6.292   8.719  0.8063  0.3757  0.6298
   73SLPC  H16R 6457   3.619   6.197   8.746 -1.1474 -0.2089  2.6213
   73SLPC  H16S 6458   3.646   6.363   8.687  0.4380  0.6430  0.3222
   73SLPC  C217 6459   3.470   6.275   8.602  1.3229 -0.4382  0.4067
   73SLPC  H17R 6460   3.504   6.314   8.504 -2.7092  0.3012 -0.9137
   73SLPC  H17S 6461   3.381   6.340   8.620  1.1122 -0.9380  1.2008
   73SLPC  C218 6462   3.428   6.129   8.565 -0.1621  0.3333 -0.1715
   73SLPC  H18R 6463   3.357   6.123   8.480  0.4019  0.0270 -0.6216
   73SLPC  H18S 6464   3.386   6.069   8.648  0.4705 -0.4031 -0.3713
   73SLPC  H18T 6465   3.522   6.083   8.527 -1.0876 -0.6489 -1.3391
   73SLPC   C33 6466   3.857   6.117  10.092  0.1475 -0.1756  0.7200
   73SLPC   H3X 6467   3.963   6.090  10.077  0.0362 -0.7587  0.9316
   73SLPC   H3Y 6468   3.852   6.224  10.063  1.0927 -0.3244 -0.0355
   73SLPC   C34 6469   3.770   6.019  10.006  0.2409 -0.4151 -0.9607
   73SLPC   H4X 6470   3.661   6.037  10.009 -0.3642 -3.5550 -0.2832
   73SLPC   H4Y 6471   3.783   5.912  10.036  1.2952 -0.4438 -1.4921
   73SLPC   C35 6472   3.811   6.020   9.855  0.0216 -0.0160 -0.4929
   73SLPC   H5X 6473   3.920   6.026   9.837 -0.0353 -2.5689 -2.1199
   73SLPC   H5Y 6474   3.773   6.115   9.811 -0.0273  0.7407  1.1000
   73SLPC   C36 6475   3.747   5.915   9.764 -0.2668  0.0935 -0.0256
   73SLPC   H6X 6476   3.636   5.916   9.759 -0.3669  0.1487  1.6209
   73SLPC   H6Y 6477   3.750   5.819   9.820 -2.1512  0.0603  0.0875
   73SLPC   C37 6478   3.806   5.911   9.621  0.0132  0.1605 -0.2087
   73SLPC   H7X 6479   3.916   5.923   9.629  0.2587 -0.2047 -2.4378
   73SLPC   H7Y 6480   3.773   6.000   9.564 -0.5771  0.6471  0.8563
   73SLPC   C38 6481   3.777   5.784   9.534  0.0298 -0.1103 -0.5403
   73SLPC   H8X 6482   3.841   5.701   9.570 -2.2714 -1.7150  0.1281
   73SLPC   H8Y 6483   3.807   5.815   9.432 -0.5145 -1.5953 -1.1675
   73SLPC   C39 6484   3.631   5.752   9.525 -0.1303 -0.5981  0.1094
   73SLPC   H9X 6485   3.580   5.850   9.516 -0.1757 -0.3964  2.1172
   73SLPC   H9Y 6486   3.606   5.708   9.625  0.0448  0.4369  0.6199
   73SLPC  C310 6487   3.598   5.659   9.406  0.0630  0.0174  0.1815
   73SLPC  H10X 6488   3.491   5.628   9.418  0.5172 -1.2017  1.3466
   73SLPC  H10Y 6489   3.657   5.565   9.416  0.7506  0.5282  1.0389
   73SLPC  C311 6490   3.635   5.713   9.268  0.2273 -0.8796 -0.2067
   73SLPC  H11X 6491   3.742   5.699   9.241  0.9043  0.0702  1.7757
   73SLPC  H11Y 6492   3.609   5.821   9.269  2.6120 -0.2437 -0.4105
   73SLPC  C312 6493   3.551   5.648   9.161 -0.6137  0.0841  0.0731
   73SLPC  H12X 6494   3.444   5.673   9.178 -1.3804 -0.6835 -3.0220
   73SLPC  H12Y 6495   3.564   5.538   9.156  1.7315  0.2827  0.6730
   73SLPC  C313 6496   3.579   5.706   9.024  0.0773 -0.6055  0.5522
   73SLPC  H13X 6497   3.687   5.699   8.997  0.0833 -0.4459  0.5385
   73SLPC  H13Y 6498   3.542   5.810   9.014  2.8461  0.4699  0.6873
   73SLPC  C314 6499   3.493   5.634   8.920 -1.0959 -0.2942 -0.3510
   73SLPC  H14X 6500   3.394   5.647   8.970  0.5897  1.6864  2.7867
   73SLPC  H14Y 6501   3.522   5.527   8.920 -0.8474 -0.2649  1.8198
   73SLPC  C315 6502   3.511   5.703   8.784  0.3628 -0.1089  0.2135
   73SLPC  H15X 6503   3.614   5.690   8.745 -0.0930 -1.6313 -0.5824
   73SLPC  H15Y 6504   3.478   5.807   8.802 -2.2450 -0.5612 -1.3761
   73SLPC  C316 6505   3.409   5.637   8.684 -0.6941 -0.6925  0.6036
   73SLPC  H16X 6506   3.311   5.623   8.735 -0.1309  0.9870  2.2524
   73SLPC  H16Y 6507   3.437   5.532   8.663 -1.9455 -0.7623 -0.9657
   73SLPC  C317 6508   3.400   5.715   8.557  0.4427 -0.5933 -0.1347
   73SLPC  H17X 6509   3.360   5.815   8.582  0.7154 -0.4505 -0.2692
   73SLPC  H17Y 6510   3.329   5.674   8.481 -0.0920  1.6645 -0.9131
   73SLPC  C318 6511   3.540   5.729   8.497 -0.2082 -0.0469 -0.4878
   73SLPC  H18X 6512   3.596   5.813   8.543  2.1263 -0.4694 -2.3631
   73SLPC  H18Y 6513   3.529   5.743   8.388  1.8798 -2.8652 -1.1815
   73SLPC  H18Z 6514   3.602   5.639   8.517  0.5540  0.7219  0.7728
   74SLPC     N 6515   5.643   6.774  10.286  0.4409  0.4002  0.4033
   74SLPC   C13 6516   5.659   6.923  10.278 -0.4855 -0.3611 -0.1673
   74SLPC  H13A 6517   5.738   6.948  10.208 -1.7226  2.4797 -0.7022
   74SLPC  H13B 6518   5.571   6.976  10.246 -0.5990  1.1205  2.3302
   74SLPC  H13C 6519   5.676   6.959  10.378 -1.5230  1.0394 -0.4663
   74SLPC   C14 6520   5.778   6.717  10.320 -0.0993 -0.0520 -0.7311
   74SLPC  H14A 6521   5.785   6.612  10.296  0.6290 -0.6571  1.7456
   74SLPC  H14B 6522   5.854   6.771  10.267 -0.6486 -0.2914 -1.7783
   74SLPC  H14C 6523   5.810   6.714  10.424  0.3182 -0.1493 -0.8603
   74SLPC   C15 6524   5.597   6.735  10.150  0.3317  0.1887 -0.6152
   74SLPC  H15A 6525   5.492   6.754  10.128 -0.3766 -0.7948  1.6441
   74SLPC  H15B 6526   5.655   6.781  10.071  1.3300 -2.4555 -1.5067
   74SLPC  H15C 6527   5.613   6.629  10.137  0.2044 -0.0375  0.9353
   74SLPC   C12 6528   5.536   6.737  10.388 -0.6298 -0.1061  0.8381
   74SLPC  H12A 6529   5.576   6.735  10.488 -0.8285 -3.0761  0.9512
   74SLPC  H12B 6530   5.522   6.630  10.379 -3.0982  0.3017 -1.4093
   74SLPC   C11 6531   5.397   6.798  10.378  0.0111  0.2109  0.1101
   74SLPC  H11A 6532   5.356   6.768  10.279  0.7081 -0.2373 -0.0518
   74SLPC  H11B 6533   5.409   6.907  10.393 -2.2939  0.6630 -0.8809
   74SLPC     P 6534   5.165   6.690  10.469  0.2363 -0.7392  0.1303
   74SLPC   O13 6535   5.182   6.565  10.394 -0.0716  0.3516 -0.6429
   74SLPC   O14 6536   5.102   6.684  10.604 -0.1781  0.6372  0.7536
   74SLPC   O12 6537   5.317   6.750  10.485 -0.3177 -0.2761  0.4909
   74SLPC   O11 6538   5.102   6.805  10.381 -0.1423 -0.1693 -0.1466
   74SLPC    C1 6539   5.014   6.777  10.277  0.4588 -0.0449 -0.6686
   74SLPC    HA 6540   4.970   6.675  10.278  1.2248 -0.3955  0.6535
   74SLPC    HB 6541   4.922   6.839  10.282  0.4071 -0.1251 -0.6169
   74SLPC    C2 6542   5.089   6.799  10.138  0.5400  0.1488 -0.5088
   74SLPC    HS 6543   5.178   6.733  10.146 -0.8906 -1.6975  1.4786
   74SLPC   O21 6544   5.126   6.933  10.112  0.2289 -0.0353 -0.5796
   74SLPC   C21 6545   5.243   6.945  10.038  0.1237  0.4172 -0.3131
   74SLPC   O22 6546   5.324   6.857  10.019  0.6396 -0.3224  0.0735
   74SLPC   C22 6547   5.255   7.083   9.986  0.3517 -0.3874  0.3759
   74SLPC   H2R 6548   5.160   7.110   9.935  0.5355 -0.6297 -0.0974
   74SLPC   H2S 6549   5.249   7.159  10.068 -2.7966  2.4749 -2.2150
   74SLPC    C3 6550   5.000   6.749  10.015  0.2693  0.3293  0.1632
   74SLPC    HX 6551   4.911   6.816  10.010 -0.9586 -1.3037 -1.0484
   74SLPC    HY 6552   4.952   6.653  10.043  2.0773 -0.7584 -0.3052
   74SLPC   O31 6553   5.077   6.738   9.885  0.5075 -0.5439  0.4020
   74SLPC   C31 6554   5.141   6.624   9.866  0.3709 -0.3151  0.2654
   74SLPC   O32 6555   5.147   6.533   9.944  0.1196 -0.5448 -0.3450
   74SLPC   C32 6556   5.210   6.623   9.733  0.4969 -0.3897  0.8654
   74SLPC   H2X 6557   5.303   6.683   9.742  1.6075 -1.1430 -3.4894
   74SLPC   H2Y 6558   5.151   6.676   9.656  4.3225  0.7778 -1.5133
   74SLPC   C23 6559   5.380   7.103   9.898  0.0599 -0.8537  0.4183
   74SLPC   H3R 6560   5.470   7.063   9.950 -1.0266 -2.6043  1.0172
   74SLPC   H3S 6561   5.405   7.211   9.882  0.5778 -1.2824 -2.3306
   74SLPC   C24 6562   5.358   7.041   9.764 -0.1336  0.1861  0.5713
   74SLPC   H4R 6563   5.278   7.096   9.709  0.0285  0.4285  0.5750
   74SLPC   H4S 6564   5.330   6.934   9.769  1.4022 -0.3030 -0.5090
   74SLPC   C25 6565   5.488   7.048   9.680 -0.4955 -0.3051 -0.5801
   74SLPC   H5R 6566   5.563   6.981   9.727  0.9945  1.3781 -0.4662
   74SLPC   H5S 6567   5.537   7.147   9.674 -0.3169 -0.4508 -1.6871
   74SLPC   C26 6568   5.476   7.005   9.533  0.1334  0.3072  0.1386
   74SLPC   H6R 6569   5.408   7.069   9.474  0.3821 -0.1105 -0.6237
   74SLPC   H6S 6570   5.438   6.900   9.537  1.0571 -0.1730 -2.1814
   74SLPC   C27 6571   5.614   6.997   9.468  0.0310  0.7847  0.6461
   74SLPC   H7R 6572   5.615   6.942   9.371 -1.6515 -0.5198  1.3280
   74SLPC   H7S 6573   5.687   6.937   9.527 -0.4039  0.3920  0.7844
   74SLPC   C28 6574   5.684   7.138   9.452  0.3916  0.0346  0.4880
   74SLPC   H8R 6575   5.711   7.173   9.554  2.2418 -2.1317  0.8191
   74SLPC   H8S 6576   5.611   7.203   9.400  1.0352  2.2890  2.2088
   74SLPC   C29 6577   5.807   7.125   9.369 -0.1271 -0.0486 -0.2697
   74SLPC   H9R 6578   5.785   7.073   9.274  0.3527  0.5758 -0.7259
   74SLPC  C210 6579   5.933   7.166   9.395  0.1142  0.1842 -0.6071
   74SLPC  H10R 6580   5.997   7.152   9.306  0.8248  0.8788 -0.2186
   74SLPC  C211 6581   5.980   7.245   9.513  0.0798 -0.0646  0.1513
   74SLPC  H11R 6582   5.910   7.232   9.598  2.1037  1.0851  2.0970
   74SLPC  H11S 6583   5.986   7.353   9.490  2.8329  0.0948  1.2266
   74SLPC  C212 6584   6.125   7.230   9.557  0.3965  0.4687 -0.5267
   74SLPC  H12R 6585   6.203   7.280   9.497 -1.1724  4.2249  0.2949
   74SLPC  C213 6586   6.168   7.162   9.666 -0.3002 -0.0022 -0.4528
   74SLPC  H13R 6587   6.274   7.169   9.693 -0.2853  0.4853 -0.6223
   74SLPC  C214 6588   6.079   7.088   9.754 -0.3567 -0.2165  0.6213
   74SLPC  H14R 6589   6.006   7.158   9.803 -1.2796 -0.7257 -0.0040
   74SLPC  H14S 6590   6.138   7.047   9.839  2.0107  0.5351 -0.5864
   74SLPC  C215 6591   6.001   6.969   9.697 -0.2243  0.9160  0.3066
   74SLPC  H15R 6592   6.064   6.915   9.623 -2.7232  1.8242 -2.6504
   74SLPC  H15S 6593   5.919   7.013   9.637 -1.3217 -1.0760  0.2687
   74SLPC  C216 6594   5.949   6.855   9.790  0.5486 -1.0516 -0.1454
   74SLPC  H16R 6595   5.895   6.779   9.730  0.2188 -0.9342 -0.0006
   74SLPC  H16S 6596   5.879   6.909   9.858  0.6920  2.7528 -2.6910
   74SLPC  C217 6597   6.052   6.788   9.883  0.0878  0.2593  0.0346
   74SLPC  H17R 6598   6.132   6.862   9.907 -1.1329  2.3799 -2.1147
   74SLPC  H17S 6599   6.097   6.707   9.822  2.0071  1.4844 -0.2881
   74SLPC  C218 6600   5.991   6.730  10.012 -0.4298  0.5687 -0.5057
   74SLPC  H18R 6601   5.919   6.650   9.982 -1.3115  1.1837 -0.0472
   74SLPC  H18S 6602   5.941   6.812  10.067 -0.0874  0.1960  0.3784
   74SLPC  H18T 6603   6.065   6.683  10.081  1.6200  2.6511 -1.1577
   74SLPC   C33 6604   5.255   6.474   9.695  0.2387 -0.1953  0.3891
   74SLPC   H3X 6605   5.305   6.417   9.777  0.2556 -0.4227  0.2230
   74SLPC   H3Y 6606   5.322   6.497   9.610 -0.4127  2.5054  0.5170
   74SLPC   C34 6607   5.135   6.385   9.655 -0.4279  0.3466 -0.3876
   74SLPC   H4X 6608   5.078   6.351   9.745  0.4553 -1.2570 -0.4045
   74SLPC   H4Y 6609   5.173   6.285   9.624 -1.1599  0.4572 -1.7250
   74SLPC   C35 6610   5.037   6.443   9.547 -0.0386  0.0293  0.4661
   74SLPC   H5X 6611   4.991   6.539   9.578 -0.5478  1.7416 -4.6578
   74SLPC   H5Y 6612   4.960   6.364   9.538  1.5821 -1.4905 -0.7993
   74SLPC   C36 6613   5.090   6.466   9.403  0.0624 -0.7771 -0.3422
   74SLPC   H6X 6614   5.177   6.535   9.406 -1.2364  0.9069 -0.1631
   74SLPC   H6Y 6615   5.008   6.503   9.337  1.3695  3.4859  0.1591
   74SLPC   C37 6616   5.127   6.340   9.325  0.0048  0.3834  0.5265
   74SLPC   H7X 6617   5.043   6.268   9.319 -0.4919  0.9539  0.5520
   74SLPC   H7Y 6618   5.213   6.285   9.368 -0.0871 -0.5917 -0.4871
   74SLPC   C38 6619   5.165   6.376   9.175 -0.4961  0.0895 -0.2370
   74SLPC   H8X 6620   5.204   6.480   9.168 -0.1909  0.1629  1.8899
   74SLPC   H8Y 6621   5.065   6.373   9.127 -0.8814 -1.0058  0.5962
   74SLPC   C39 6622   5.245   6.264   9.106 -0.0237 -0.0365 -1.0450
   74SLPC   H9X 6623   5.192   6.175   9.146  0.8920 -0.6486 -1.1576
   74SLPC   H9Y 6624   5.347   6.259   9.151 -0.0557 -2.0587 -1.1107
   74SLPC  C310 6625   5.238   6.262   8.951 -0.4018 -0.4994 -1.2886
   74SLPC  H10X 6626   5.303   6.181   8.910 -0.6995 -0.1841 -2.4087
   74SLPC  H10Y 6627   5.280   6.357   8.914  1.9720 -0.9477  0.0759
   74SLPC  C311 6628   5.101   6.243   8.898  0.1524 -0.2167  0.4788
   74SLPC  H11X 6629   5.044   6.337   8.915  1.1809  0.5699 -0.2947
   74SLPC  H11Y 6630   5.059   6.161   8.960  1.7675 -1.2048  0.3206
   74SLPC  C312 6631   5.107   6.202   8.744  0.2567 -0.3259  0.6661
   74SLPC  H12X 6632   5.176   6.116   8.725 -0.6477 -0.5809 -1.8487
   74SLPC  H12Y 6633   5.125   6.290   8.679  1.5073 -1.0002  0.0635
   74SLPC  C313 6634   4.970   6.140   8.710  0.0335 -0.2138  0.2101
   74SLPC  H13X 6635   4.956   6.037   8.749 -4.4254  0.0865 -0.1062
   74SLPC  H13Y 6636   4.968   6.152   8.599 -1.0785 -3.0181 -0.1760
   74SLPC  C314 6637   4.846   6.233   8.737 -0.2954  0.4107 -0.9257
   74SLPC  H14X 6638   4.875   6.331   8.695  1.4679  0.2130 -0.2461
   74SLPC  H14Y 6639   4.831   6.252   8.845 -1.1690  0.1706 -0.9991
   74SLPC  C315 6640   4.713   6.183   8.683 -1.1809  0.2189 -0.5460
   74SLPC  H15X 6641   4.703   6.075   8.705 -0.4069 -0.4010 -2.9437
   74SLPC  H15Y 6642   4.711   6.203   8.574  1.5018  1.8993 -0.3821
   74SLPC  C316 6643   4.592   6.264   8.738 -0.1505 -0.6505 -0.1590
   74SLPC  H16X 6644   4.619   6.370   8.724 -0.3391 -0.6666 -0.6760
   74SLPC  H16Y 6645   4.582   6.239   8.846 -2.7005 -0.3855 -0.2640
   74SLPC  C317 6646   4.455   6.234   8.676 -0.1212 -0.3003  0.0572
   74SLPC  H17X 6647   4.460   6.203   8.570 -0.7714 -0.5838  0.1001
   74SLPC  H17Y 6648   4.396   6.328   8.672  1.0907  0.5147  0.8137
   74SLPC  C318 6649   4.367   6.128   8.746 -0.1849 -0.3237  0.3284
   74SLPC  H18X 6650   4.355   6.156   8.853 -1.5140  0.5739 -0.0373
   74SLPC  H18Y 6651   4.410   6.025   8.745 -1.9983 -1.1397  1.1584
   74SLPC  H18Z 6652   4.269   6.123   8.694  0.1443  1.8673 -0.6220
   75SLPC     N 6653   6.213   5.593   6.397 -0.0102 -0.4191 -0.0977
   75SLPC   C13 6654   6.193   5.742   6.393  0.3367 -0.4764 -0.3704
   75SLPC  H13A 6655   6.277   5.798   6.355 -0.3339 -1.8179 -4.2676
   75SLPC  H13B 6656   6.106   5.767   6.333  0.6643  1.6954 -0.0144
   75SLPC  H13C 6657   6.160   5.769   6.493  2.3266 -1.5790  0.6351
   75SLPC   C14 6658   6.254   5.562   6.257 -0.3174  0.4757  0.9012
   75SLPC  H14A 6659   6.352   5.597   6.227 -0.5363 -0.4065 -0.9982
   75SLPC  H14B 6660   6.258   5.456   6.236  2.0659  0.9054 -1.3081
   75SLPC  H14C 6661   6.171   5.599   6.199 -0.0845 -1.2186 -0.6235
   75SLPC   C15 6662   6.072   5.531   6.429 -0.0632  0.4630  1.0740
   75SLPC  H15A 6663   6.043   5.528   6.533 -0.6091  0.1926  0.9196
   75SLPC  H15B 6664   5.994   5.572   6.366  0.4426 -0.5151 -0.2502
   75SLPC  H15C 6665   6.074   5.427   6.400 -3.7152  0.7796 -0.8816
   75SLPC   C12 6666   6.321   5.559   6.499 -0.3778  0.6641  0.9503
   75SLPC  H12A 6667   6.288   5.589   6.597  0.8271  0.5024  1.4282
   75SLPC  H12B 6668   6.408   5.624   6.489 -0.8632  1.9821  4.0023
   75SLPC   C11 6669   6.373   5.414   6.509  0.3555 -0.2177 -0.5138
   75SLPC  H11A 6670   6.290   5.341   6.493  0.4534 -0.3741 -0.3059
   75SLPC  H11B 6671   6.397   5.397   6.616  0.6044  0.1909 -0.5021
   75SLPC     P 6672   6.624   5.441   6.444 -0.0945  0.1399  0.3078
   75SLPC   O13 6673   6.703   5.427   6.323  0.0037 -0.2266  0.2016
   75SLPC   O14 6674   6.623   5.579   6.496  0.0410 -0.2849  0.3609
   75SLPC   O12 6675   6.483   5.377   6.418  0.6456 -0.3517  0.1038
   75SLPC   O11 6676   6.681   5.339   6.550  0.7797 -0.5225  0.0384
   75SLPC    C1 6677   6.661   5.195   6.557 -0.2850  0.4081 -0.3158
   75SLPC    HA 6678   6.607   5.167   6.463 -1.1940  3.0591 -0.6565
   75SLPC    HB 6679   6.755   5.139   6.535 -0.7230  0.7416 -3.6577
   75SLPC    C2 6680   6.575   5.147   6.674  0.9046  0.7679 -0.3920
   75SLPC    HS 6681   6.503   5.230   6.690  1.2534  1.1244 -0.6419
   75SLPC   O21 6682   6.649   5.101   6.783 -0.2135  0.0537 -0.1344
   75SLPC   C21 6683   6.678   5.196   6.874  0.1662 -0.9279 -0.9336
   75SLPC   O22 6684   6.674   5.319   6.855  0.0297  0.0304 -0.3641
   75SLPC   C22 6685   6.711   5.135   7.013  0.4608  0.2709 -0.4280
   75SLPC   H2R 6686   6.632   5.058   7.021 -0.6378  1.3390 -0.6809
   75SLPC   H2S 6687   6.817   5.103   7.009  0.2824 -0.5511  0.7866
   75SLPC    C3 6688   6.500   5.015   6.626  0.4454  0.4171  0.0948
   75SLPC    HX 6689   6.566   4.932   6.595 -1.0364 -1.0200  0.6879
   75SLPC    HY 6690   6.444   5.041   6.534  0.2208 -1.1701 -0.2293
   75SLPC   O31 6691   6.412   4.976   6.733  0.0605  0.5322 -0.0379
   75SLPC   C31 6692   6.444   4.872   6.814  0.0796  0.0800  0.1734
   75SLPC   O32 6693   6.543   4.799   6.809 -0.0269  0.1950 -0.1541
   75SLPC   C32 6694   6.329   4.874   6.920 -0.0339 -0.2753 -0.6085
   75SLPC   H2X 6695   6.238   4.861   6.857 -1.4509  2.0002  0.7991
   75SLPC   H2Y 6696   6.314   4.970   6.974 -1.1357  0.8071 -2.6916
   75SLPC   C23 6697   6.683   5.239   7.124  0.4131 -0.6170  0.6208
   75SLPC   H3R 6698   6.587   5.289   7.097  0.6150 -2.2115 -4.0037
   75SLPC   H3S 6699   6.772   5.304   7.113  0.8822 -1.2604  0.5467
   75SLPC   C24 6700   6.660   5.178   7.265  0.1195  0.1295  0.7425
   75SLPC   H4R 6701   6.740   5.105   7.286  0.0893 -0.1767 -0.1625
   75SLPC   H4S 6702   6.562   5.125   7.266 -0.5336  1.2807  2.2487
   75SLPC   C25 6703   6.646   5.298   7.364 -0.2360 -0.2579 -0.1362
   75SLPC   H5R 6704   6.552   5.353   7.344  1.5257  2.0724 -2.6706
   75SLPC   H5S 6705   6.725   5.375   7.352 -0.8638  0.7969  1.8325
   75SLPC   C26 6706   6.648   5.255   7.512  0.3530 -0.2452 -0.3970
   75SLPC   H6R 6707   6.736   5.189   7.532 -0.0121 -0.9358 -1.0013
   75SLPC   H6S 6708   6.560   5.190   7.533 -0.4493  0.2212 -2.0898
   75SLPC   C27 6709   6.658   5.372   7.608 -0.3988  0.1886  0.1579
   75SLPC   H7R 6710   6.572   5.436   7.576 -0.7878 -0.9363 -1.1145
   75SLPC   H7S 6711   6.751   5.429   7.585  1.3846 -3.3562 -2.5263
   75SLPC   C28 6712   6.654   5.319   7.748 -0.1373  0.7948  0.4900
   75SLPC   H8R 6713   6.724   5.233   7.756 -1.4748 -0.7825 -2.7255
   75SLPC   H8S 6714   6.549   5.282   7.758  0.2470 -1.6598 -2.6573
   75SLPC   C29 6715   6.683   5.404   7.861  0.1996 -0.2409 -0.6369
   75SLPC   H9R 6716   6.765   5.476   7.850 -0.1917  0.1699 -0.8663
   75SLPC  C210 6717   6.634   5.397   7.991 -0.0951  0.4835  0.3921
   75SLPC  H10R 6718   6.667   5.470   8.067 -0.7666 -0.1634  1.3283
   75SLPC  C211 6719   6.531   5.299   8.038 -0.4173 -0.2834 -0.0591
   75SLPC  H11R 6720   6.535   5.218   7.962  0.2497  0.4139 -0.7859
   75SLPC  H11S 6721   6.433   5.348   8.021 -0.8779  0.2778  3.3954
   75SLPC  C212 6722   6.542   5.255   8.188 -0.1450  0.3087  0.3223
   75SLPC  H12R 6723   6.623   5.182   8.204  0.2179  0.4274 -0.8997
   75SLPC  C213 6724   6.477   5.305   8.292  0.4611 -0.6849  0.5388
   75SLPC  H13R 6725   6.501   5.272   8.394  0.2105 -3.0491 -0.0922
   75SLPC  C214 6726   6.375   5.420   8.276 -0.2003  0.2786 -0.0933
   75SLPC  H14R 6727   6.276   5.376   8.301  0.3613 -1.1344 -0.2622
   75SLPC  H14S 6728   6.369   5.462   8.173 -1.2845  0.0715 -0.1328
   75SLPC  C215 6729   6.390   5.535   8.374  0.3146 -0.3836 -0.1534
   75SLPC  H15R 6730   6.309   5.609   8.357  0.7419  0.2933  0.6549
   75SLPC  H15S 6731   6.482   5.594   8.352 -0.6891  0.4419 -2.5242
   75SLPC  C216 6732   6.372   5.502   8.529  0.1044 -0.0350 -0.2257
   75SLPC  H16R 6733   6.436   5.414   8.550  0.0400 -0.3871 -1.4233
   75SLPC  H16S 6734   6.266   5.480   8.554 -0.3205  1.2037 -0.8456
   75SLPC  C217 6735   6.412   5.612   8.629  0.1345 -0.4017 -0.0951
   75SLPC  H17R 6736   6.377   5.581   8.730  0.2572  1.1230  0.4449
   75SLPC  H17S 6737   6.364   5.707   8.598 -0.8650 -1.2712 -1.3061
   75SLPC  C218 6738   6.569   5.624   8.648  0.3683  0.0875  0.0305
   75SLPC  H18R 6739   6.622   5.644   8.553  0.3492  0.9193  0.1875
   75SLPC  H18S 6740   6.615   5.530   8.685  1.3738 -0.0625 -1.5192
   75SLPC  H18T 6741   6.584   5.706   8.721  0.8992  0.0463 -0.0303
   75SLPC   C33 6742   6.357   4.761   7.027  0.5949  0.0322 -0.2747
   75SLPC   H3X 6743   6.260   4.746   7.080  1.0619 -2.3895 -0.0165
   75SLPC   H3Y 6744   6.385   4.675   6.964 -0.5077 -0.2660 -0.3714
   75SLPC   C34 6745   6.481   4.781   7.123 -0.4003 -0.9797 -0.2285
   75SLPC   H4X 6746   6.561   4.845   7.079 -1.4316  0.3376 -0.2354
   75SLPC   H4Y 6747   6.517   4.678   7.147  2.2477  0.0126  0.4525
   75SLPC   C35 6748   6.431   4.848   7.252  0.4582  0.1619 -0.0972
   75SLPC   H5X 6749   6.333   4.803   7.277  0.6477  0.6253  1.6484
   75SLPC   H5Y 6750   6.420   4.954   7.219  2.9696  0.1527 -1.2502
   75SLPC   C36 6751   6.530   4.817   7.360 -0.5921  0.3789  0.4452
   75SLPC   H6X 6752   6.635   4.845   7.339 -0.7989  1.8983  1.3083
   75SLPC   H6Y 6753   6.540   4.708   7.378  2.3790  0.2637 -1.2635
   75SLPC   C37 6754   6.497   4.870   7.497 -0.4081 -0.2017 -0.8199
   75SLPC   H7X 6755   6.397   4.830   7.526 -0.1087 -0.4330 -0.0954
   75SLPC   H7Y 6756   6.476   4.979   7.497 -0.5549 -0.2305 -0.5588
   75SLPC   C38 6757   6.616   4.845   7.590  0.2244 -0.1500 -0.0315
   75SLPC   H8X 6758   6.706   4.895   7.550  1.2965 -1.8141  0.2161
   75SLPC   H8Y 6759   6.633   4.735   7.591  1.2129  0.0027  1.0888
   75SLPC   C39 6760   6.589   4.890   7.736  0.8289 -0.6744  0.8709
   75SLPC   H9X 6761   6.498   4.844   7.780 -0.5706  1.5118  0.4207
   75SLPC   H9Y 6762   6.570   5.000   7.738 -0.7624 -0.9275  1.9520
   75SLPC  C310 6763   6.699   4.862   7.829 -0.4463  0.5558  0.0544
   75SLPC  H10X 6764   6.800   4.895   7.797 -0.2442  0.9242  1.0172
   75SLPC  H10Y 6765   6.705   4.752   7.837 -0.3584  0.3551 -2.1842
   75SLPC  C311 6766   6.684   4.919   7.968 -0.8860 -0.4669  0.0442
   75SLPC  H11X 6767   6.589   4.884   8.013 -0.6647  1.5666  2.2949
   75SLPC  H11Y 6768   6.678   5.029   7.957 -1.9011  0.0234  3.9455
   75SLPC  C312 6769   6.810   4.897   8.051  0.0813 -0.0398  0.3896
   75SLPC  H12X 6770   6.893   4.937   7.989 -1.6201  2.6511 -0.3720
   75SLPC  H12Y 6771   6.835   4.794   8.083  3.4094  1.0614  1.7760
   75SLPC  C313 6772   6.794   4.977   8.185  0.0117  0.3818  0.2723
   75SLPC  H13X 6773   6.691   4.963   8.226 -0.7905  0.7314 -1.5352
   75SLPC  H13Y 6774   6.805   5.086   8.165 -0.7340  0.2332 -1.0368
   75SLPC  C314 6775   6.891   4.930   8.294  0.3524 -0.5556  0.1814
   75SLPC  H14X 6776   6.892   4.819   8.289  2.6802 -0.6399  1.3851
   75SLPC  H14Y 6777   6.867   4.973   8.393 -0.2347  1.0443 -0.6194
   75SLPC  C315 6778   7.035   4.981   8.260 -0.2461 -0.0829 -0.2431
   75SLPC  H15X 6779   7.031   5.092   8.264 -0.9733 -0.1262  0.8523
   75SLPC  H15Y 6780   7.068   4.946   8.160  0.4712 -2.8952  0.8665
   75SLPC  C316 6781   7.143   4.937   8.363  0.3220  0.0764  0.4310
   75SLPC  H16X 6782   7.235   4.937   8.301  0.3817  2.8271  0.4369
   75SLPC  H16Y 6783   7.121   4.832   8.393  0.9582 -0.9062 -2.2925
   75SLPC  C317 6784   7.179   5.029   8.482  0.0821 -1.0591 -0.2840
   75SLPC  H17X 6785   7.118   4.994   8.568  1.1838  0.1836  1.0569
   75SLPC  H17Y 6786   7.169   5.139   8.463  4.0220 -0.8668 -2.3090
   75SLPC  C318 6787   7.321   5.017   8.544  0.6546  0.1897  0.6015
   75SLPC  H18X 6788   7.329   5.081   8.634 -2.0966 -0.2899  1.2762
   75SLPC  H18Y 6789   7.393   5.055   8.468 -0.3209  0.2332 -0.3189
   75SLPC  H18Z 6790   7.340   4.914   8.581  0.0616  0.2150  0.9997
   76SLPC     N 6791   1.471   3.203   6.242 -0.0216 -0.1933  0.0214
   76SLPC   C13 6792   1.453   3.297   6.123 -0.5512 -0.4139  0.0392
   76SLPC  H13A 6793   1.392   3.260   6.042  0.1505 -1.8760  0.1460
   76SLPC  H13B 6794   1.413   3.388   6.165  2.8636  1.8441 -1.1248
   76SLPC  H13C 6795   1.550   3.329   6.086 -0.3578 -1.4310 -0.3824
   76SLPC   C14 6796   1.334   3.182   6.296  0.0517  0.1960 -0.2586
   76SLPC  H14A 6797   1.266   3.130   6.230 -0.6358  0.3219  0.3432
   76SLPC  H14B 6798   1.326   3.120   6.384 -4.3082 -0.4222 -0.8643
   76SLPC  H14C 6799   1.287   3.272   6.332 -0.2060 -0.0861  0.1157
   76SLPC   C15 6800   1.560   3.271   6.341 -1.0813  0.2649 -0.2186
   76SLPC  H15A 6801   1.515   3.367   6.361 -3.4497 -0.6751 -0.7343
   76SLPC  H15B 6802   1.585   3.211   6.427 -1.0099  0.6427  0.0273
   76SLPC  H15C 6803   1.651   3.295   6.288 -0.0555 -1.4842  0.6778
   76SLPC   C12 6804   1.538   3.073   6.202  0.2348  0.9087  0.2029
   76SLPC  H12A 6805   1.481   3.021   6.127 -1.9098  1.2935  1.4845
   76SLPC  H12B 6806   1.537   3.014   6.293 -2.9701  0.9678  0.3221
   76SLPC   C11 6807   1.692   3.072   6.170 -0.2482 -0.0125  0.3340
   76SLPC  H11A 6808   1.717   3.156   6.102  0.3819 -1.2248 -0.9888
   76SLPC  H11B 6809   1.730   2.980   6.119  0.1116  0.0230  0.5385
   76SLPC     P 6810   1.783   2.976   6.392 -0.0461 -0.0560  0.3158
   76SLPC   O13 6811   1.651   2.910   6.422 -0.6416  0.4297  0.4731
   76SLPC   O14 6812   1.886   2.892   6.324  0.0958  0.0689 -0.1348
   76SLPC   O12 6813   1.762   3.094   6.292 -0.7269  0.2383 -0.2711
   76SLPC   O11 6814   1.847   3.029   6.525 -0.1195 -0.0682 -0.3814
   76SLPC    C1 6815   1.948   3.129   6.532 -0.1594  0.3777 -0.2697
   76SLPC    HA 6816   2.048   3.081   6.543 -0.6271 -0.0458  3.5754
   76SLPC    HB 6817   1.943   3.201   6.448 -0.6756  1.1043  0.3737
   76SLPC    C2 6818   1.928   3.217   6.662 -0.7358  0.7240  1.1354
   76SLPC    HS 6819   2.011   3.291   6.656  0.2530 -0.3241  1.4631
   76SLPC   O21 6820   1.932   3.128   6.776  0.2557 -0.3380 -0.3605
   76SLPC   C21 6821   2.045   3.099   6.840  0.0503 -0.5307 -0.5868
   76SLPC   O22 6822   2.158   3.139   6.813 -0.3941 -0.2454 -0.4727
   76SLPC   C22 6823   2.010   3.038   6.976 -0.5449  0.2151  0.2934
   76SLPC   H2R 6824   1.901   3.024   6.989 -0.4221 -0.6269  0.4814
   76SLPC   H2S 6825   2.065   2.941   6.974  2.1544  1.6593  0.5368
   76SLPC    C3 6826   1.790   3.289   6.648  0.5255 -0.8130  0.7948
   76SLPC    HX 6827   1.715   3.207   6.655 -0.1892 -0.1632  0.8438
   76SLPC    HY 6828   1.774   3.337   6.549  0.5938  2.2624  2.1915
   76SLPC   O31 6829   1.756   3.376   6.759  0.9867 -0.4416 -0.0661
   76SLPC   C31 6830   1.783   3.506   6.748  1.1684 -0.4115 -0.5622
   76SLPC   O32 6831   1.844   3.553   6.654  0.2571  0.1139  0.2813
   76SLPC   C32 6832   1.748   3.587   6.869 -0.3874 -0.2341  0.1039
   76SLPC   H2X 6833   1.638   3.581   6.876 -0.2282 -2.6892  1.7303
   76SLPC   H2Y 6834   1.778   3.694   6.856  0.0906 -0.5187 -1.3035
   76SLPC   C23 6835   2.053   3.123   7.099  0.0534  0.0057  0.0176
   76SLPC   H3R 6836   2.001   3.221   7.103  1.5775  0.9775 -2.2227
   76SLPC   H3S 6837   2.160   3.152   7.092 -0.7571  3.6793  0.5373
   76SLPC   C24 6838   2.039   3.037   7.227  0.5648  0.6968 -0.2388
   76SLPC   H4R 6839   2.098   2.944   7.210 -1.5211 -0.9992  1.1927
   76SLPC   H4S 6840   1.933   3.002   7.234  0.6074  0.9104  2.0366
   76SLPC   C25 6841   2.057   3.115   7.356 -0.5064  0.2891  0.2877
   76SLPC   H5R 6842   2.009   3.214   7.346 -1.6221 -0.3531 -1.1660
   76SLPC   H5S 6843   2.166   3.130   7.373 -0.5051  1.5707 -0.6758
   76SLPC   C26 6844   1.995   3.047   7.476  0.4833 -0.5191 -0.1190
   76SLPC   H6R 6845   2.039   2.946   7.488  0.3256 -0.6292 -0.4530
   76SLPC   H6S 6846   1.885   3.038   7.460  0.3863 -1.2492  0.8680
   76SLPC   C27 6847   2.014   3.131   7.603  0.7235 -0.3422  0.9941
   76SLPC   H7R 6848   1.945   3.097   7.683 -0.9409  1.4766  0.3950
   76SLPC   H7S 6849   1.986   3.236   7.579  1.8130 -0.3855 -0.6336
   76SLPC   C28 6850   2.151   3.137   7.658 -0.2997 -0.4101 -0.2583
   76SLPC   H8R 6851   2.196   3.035   7.662  1.9191  0.5422  0.6542
   76SLPC   H8S 6852   2.214   3.186   7.581 -0.2089  0.4718  0.3624
   76SLPC   C29 6853   2.148   3.223   7.788  0.5647 -0.1734  1.0148
   76SLPC   H9R 6854   2.157   3.332   7.773 -3.0771  0.1623  0.2555
   76SLPC  C210 6855   2.146   3.174   7.911  0.1803 -0.7202  0.5806
   76SLPC  H10R 6856   2.147   3.235   8.003  1.2392 -0.8352  0.6552
   76SLPC  C211 6857   2.133   3.033   7.952 -0.1214  0.4844 -0.1229
   76SLPC  H11R 6858   2.032   2.994   7.924 -0.0033 -0.2668  0.4890
   76SLPC  H11S 6859   2.098   3.042   8.057 -0.2572 -1.4653  0.0373
   76SLPC  C212 6860   2.242   2.935   7.942  0.3142 -0.2844 -0.0083
   76SLPC  H12R 6861   2.233   2.862   7.861 -0.1631  1.2731 -1.4206
   76SLPC  C213 6862   2.355   2.927   8.020 -0.7737 -0.0025 -0.2540
   76SLPC  H13R 6863   2.432   2.850   8.004  1.8242  2.3372  0.3339
   76SLPC  C214 6864   2.386   3.018   8.140  0.3619 -0.0743  0.1894
   76SLPC  H14R 6865   2.284   3.049   8.172  0.5490 -0.6286  1.3549
   76SLPC  H14S 6866   2.434   3.112   8.105  0.9492 -0.0646  0.9912
   76SLPC  C215 6867   2.462   2.947   8.249 -0.7494  0.6625  0.1310
   76SLPC  H15R 6868   2.563   2.919   8.211 -0.7045  1.4773 -0.3587
   76SLPC  H15S 6869   2.401   2.856   8.270  1.3512 -0.6010  1.0475
   76SLPC  C216 6870   2.482   3.033   8.377  0.1190 -0.3562  0.0750
   76SLPC  H16R 6871   2.384   3.058   8.423  1.1166  0.9038  1.6012
   76SLPC  H16S 6872   2.524   3.134   8.360 -1.1092  0.0891 -0.4572
   76SLPC  C217 6873   2.568   2.963   8.481 -0.1444  0.1941  0.1901
   76SLPC  H17R 6874   2.671   2.946   8.441 -0.3734 -3.6054  0.8697
   76SLPC  H17S 6875   2.524   2.866   8.514  2.9218 -1.2317  0.4843
   76SLPC  C218 6876   2.586   3.040   8.611 -0.0708  0.2235  0.7531
   76SLPC  H18R 6877   2.646   2.992   8.691  1.3645 -0.9037 -0.9212
   76SLPC  H18S 6878   2.486   3.040   8.659  0.4372  0.3213  1.8196
   76SLPC  H18T 6879   2.616   3.145   8.590  0.2933 -0.5216 -3.4189
   76SLPC   C33 6880   1.812   3.523   6.991  1.1613  0.1012 -0.2362
   76SLPC   H3X 6881   1.920   3.504   6.975  0.8659 -1.5395 -0.4563
   76SLPC   H3Y 6882   1.767   3.424   7.014 -1.7389  1.5636  0.8563
   76SLPC   C34 6883   1.784   3.605   7.118 -0.3017 -0.7426 -0.6647
   76SLPC   H4X 6884   1.685   3.656   7.119 -0.2501 -0.5873 -2.0758
   76SLPC   H4Y 6885   1.846   3.697   7.113 -1.3075  0.1137  1.2888
   76SLPC   C35 6886   1.805   3.526   7.245 -0.0645  0.8248 -0.0127
   76SLPC   H5X 6887   1.903   3.477   7.231  0.1734  1.5405 -0.9304
   76SLPC   H5Y 6888   1.722   3.451   7.247  1.5194 -1.0008 -0.1206
   76SLPC   C36 6889   1.810   3.596   7.375 -0.1591  0.0205 -0.3378
   76SLPC   H6X 6890   1.713   3.645   7.396 -0.4519 -1.2876  1.5876
   76SLPC   H6Y 6891   1.889   3.675   7.367  0.3357 -0.2004  1.8843
   76SLPC   C37 6892   1.857   3.513   7.497  0.3675  0.3967 -0.5911
   76SLPC   H7X 6893   1.957   3.467   7.480  0.7341  0.4043  1.2970
   76SLPC   H7Y 6894   1.782   3.436   7.527  0.7762  0.8036  1.6791
   76SLPC   C38 6895   1.866   3.599   7.627 -0.5068  0.0293  0.4153
   76SLPC   H8X 6896   1.768   3.652   7.631 -0.7993 -0.5306  0.7447
   76SLPC   H8Y 6897   1.948   3.672   7.609  0.4552 -1.3011 -0.8580
   76SLPC   C39 6898   1.884   3.515   7.751 -0.0321  0.4737 -0.3534
   76SLPC   H9X 6899   1.980   3.460   7.741  1.2919  2.6888 -0.4808
   76SLPC   H9Y 6900   1.793   3.452   7.756 -0.7245  1.5435  1.7759
   76SLPC  C310 6901   1.883   3.587   7.891 -0.6652  0.0413 -0.2727
   76SLPC  H10X 6902   1.797   3.656   7.889 -0.8731 -0.1573  0.9920
   76SLPC  H10Y 6903   1.968   3.659   7.889 -0.4635 -0.2021 -0.6270
   76SLPC  C311 6904   1.875   3.505   8.023  0.0192  0.0649  0.4383
   76SLPC  H11X 6905   1.964   3.439   8.030  0.5233  0.8643  2.3823
   76SLPC  H11Y 6906   1.781   3.445   8.015 -0.5615  0.9542  0.4084
   76SLPC  C312 6907   1.852   3.589   8.149  0.1044 -0.4002  0.0431
   76SLPC  H12X 6908   1.758   3.646   8.133 -0.5555 -1.5840 -0.4184
   76SLPC  H12Y 6909   1.935   3.663   8.156  1.4961 -1.8852 -0.0244
   76SLPC  C313 6910   1.851   3.526   8.284 -0.5701  0.7818 -0.4251
   76SLPC  H13X 6911   1.954   3.487   8.295 -0.8471  0.1337 -0.0299
   76SLPC  H13Y 6912   1.786   3.436   8.294  1.8785 -1.0322  0.1149
   76SLPC  C314 6913   1.811   3.617   8.395 -0.2784  0.0479 -0.7813
   76SLPC  H14X 6914   1.707   3.650   8.378  0.5539  2.6696 -1.1586
   76SLPC  H14Y 6915   1.867   3.712   8.387 -0.4748  0.4200  1.5339
   76SLPC  C315 6916   1.832   3.549   8.526 -0.8865  0.1410 -0.4865
   76SLPC  H15X 6917   1.941   3.542   8.546 -0.9414 -0.9842 -0.5421
   76SLPC  H15Y 6918   1.788   3.447   8.522  2.3248 -1.4433  0.8082
   76SLPC  C316 6919   1.767   3.627   8.640 -0.5029 -0.2612 -0.5896
   76SLPC  H16X 6920   1.802   3.731   8.621 -0.3440 -0.6984 -3.0395
   76SLPC  H16Y 6921   1.807   3.587   8.735 -2.4906 -0.5150  0.1736
   76SLPC  C317 6922   1.618   3.617   8.662 -0.0898 -0.1730 -0.4484
   76SLPC  H17X 6923   1.602   3.507   8.656  1.3659 -0.3980 -0.5070
   76SLPC  H17Y 6924   1.559   3.653   8.574 -2.9544 -1.9760  0.6083
   76SLPC  C318 6925   1.567   3.680   8.793 -0.0094 -0.3995  0.2089
   76SLPC  H18X 6926   1.577   3.789   8.778 -1.6029 -0.0652  1.2961
   76SLPC  H18Y 6927   1.626   3.658   8.885  4.3003 -1.5092 -2.4921
   76SLPC  H18Z 6928   1.459   3.655   8.799 -0.4401  1.4428  0.9261
   77SLPC     N 6929   5.479   2.242   6.143  0.3170  0.1218  0.6564
   77SLPC   C13 6930   5.392   2.366   6.164 -0.1313 -0.3596 -1.1157
   77SLPC  H13A 6931   5.437   2.436   6.233 -0.3941  0.4480 -1.7493
   77SLPC  H13B 6932   5.389   2.415   6.068 -0.8101  1.5748 -0.1678
   77SLPC  H13C 6933   5.291   2.336   6.187 -1.4429  2.3281 -2.9454
   77SLPC   C14 6934   5.616   2.277   6.096  0.3813 -0.3406  0.4720
   77SLPC  H14A 6935   5.665   2.350   6.159  1.5206 -0.4646 -0.2337
   77SLPC  H14B 6936   5.679   2.189   6.089  1.0151  0.1943 -0.8297
   77SLPC  H14C 6937   5.615   2.315   5.995 -0.4754 -2.0331 -0.1995
   77SLPC   C15 6938   5.409   2.151   6.048  0.3563 -0.3800  0.0612
   77SLPC  H15A 6939   5.411   2.190   5.947  0.7966 -0.0597  0.1894
   77SLPC  H15B 6940   5.453   2.053   6.041 -1.6239 -1.2359 -1.7020
   77SLPC  H15C 6941   5.307   2.139   6.083 -0.1189  1.3921 -0.5572
   77SLPC   C12 6942   5.497   2.177   6.273 -0.1017  0.0030 -0.0152
   77SLPC  H12A 6943   5.402   2.170   6.324 -0.7758 -0.9069 -1.3509
   77SLPC  H12B 6944   5.560   2.240   6.334  0.3550 -0.7326  0.2985
   77SLPC   C11 6945   5.555   2.035   6.284  0.4916  0.5344 -0.1146
   77SLPC  H11A 6946   5.506   1.962   6.217  0.3883 -0.2152  0.7554
   77SLPC  H11B 6947   5.529   1.991   6.383  0.0970  1.3869  0.1764
   77SLPC     P 6948   5.802   2.078   6.341 -0.5491  0.3650 -0.1500
   77SLPC   O13 6949   5.896   1.963   6.350  0.5582  0.0145 -0.6389
   77SLPC   O14 6950   5.849   2.210   6.297  0.1786 -0.5479 -0.4300
   77SLPC   O12 6951   5.686   2.031   6.240 -0.5736 -0.0339  0.2917
   77SLPC   O11 6952   5.735   2.103   6.479  0.2277 -0.1061  0.2203
   77SLPC    C1 6953   5.792   2.031   6.590 -0.1799  0.4575  0.1561
   77SLPC    HA 6954   5.716   2.020   6.671  0.7114 -0.7736  0.8544
   77SLPC    HB 6955   5.811   1.923   6.573  1.0716  0.5889  0.6480
   77SLPC    C2 6956   5.900   2.112   6.672  0.1262 -0.1106  0.4970
   77SLPC    HS 6957   5.987   2.115   6.603 -1.1871 -1.3436 -1.2946
   77SLPC   O21 6958   5.919   2.048   6.799 -0.1355 -0.3537  0.0174
   77SLPC   C21 6959   6.026   2.081   6.863 -0.5068  1.3132 -0.9455
   77SLPC   O22 6960   6.116   2.147   6.817  0.6173  0.0317  0.7045
   77SLPC   C22 6961   6.025   1.997   6.986 -0.3866  0.2235 -0.6416
   77SLPC   H2R 6962   5.935   2.033   7.040 -0.9582  1.9029 -2.5792
   77SLPC   H2S 6963   6.003   1.889   6.977  0.5846 -0.1741  1.2194
   77SLPC    C3 6964   5.858   2.265   6.700  0.0063 -0.3569  0.2606
   77SLPC    HX 6965   5.763   2.258   6.758  0.1059  1.2013  0.6676
   77SLPC    HY 6966   5.844   2.310   6.600 -1.1635 -0.5881  0.3057
   77SLPC   O31 6967   5.939   2.350   6.783 -0.0795  0.1720 -0.6206
   77SLPC   C31 6968   6.037   2.417   6.724 -0.2714 -0.0678  0.2188
   77SLPC   O32 6969   6.071   2.406   6.607  0.3683  0.2251  0.5477
   77SLPC   C32 6970   6.108   2.504   6.829 -0.0068 -0.1001  0.1199
   77SLPC   H2X 6971   6.027   2.566   6.874 -0.7190 -0.9272  0.0007
   77SLPC   H2Y 6972   6.180   2.575   6.783  1.5415  0.1587  2.7504
   77SLPC   C23 6973   6.150   2.022   7.078 -0.6255  0.5729  1.1006
   77SLPC   H3R 6974   6.174   2.130   7.089 -0.4265  0.6503  0.0698
   77SLPC   H3S 6975   6.237   1.972   7.031 -0.6605  1.1903  0.3461
   77SLPC   C24 6976   6.137   1.948   7.212 -0.8794 -0.3479 -0.0228
   77SLPC   H4R 6977   6.238   1.913   7.239 -0.4899 -0.5822 -1.7105
   77SLPC   H4S 6978   6.077   1.855   7.206 -0.5590 -0.7653  2.2554
   77SLPC   C25 6979   6.077   2.030   7.322 -0.3015 -0.5649 -0.9450
   77SLPC   H5R 6980   5.982   2.082   7.295 -0.4488  1.3905  2.7018
   77SLPC   H5S 6981   6.144   2.108   7.365 -1.3583 -0.2198  0.1486
   77SLPC   C26 6982   6.046   1.952   7.449  0.2380  0.4869  0.0013
   77SLPC   H6R 6983   5.978   1.868   7.424  1.3403 -1.2695  2.4641
   77SLPC   H6S 6984   5.991   2.019   7.518  0.7675  0.0660  0.8508
   77SLPC   C27 6985   6.168   1.893   7.523 -0.1631 -0.1995 -0.3010
   77SLPC   H7R 6986   6.248   1.966   7.546  1.7824 -2.1515 -0.5654
   77SLPC   H7S 6987   6.216   1.815   7.460  2.4729  0.3539  0.9084
   77SLPC   C28 6988   6.131   1.834   7.663 -0.0828  0.4334  0.5580
   77SLPC   H8R 6989   6.071   1.914   7.710 -1.6683  0.1443 -0.8834
   77SLPC   H8S 6990   6.228   1.810   7.711 -0.8147  0.5565  2.1361
   77SLPC   C29 6991   6.053   1.701   7.661 -0.0251 -0.8463 -0.0389
   77SLPC   H9R 6992   6.080   1.643   7.571 -0.4898 -2.5225  0.8629
   77SLPC  C210 6993   5.952   1.657   7.737 -0.1935 -0.5138 -0.8659
   77SLPC  H10R 6994   5.910   1.555   7.727  1.3725 -1.2319 -0.4464
   77SLPC  C211 6995   5.914   1.728   7.867  0.0646 -0.0330 -0.5306
   77SLPC  H11R 6996   5.962   1.829   7.872 -1.2308  0.5784  0.1704
   77SLPC  H11S 6997   5.967   1.666   7.942  1.0837  0.1320 -1.0934
   77SLPC  C212 6998   5.766   1.732   7.896  0.5645 -0.1637 -0.4392
   77SLPC  H12R 6999   5.702   1.712   7.808  0.7028  0.9063 -0.7920
   77SLPC  C213 7000   5.694   1.758   8.012 -0.2482  0.1458 -0.5136
   77SLPC  H13R 7001   5.586   1.737   8.005 -0.3932  1.5007 -3.2969
   77SLPC  C214 7002   5.747   1.796   8.140  0.4861  0.0614  0.1828
   77SLPC  H14R 7003   5.692   1.884   8.178 -1.8026 -1.1580 -0.1276
   77SLPC  H14S 7004   5.855   1.816   8.123  0.7520 -1.5511 -0.1423
   77SLPC  C215 7005   5.742   1.677   8.239  0.0777 -0.3758 -0.0201
   77SLPC  H15R 7006   5.809   1.595   8.207  0.4769  0.0714 -0.3460
   77SLPC  H15S 7007   5.637   1.642   8.248 -0.9800  2.2447 -1.1347
   77SLPC  C216 7008   5.796   1.707   8.377  0.0625  0.2629  0.4848
   77SLPC  H16R 7009   5.732   1.784   8.426  0.7970 -0.2938  2.4374
   77SLPC  H16S 7010   5.892   1.763   8.378  0.7122 -0.8396  1.0594
   77SLPC  C217 7011   5.819   1.585   8.455  0.4412  0.5506 -1.1879
   77SLPC  H17R 7012   5.729   1.522   8.474  2.0135 -1.1608  1.0480
   77SLPC  H17S 7013   5.840   1.629   8.555  0.6654  0.5996 -1.2554
   77SLPC  C218 7014   5.946   1.502   8.429 -0.3060  0.2203  0.0518
   77SLPC  H18R 7015   5.945   1.458   8.327  0.7336 -0.2545  0.2279
   77SLPC  H18S 7016   5.960   1.417   8.499  1.3280 -0.7670 -1.4054
   77SLPC  H18T 7017   6.038   1.562   8.445 -0.8513  0.8987  0.7224
   77SLPC   C33 7018   6.173   2.424   6.942 -0.2162 -0.4202  0.2314
   77SLPC   H3X 7019   6.260   2.368   6.902  0.7543  1.0157  0.2416
   77SLPC   H3Y 7020   6.111   2.340   6.978  2.2054 -2.0144  0.9310
   77SLPC   C34 7021   6.218   2.518   7.056  0.2232 -0.5788 -0.6508
   77SLPC   H4X 7022   6.131   2.552   7.116 -0.4240 -0.1136 -1.8353
   77SLPC   H4Y 7023   6.267   2.610   7.018  0.7297 -0.6615 -0.2099
   77SLPC   C35 7024   6.297   2.440   7.166 -0.3779  0.5468  0.3558
   77SLPC   H5X 7025   6.399   2.430   7.123 -0.0589  2.9571  0.4101
   77SLPC   H5Y 7026   6.250   2.341   7.186 -2.0579  1.0302 -1.0351
   77SLPC   C36 7027   6.301   2.515   7.301 -0.0166 -0.4553  0.2608
   77SLPC   H6X 7028   6.197   2.543   7.327 -0.1216  0.7213 -1.2609
   77SLPC   H6Y 7029   6.364   2.602   7.273 -3.0244  1.6529 -0.4705
   77SLPC   C37 7030   6.370   2.432   7.407  0.5134 -0.2344  1.1857
   77SLPC   H7X 7031   6.469   2.401   7.368 -0.2515  0.9700 -1.9573
   77SLPC   H7Y 7032   6.311   2.339   7.421  1.6331 -1.0894  0.4032
   77SLPC   C38 7033   6.382   2.510   7.538 -0.2880 -0.6045 -0.3530
   77SLPC   H8X 7034   6.282   2.502   7.585 -1.4207 -0.3760 -2.5771
   77SLPC   H8Y 7035   6.401   2.617   7.518 -0.8087  0.2553  3.0768
   77SLPC   C39 7036   6.501   2.455   7.623 -0.5171 -0.2110 -0.0156
   77SLPC   H9X 7037   6.585   2.430   7.554  1.3929  1.4128  1.6108
   77SLPC   H9Y 7038   6.467   2.371   7.688 -2.1036 -0.5463 -1.2153
   77SLPC  C310 7039   6.548   2.558   7.727  0.1382 -0.3052 -0.5791
   77SLPC  H10X 7040   6.462   2.579   7.794 -0.7663 -1.5458 -1.3102
   77SLPC  H10Y 7041   6.584   2.654   7.685 -2.8590  1.0836 -0.2348
   77SLPC  C311 7042   6.648   2.495   7.819 -0.1801 -0.2061  0.4402
   77SLPC  H11X 7043   6.744   2.477   7.766  0.9553 -0.7913  2.5536
   77SLPC  H11Y 7044   6.602   2.403   7.861  1.1268  0.0945  2.7563
   77SLPC  C312 7045   6.691   2.588   7.930  0.4253  0.0029 -0.1572
   77SLPC  H12X 7046   6.739   2.680   7.889  1.1397  0.3487  1.4051
   77SLPC  H12Y 7047   6.773   2.537   7.985  0.8983  1.4288  0.5138
   77SLPC  C313 7048   6.584   2.635   8.024 -0.7524 -0.1529 -0.1872
   77SLPC  H13X 7049   6.489   2.677   7.984  0.6470  1.7795 -1.6519
   77SLPC  H13Y 7050   6.616   2.722   8.085 -0.2375 -0.5591  0.1324
   77SLPC  C314 7051   6.556   2.524   8.129 -0.3203  0.1801 -0.2566
   77SLPC  H14X 7052   6.655   2.495   8.171 -0.2128 -0.7881 -1.1366
   77SLPC  H14Y 7053   6.508   2.445   8.067  0.8363 -0.9024  0.1856
   77SLPC  C315 7054   6.472   2.565   8.247  0.1791  0.1823  0.0689
   77SLPC  H15X 7055   6.370   2.579   8.207  0.9212  1.6161 -1.4549
   77SLPC  H15Y 7056   6.497   2.665   8.289  0.2713  0.8799 -1.5786
   77SLPC  C316 7057   6.469   2.461   8.370 -0.8315 -0.9355 -0.8217
   77SLPC  H16X 7058   6.394   2.513   8.434 -2.2620 -2.2931 -1.3144
   77SLPC  H16Y 7059   6.564   2.474   8.427 -0.3670  0.6211 -1.8978
   77SLPC  C317 7060   6.442   2.313   8.338  0.0785  0.1844  0.4518
   77SLPC  H17X 7061   6.530   2.269   8.389  1.1672  2.4608  0.6977
   77SLPC  H17Y 7062   6.449   2.287   8.230 -0.5995 -1.2463  0.7450
   77SLPC  C318 7063   6.304   2.265   8.382 -0.5427  0.1751  0.0509
   77SLPC  H18X 7064   6.226   2.284   8.305  0.2883  0.4935 -0.7329
   77SLPC  H18Y 7065   6.284   2.310   8.482  0.4618 -2.1634  1.3823
   77SLPC  H18Z 7066   6.309   2.156   8.400  0.3947  0.1290 -0.3915
   78SLPC     N 7067   0.477   4.251   5.862  0.1174 -0.6593  0.2794
   78SLPC   C13 7068   0.446   4.335   5.735 -0.1868 -0.6945 -0.0390
   78SLPC  H13A 7069   0.422   4.436   5.765 -3.1702 -1.6735  1.2774
   78SLPC  H13B 7070   0.532   4.339   5.671 -1.6188 -0.7815 -2.0705
   78SLPC  H13C 7071   0.364   4.286   5.684  1.5794 -2.1141 -1.6389
   78SLPC   C14 7072   0.600   4.310   5.918  0.0778 -0.5865 -0.1152
   78SLPC  H14A 7073   0.627   4.264   6.012 -0.9977  1.7033  1.4185
   78SLPC  H14B 7074   0.681   4.307   5.847  1.0374  3.2361  0.5783
   78SLPC  H14C 7075   0.589   4.414   5.947 -0.1802 -0.3529 -1.0427
   78SLPC   C15 7076   0.511   4.117   5.809 -0.2345 -0.5788 -0.0084
   78SLPC  H15A 7077   0.596   4.120   5.744  0.1027  4.1157  0.2828
   78SLPC  H15B 7078   0.533   4.055   5.895 -1.3750 -2.2415 -0.8658
   78SLPC  H15C 7079   0.427   4.072   5.758 -2.2559  1.4262  1.3203
   78SLPC   C12 7080   0.361   4.246   5.959 -0.4070 -0.4372  0.1292
   78SLPC  H12A 7081   0.288   4.180   5.914 -0.3072  0.2011 -1.0004
   78SLPC  H12B 7082   0.309   4.340   5.966  0.1225 -0.1375  0.0793
   78SLPC   C11 7083   0.389   4.178   6.097 -0.7597  0.1965 -0.4567
   78SLPC  H11A 7084   0.289   4.165   6.143 -0.8706 -0.2745 -0.8253
   78SLPC  H11B 7085   0.443   4.250   6.161 -2.5404 -0.6372  2.1340
   78SLPC     P 7086   0.369   3.909   6.080  0.1203 -0.1737 -0.0301
   78SLPC   O13 7087   0.219   3.922   6.060 -0.0191  0.1342 -0.3498
   78SLPC   O14 7088   0.435   3.818   5.981 -0.0725  0.2492  0.7058
   78SLPC   O12 7089   0.454   4.047   6.086  0.1230  0.4382  0.0962
   78SLPC   O11 7090   0.399   3.858   6.229  0.5175  0.9328 -0.7008
   78SLPC    C1 7091   0.369   3.948   6.344 -0.0592  0.0780  0.0361
   78SLPC    HA 7092   0.434   4.038   6.345 -1.4398  1.1315 -0.1973
   78SLPC    HB 7093   0.262   3.979   6.340 -0.7160 -1.9970  0.4549
   78SLPC    C2 7094   0.372   3.874   6.480 -0.7013  0.2751  0.4346
   78SLPC    HS 7095   0.309   3.942   6.542 -0.5677 -0.2668  1.1809
   78SLPC   O21 7096   0.507   3.858   6.529  0.2063 -0.3942  0.3141
   78SLPC   C21 7097   0.550   3.966   6.596 -0.7541 -0.1998 -0.2927
   78SLPC   O22 7098   0.496   4.075   6.594  0.1380  0.0614 -0.0828
   78SLPC   C22 7099   0.680   3.936   6.669 -0.8432  0.2059  0.2592
   78SLPC   H2R 7100   0.743   3.863   6.615  0.4944 -0.1830  2.2242
   78SLPC   H2S 7101   0.736   4.031   6.684  0.3238 -0.5334  0.7626
   78SLPC    C3 7102   0.284   3.739   6.470  0.2161 -0.5584  0.5612
   78SLPC    HX 7103   0.315   3.692   6.374  0.5822 -0.4661  0.6326
   78SLPC    HY 7104   0.176   3.761   6.457  0.6770  1.8984  0.4164
   78SLPC   O31 7105   0.316   3.656   6.581 -0.0354 -0.0115 -0.4004
   78SLPC   C31 7106   0.237   3.685   6.686  0.2578 -0.8157 -0.9901
   78SLPC   O32 7107   0.136   3.761   6.682 -0.9075  0.7457 -0.1161
   78SLPC   C32 7108   0.301   3.632   6.811  0.0339  0.8000  0.6910
   78SLPC   H2X 7109   0.411   3.625   6.798 -0.1701 -0.5626 -0.6631
   78SLPC   H2Y 7110   0.267   3.527   6.812 -2.6980  1.5507 -1.4733
   78SLPC   C23 7111   0.643   3.868   6.803  0.0997  0.0084  0.4641
   78SLPC   H3R 7112   0.584   3.776   6.787 -0.1597 -0.3588  3.0126
   78SLPC   H3S 7113   0.591   3.940   6.871  2.4170 -0.7095  3.2078
   78SLPC   C24 7114   0.762   3.806   6.875 -0.5007 -0.5294 -0.2339
   78SLPC   H4R 7115   0.842   3.879   6.900 -0.3051 -0.6887 -0.3892
   78SLPC   H4S 7116   0.806   3.728   6.809 -2.2800 -1.2401 -0.6301
   78SLPC   C25 7117   0.720   3.740   7.013  0.2254  0.1384 -0.2181
   78SLPC   H5R 7118   0.801   3.666   7.026 -0.7317 -0.9569 -0.2955
   78SLPC   H5S 7119   0.628   3.680   7.000 -0.1691  0.7574 -0.3413
   78SLPC   C26 7120   0.710   3.833   7.134  0.6636  1.1067 -0.1170
   78SLPC   H6R 7121   0.675   3.770   7.219  1.4015  0.3175 -0.3734
   78SLPC   H6S 7122   0.636   3.913   7.116  0.1434  0.5325 -0.5688
   78SLPC   C27 7123   0.840   3.895   7.192 -1.1239 -0.1211 -0.3226
   78SLPC   H7R 7124   0.900   3.960   7.124  0.9097 -0.0230  1.4486
   78SLPC   H7S 7125   0.899   3.804   7.216 -0.5786  0.2950 -0.0404
   78SLPC   C28 7126   0.814   3.967   7.328  0.3257  0.2828 -0.5361
   78SLPC   H8R 7127   0.782   3.880   7.389 -2.1354  0.0069 -2.1061
   78SLPC   H8S 7128   0.733   4.041   7.316  0.5407  0.1983 -2.8209
   78SLPC   C29 7129   0.920   4.055   7.397 -0.1437  0.7828 -0.2428
   78SLPC   H9R 7130   0.956   4.133   7.328 -4.2842  1.0585 -2.4520
   78SLPC  C210 7131   0.968   4.026   7.520  0.3315  0.0247 -0.3598
   78SLPC  H10R 7132   1.045   4.092   7.563  1.3572 -1.0631 -0.4955
   78SLPC  C211 7133   0.929   3.909   7.611 -0.0911 -0.0935  0.2086
   78SLPC  H11R 7134   1.018   3.881   7.672 -0.1922 -3.4897 -0.9629
   78SLPC  H11S 7135   0.891   3.829   7.544 -0.2257  0.4064 -0.3197
   78SLPC  C212 7136   0.822   3.931   7.706  0.3388  0.3927  0.0601
   78SLPC  H12R 7137   0.732   3.961   7.650  0.7524  1.2198 -0.1741
   78SLPC  C213 7138   0.826   3.930   7.841  0.1088  0.1661  0.0636
   78SLPC  H13R 7139   0.736   3.956   7.898  0.9683  0.3570  1.3819
   78SLPC  C214 7140   0.945   3.897   7.933  0.2415  0.2695  0.6808
   78SLPC  H14R 7141   1.043   3.934   7.895  0.5300 -0.2118  0.9370
   78SLPC  H14S 7142   0.947   3.787   7.948  1.4970  0.1757  0.0256
   78SLPC  C215 7143   0.919   3.950   8.076 -0.2274  0.0212  0.0729
   78SLPC  H15R 7144   0.825   3.908   8.116 -1.3249  2.7358  0.5535
   78SLPC  H15S 7145   0.911   4.060   8.089 -0.1627  0.1460 -0.8944
   78SLPC  C216 7146   1.024   3.903   8.172 -0.0925 -0.3780  0.0631
   78SLPC  H16R 7147   1.124   3.943   8.144 -1.5938  1.7430 -2.8246
   78SLPC  H16S 7148   1.015   3.793   8.166 -0.2340 -0.3725  0.1621
   78SLPC  C217 7149   1.009   3.969   8.310  0.1357  0.3586 -0.2660
   78SLPC  H17R 7150   1.000   3.881   8.377  1.2125 -0.0610 -0.6636
   78SLPC  H17S 7151   0.918   4.033   8.314  0.7183  1.1407  0.9605
   78SLPC  C218 7152   1.140   4.039   8.370  0.0431 -0.1763  0.3824
   78SLPC  H18R 7153   1.130   4.037   8.481 -1.4288 -1.8318  0.2872
   78SLPC  H18S 7154   1.147   4.142   8.330  1.1153 -1.2590 -2.4624
   78SLPC  H18T 7155   1.232   3.985   8.338 -1.3775 -1.9726 -0.9302
   78SLPC   C33 7156   0.261   3.709   6.936  0.3543  0.0272 -0.5644
   78SLPC   H3X 7157   0.163   3.673   6.976 -0.2037  3.1586  1.2579
   78SLPC   H3Y 7158   0.247   3.816   6.910  0.8396 -0.2085 -1.8826
   78SLPC   C34 7159   0.358   3.707   7.051  0.9141 -0.3514 -0.4762
   78SLPC   H4X 7160   0.435   3.780   7.021  0.0880 -0.0866 -2.0705
   78SLPC   H4Y 7161   0.414   3.611   7.056 -1.2597 -1.6928 -0.3921
   78SLPC   C35 7162   0.287   3.749   7.179 -0.1564 -0.5333 -0.2878
   78SLPC   H5X 7163   0.210   3.677   7.214  0.1008 -0.8968 -0.4801
   78SLPC   H5Y 7164   0.228   3.843   7.165  0.5752 -0.0959 -0.4547
   78SLPC   C36 7165   0.407   3.788   7.277 -0.4010  0.2715  0.3752
   78SLPC   H6X 7166   0.460   3.877   7.237  0.7176  0.4278  2.0849
   78SLPC   H6Y 7167   0.466   3.696   7.297 -1.5827 -0.6781 -0.3344
   78SLPC   C37 7168   0.337   3.839   7.408 -0.0696  0.7333 -0.1590
   78SLPC   H7X 7169   0.253   3.774   7.440 -1.7539  2.0422 -1.6920
   78SLPC   H7Y 7170   0.301   3.942   7.387  1.2214  1.0471 -0.9262
   78SLPC   C38 7171   0.437   3.862   7.525  0.9886  0.0271 -0.1851
   78SLPC   H8X 7172   0.522   3.928   7.494  1.1873  0.9707  2.1409
   78SLPC   H8Y 7173   0.478   3.762   7.550 -2.7251 -2.9179 -4.4535
   78SLPC   C39 7174   0.370   3.922   7.648 -0.6229 -1.1367 -0.3182
   78SLPC   H9X 7175   0.287   3.856   7.682 -1.2558  0.4110  1.3412
   78SLPC   H9Y 7176   0.323   4.021   7.630  1.8025  0.4043  1.3117
   78SLPC  C310 7177   0.462   3.944   7.777 -0.1829  0.1441 -0.2621
   78SLPC  H10X 7178   0.526   4.031   7.753  0.9506 -0.0342  1.9063
   78SLPC  H10Y 7179   0.524   3.855   7.802 -0.8145 -0.4137 -0.6390
   78SLPC  C311 7180   0.360   3.977   7.893  0.2073 -0.1628 -0.9461
   78SLPC  H11X 7181   0.311   3.883   7.924 -1.6612  0.8062 -0.8332
   78SLPC  H11Y 7182   0.274   4.035   7.855 -0.6113 -0.1632  0.8225
   78SLPC  C312 7183   0.415   4.041   8.018  0.3950  0.1065  0.3323
   78SLPC  H12X 7184   0.338   4.082   8.087 -0.3445 -0.0274 -0.3996
   78SLPC  H12Y 7185   0.477   4.123   7.976 -2.3585  1.8621 -0.5629
   78SLPC  C313 7186   0.498   3.938   8.103 -0.4251  0.9052 -0.2207
   78SLPC  H13X 7187   0.577   3.886   8.046 -0.7847 -1.6171  1.4450
   78SLPC  H13Y 7188   0.419   3.866   8.132 -0.5513  0.9357 -0.4832
   78SLPC  C314 7189   0.554   3.995   8.233 -0.1117 -0.3550 -0.4248
   78SLPC  H14X 7190   0.462   4.043   8.273  0.0999  0.2866 -0.7031
   78SLPC  H14Y 7191   0.621   4.082   8.217 -0.6058 -0.2708 -2.2390
   78SLPC  C315 7192   0.606   3.886   8.332  0.4355  0.3169 -0.1969
   78SLPC  H15X 7193   0.713   3.888   8.302  0.3026  1.9833 -0.6465
   78SLPC  H15Y 7194   0.567   3.784   8.312 -1.4039  0.8908  0.2514
   78SLPC  C316 7195   0.570   3.921   8.478 -0.3236  0.4740 -0.2712
   78SLPC  H16X 7196   0.467   3.882   8.490 -0.6525 -0.0941 -3.8753
   78SLPC  H16Y 7197   0.583   4.030   8.496  1.5955  0.6268 -2.1485
   78SLPC  C317 7198   0.670   3.830   8.564 -0.3071  0.0945 -0.1937
   78SLPC  H17X 7199   0.776   3.854   8.540 -0.3167  0.3868  0.0604
   78SLPC  H17Y 7200   0.650   3.723   8.541 -1.7993  0.0899  0.9660
   78SLPC  C318 7201   0.635   3.851   8.709 -0.0130  0.5042  0.5683
   78SLPC  H18X 7202   0.674   3.948   8.747  2.0578  0.1744 -0.5621
   78SLPC  H18Y 7203   0.666   3.757   8.761  0.1928 -0.0397 -0.5136
   78SLPC  H18Z 7204   0.525   3.851   8.719 -0.2834  0.4246 -1.8992
   79SLPC     N 7205   5.731   5.101   6.171 -0.0050  0.4690  0.7113
   79SLPC   C13 7206   5.628   4.992   6.153 -0.2322  0.3452  0.7938
   79SLPC  H13A 7207   5.553   5.026   6.083 -2.2192 -1.4159  1.9384
   79SLPC  H13B 7208   5.660   4.897   6.112  0.2468 -0.4032  2.7942
   79SLPC  H13C 7209   5.581   4.978   6.249 -0.9159  1.2455  0.6087
   79SLPC   C14 7210   5.783   5.137   6.036 -0.3929  0.1667 -0.0243
   79SLPC  H14A 7211   5.834   5.063   5.976  1.5750  3.3280 -2.6200
   79SLPC  H14B 7212   5.708   5.169   5.965 -0.7620 -2.7542 -1.0876
   79SLPC  H14C 7213   5.866   5.204   6.054  0.0129 -0.1414 -0.6866
   79SLPC   C15 7214   5.843   5.043   6.257 -0.1265 -0.5747  0.5429
   79SLPC  H15A 7215   5.918   5.117   6.278 -2.4091  1.9045  0.5568
   79SLPC  H15B 7216   5.812   5.002   6.352 -0.2294  0.0770  0.7911
   79SLPC  H15C 7217   5.885   4.961   6.201 -0.2563  0.6797 -1.4799
   79SLPC   C12 7218   5.673   5.226   6.235  0.0510  0.0610  0.2726
   79SLPC  H12A 7219   5.599   5.275   6.174 -0.8998  0.4939  1.7386
   79SLPC  H12B 7220   5.752   5.299   6.246 -0.2159  0.2068  1.3216
   79SLPC   C11 7221   5.607   5.210   6.375  0.0821  0.4488  0.4401
   79SLPC  H11A 7222   5.581   5.313   6.408 -1.4321 -0.6031  2.7509
   79SLPC  H11B 7223   5.690   5.177   6.440  1.9673  2.2959 -0.8834
   79SLPC     P 7224   5.360   5.152   6.303  0.1468 -0.1433  0.2995
   79SLPC   O13 7225   5.388   5.259   6.202  0.2713  0.2793  0.3973
   79SLPC   O14 7226   5.304   5.024   6.245  0.1390 -0.7604 -0.8440
   79SLPC   O12 7227   5.493   5.117   6.376 -0.2310 -0.1392  0.8023
   79SLPC   O11 7228   5.267   5.208   6.415 -0.0652  0.3648  0.0091
   79SLPC    C1 7229   5.298   5.178   6.555  1.2503 -0.0194  1.0977
   79SLPC    HA 7230   5.245   5.085   6.583  1.0654 -0.4811 -0.6391
   79SLPC    HB 7231   5.407   5.157   6.568  2.0309  1.3801 -2.1008
   79SLPC    C2 7232   5.258   5.297   6.647  0.5733  0.8918 -0.5181
   79SLPC    HS 7233   5.150   5.306   6.623 -0.1347 -1.8462  1.2873
   79SLPC   O21 7234   5.345   5.416   6.620  0.2549  0.0449 -0.3249
   79SLPC   C21 7235   5.288   5.492   6.525 -0.8725  0.1498  0.2234
   79SLPC   O22 7236   5.181   5.475   6.475 -0.0223  0.1902 -0.4800
   79SLPC   C22 7237   5.379   5.607   6.471  1.2072  0.5714  0.4044
   79SLPC   H2R 7238   5.484   5.570   6.474  0.1506 -3.1553 -2.2905
   79SLPC   H2S 7239   5.351   5.619   6.364 -1.8155 -0.4547  0.9955
   79SLPC    C3 7240   5.272   5.267   6.790  0.0897 -0.5249  0.5472
   79SLPC    HX 7241   5.235   5.347   6.858 -0.2590  0.4147 -0.7123
   79SLPC    HY 7242   5.381   5.262   6.807  0.0489 -0.7138  0.7585
   79SLPC   O31 7243   5.218   5.142   6.837 -0.1546  0.9757  0.2328
   79SLPC   C31 7244   5.095   5.144   6.885 -0.2217 -0.5146  0.0117
   79SLPC   O32 7245   5.018   5.240   6.878  0.2962  0.4314 -0.3081
   79SLPC   C32 7246   5.062   5.011   6.962 -0.3032 -0.0542 -0.2002
   79SLPC   H2X 7247   5.143   4.936   6.949 -0.7849 -0.9316  1.5208
   79SLPC   H2Y 7248   4.968   4.977   6.913 -0.6512 -0.8401  0.9591
   79SLPC   C23 7249   5.368   5.734   6.559 -0.4101  0.6257 -0.0149
   79SLPC   H3R 7250   5.394   5.698   6.661  1.7741  0.9291 -0.4261
   79SLPC   H3S 7251   5.265   5.774   6.549 -0.7684 -0.6196 -1.8413
   79SLPC   C24 7252   5.475   5.835   6.527  0.3308  0.6936  1.1494
   79SLPC   H4R 7253   5.456   5.868   6.423  2.3452 -1.5693 -0.0168
   79SLPC   H4S 7254   5.570   5.778   6.526  0.2133  0.4854  1.4617
   79SLPC   C25 7255   5.490   5.945   6.635 -0.2329 -0.4512  0.0994
   79SLPC   H5R 7256   5.399   6.008   6.631  0.8501  1.2116  0.4771
   79SLPC   H5S 7257   5.572   6.012   6.600 -1.4270  2.2958  2.1688
   79SLPC   C26 7258   5.502   5.894   6.777  0.2632  0.8890  0.1404
   79SLPC   H6R 7259   5.593   5.833   6.798 -0.3883  0.4212  1.7419
   79SLPC   H6S 7260   5.417   5.834   6.817  0.6329  1.1446  1.3530
   79SLPC   C27 7261   5.526   6.020   6.860  0.2235 -0.3955 -0.2383
   79SLPC   H7R 7262   5.445   6.089   6.829  0.4300  0.1414  0.4088
   79SLPC   H7S 7263   5.623   6.059   6.822 -0.1090 -0.9188 -1.7202
   79SLPC   C28 7264   5.510   6.002   7.013 -0.7942  0.5629 -0.0086
   79SLPC   H8R 7265   5.574   5.919   7.049 -1.6515  0.2679  0.8808
   79SLPC   H8S 7266   5.409   5.963   7.038 -0.2805 -1.8511 -1.3359
   79SLPC   C29 7267   5.546   6.129   7.082  0.5698  0.2079 -0.9485
   79SLPC   H9R 7268   5.514   6.220   7.030 -1.7007  0.6372  1.0348
   79SLPC  C210 7269   5.599   6.145   7.205 -0.2850  0.1856 -0.1509
   79SLPC  H10R 7270   5.602   6.247   7.246 -1.5728  0.8902 -1.7152
   79SLPC  C211 7271   5.637   6.040   7.310  0.6641  0.5151 -0.5070
   79SLPC  H11R 7272   5.639   5.937   7.270  3.3608  0.6415 -0.8958
   79SLPC  H11S 7273   5.553   6.039   7.383  0.5689  1.0884 -0.6066
   79SLPC  C212 7274   5.762   6.048   7.394  0.3177 -0.3946  1.1730
   79SLPC  H12R 7275   5.854   6.029   7.338  0.0408  2.1558 -0.3021
   79SLPC  C213 7276   5.775   6.082   7.524 -0.0908 -0.8819 -0.7040
   79SLPC  H13R 7277   5.875   6.065   7.566  0.0351 -0.2243 -0.7254
   79SLPC  C214 7278   5.667   6.117   7.626 -0.0371 -0.5801  0.3970
   79SLPC  H14R 7279   5.581   6.048   7.613 -0.9560  0.6216  0.0041
   79SLPC  H14S 7280   5.640   6.224   7.625  2.1267  0.0209 -0.0550
   79SLPC  C215 7281   5.735   6.072   7.754 -0.4097 -0.1329  0.2200
   79SLPC  H15R 7282   5.833   6.121   7.772 -0.0130 -0.3570 -1.2254
   79SLPC  H15S 7283   5.766   5.967   7.736  0.4186  0.4138 -1.7636
   79SLPC  C216 7284   5.642   6.089   7.875  0.3317 -0.6420  0.0526
   79SLPC  H16R 7285   5.543   6.047   7.847 -2.0342  3.0137  2.0809
   79SLPC  H16S 7286   5.635   6.197   7.898 -0.2194 -1.0570  2.0669
   79SLPC  C217 7287   5.692   6.014   7.998  1.1203 -0.1086  0.5308
   79SLPC  H17R 7288   5.800   6.042   8.005  0.5470  2.2208  0.6462
   79SLPC  H17S 7289   5.691   5.908   7.963 -2.9703 -0.7408  2.0265
   79SLPC  C218 7290   5.614   6.020   8.125  0.0646  0.0757  0.4493
   79SLPC  H18R 7291   5.671   5.963   8.201 -1.0322 -0.3398  0.9785
   79SLPC  H18S 7292   5.514   5.974   8.104  0.4401  0.2264 -2.0629
   79SLPC  H18T 7293   5.586   6.123   8.157 -1.2745  0.4143 -1.5821
   79SLPC   C33 7294   5.034   5.023   7.114 -0.5294 -0.8319  0.3397
   79SLPC   H3X 7295   5.003   4.919   7.137 -2.3593 -0.6314 -1.0456
   79SLPC   H3Y 7296   4.947   5.087   7.137  0.6231  0.1705  2.1703
   79SLPC   C34 7297   5.150   5.072   7.202  0.0257 -0.3522 -0.1987
   79SLPC   H4X 7298   5.172   5.180   7.190  0.3376 -0.4462 -0.4642
   79SLPC   H4Y 7299   5.240   5.011   7.179  0.6602  0.3684  0.3155
   79SLPC   C35 7300   5.111   5.055   7.345 -1.0092 -0.4435 -0.1890
   79SLPC   H5X 7301   5.101   4.945   7.360 -1.3067 -1.1267 -4.3270
   79SLPC   H5Y 7302   5.011   5.101   7.363  0.6692  3.4488  0.1760
   79SLPC   C36 7303   5.201   5.128   7.445 -0.3693  0.2205  0.4777
   79SLPC   H6X 7304   5.189   5.236   7.423 -1.7350 -0.3045 -1.7544
   79SLPC   H6Y 7305   5.309   5.101   7.436 -0.7530 -0.7344 -2.4565
   79SLPC   C37 7306   5.153   5.107   7.590  0.1520 -0.0544 -0.0712
   79SLPC   H7X 7307   5.155   5.000   7.619  0.3678  0.0909  0.4777
   79SLPC   H7Y 7308   5.048   5.141   7.609  0.4169  0.3237  0.7827
   79SLPC   C38 7309   5.237   5.186   7.690  0.0620  0.3669  0.1090
   79SLPC   H8X 7310   5.210   5.293   7.694 -2.2823 -0.1973  1.9851
   79SLPC   H8Y 7311   5.346   5.175   7.674  0.5286  0.4147  2.7645
   79SLPC   C39 7312   5.216   5.127   7.833 -0.2051 -0.3485  0.2086
   79SLPC   H9X 7313   5.277   5.034   7.837  1.5246  0.7643  0.9408
   79SLPC   H9Y 7314   5.106   5.116   7.849 -1.0449  1.3464 -3.3725
   79SLPC  C310 7315   5.267   5.229   7.947 -0.3836 -0.3041 -0.3824
   79SLPC  H10X 7316   5.316   5.313   7.892 -1.0621 -0.9446 -2.0376
   79SLPC  H10Y 7317   5.334   5.179   8.020 -1.4702 -0.2759  0.6608
   79SLPC  C311 7318   5.156   5.286   8.042 -0.4182  0.2163 -0.0716
   79SLPC  H11X 7319   5.118   5.193   8.089  2.3765  0.0413  2.0574
   79SLPC  H11Y 7320   5.070   5.322   7.981 -1.7828 -2.1600  0.2985
   79SLPC  C312 7321   5.200   5.372   8.160  0.9800  0.5700 -0.8035
   79SLPC  H12X 7322   5.224   5.476   8.131 -0.4059  0.5955 -1.9143
   79SLPC  H12Y 7323   5.290   5.321   8.202  1.0233 -0.7113 -2.3389
   79SLPC  C313 7324   5.093   5.384   8.270  0.2411 -0.4647 -0.5024
   79SLPC  H13X 7325   5.035   5.291   8.282  0.5415 -0.7126 -0.9543
   79SLPC  H13Y 7326   5.036   5.476   8.244 -0.1109 -0.3240  0.7071
   79SLPC  C314 7327   5.158   5.411   8.407  0.0137 -0.1839  0.4348
   79SLPC  H14X 7328   5.266   5.434   8.404  0.4670 -2.0200  1.4448
   79SLPC  H14Y 7329   5.162   5.319   8.470 -0.1504 -1.3227 -1.1492
   79SLPC  C315 7330   5.089   5.523   8.485 -0.8775 -0.5946  0.3594
   79SLPC  H15X 7331   5.092   5.619   8.429  0.5902 -0.9800 -0.2597
   79SLPC  H15Y 7332   5.139   5.522   8.584 -0.4916 -0.8399  0.1624
   79SLPC  C316 7333   4.940   5.493   8.514 -0.4369  0.8216  0.1324
   79SLPC  H16X 7334   4.927   5.383   8.522  0.5959  0.7547  1.1782
   79SLPC  H16Y 7335   4.875   5.511   8.426  0.0557  1.5847 -0.0886
   79SLPC  C317 7336   4.902   5.562   8.637  0.5050  0.8750 -0.0897
   79SLPC  H17X 7337   4.794   5.539   8.650  0.5553  1.8064  2.5034
   79SLPC  H17Y 7338   4.906   5.671   8.619  0.9047  1.0545  1.0103
   79SLPC  C318 7339   4.971   5.515   8.768 -1.7005 -0.0478  0.1480
   79SLPC  H18X 7340   5.073   5.558   8.779 -2.2813  1.5094 -0.3393
   79SLPC  H18Y 7341   4.973   5.404   8.778  1.6715 -0.0923  0.2580
   79SLPC  H18Z 7342   4.920   5.558   8.856 -0.8984  1.0782  0.0755
   80SLPC     N 7343   5.828   2.779   6.073  0.6945  0.1145  0.3946
   80SLPC   C13 7344   5.873   2.644   6.013 -0.5830  0.0359 -0.5714
   80SLPC  H13A 7345   5.975   2.657   5.981 -0.2252  1.8347  1.1152
   80SLPC  H13B 7346   5.867   2.562   6.083 -2.0520 -0.2945 -1.0521
   80SLPC  H13C 7347   5.818   2.616   5.924 -0.3788 -0.3457 -0.5794
   80SLPC   C14 7348   5.682   2.770   6.088 -0.5061  0.1909 -0.0811
   80SLPC  H14A 7349   5.650   2.667   6.078  0.1244  0.1020 -1.3456
   80SLPC  H14B 7350   5.648   2.800   6.186 -1.2109 -0.7609 -0.0171
   80SLPC  H14C 7351   5.629   2.818   6.007 -0.2396  1.6421  0.5791
   80SLPC   C15 7352   5.854   2.885   5.973 -0.3217 -0.1963  0.3834
   80SLPC  H15A 7353   5.817   2.859   5.875  2.1087  1.3007 -1.0349
   80SLPC  H15B 7354   5.813   2.979   6.007  0.6222 -0.1755  1.5122
   80SLPC  H15C 7355   5.961   2.889   5.958 -0.5576  2.1444 -1.2852
   80SLPC   C12 7356   5.897   2.809   6.205 -0.2856  1.2400  0.1073
   80SLPC  H12A 7357   5.913   2.718   6.261  1.1956  1.4023 -0.0178
   80SLPC  H12B 7358   5.836   2.881   6.256  0.1060  1.7048 -0.0753
   80SLPC   C11 7359   6.039   2.862   6.190 -0.0358  0.5567  0.3048
   80SLPC  H11A 7360   6.102   2.817   6.110  0.8710  2.5055 -0.1610
   80SLPC  H11B 7361   6.091   2.826   6.281  2.9770 -0.0641 -1.5096
   80SLPC     P 7362   6.015   3.103   6.281 -0.3625  0.1668 -0.2052
   80SLPC   O13 7363   6.099   3.223   6.238  0.3589  0.7091 -0.0544
   80SLPC   O14 7364   5.871   3.123   6.300 -0.5879 -0.0443 -0.0188
   80SLPC   O12 7365   6.043   2.998   6.172 -0.5449 -0.3832 -0.2121
   80SLPC   O11 7366   6.075   3.030   6.415  0.0847 -0.4689  0.0695
   80SLPC    C1 7367   6.186   3.084   6.482 -0.1117  0.1887  0.1676
   80SLPC    HA 7368   6.243   2.989   6.494  0.7499  0.7367  0.5763
   80SLPC    HB 7369   6.234   3.159   6.416 -1.0542  0.7078  0.0704
   80SLPC    C2 7370   6.163   3.160   6.615 -0.5194 -0.6998  0.3184
   80SLPC    HS 7371   6.262   3.200   6.646 -0.2061 -0.3600 -1.0857
   80SLPC   O21 7372   6.097   3.079   6.711  0.2760  0.0869  0.1253
   80SLPC   C21 7373   6.181   3.014   6.789 -0.4079 -0.7461 -0.4881
   80SLPC   O22 7374   6.302   3.031   6.796  0.3151  0.4027  0.2864
   80SLPC   C22 7375   6.107   2.923   6.887  0.6080 -0.7245 -0.6233
   80SLPC   H2R 7376   6.007   2.965   6.907  0.4349 -1.2077 -0.4472
   80SLPC   H2S 7377   6.092   2.827   6.833 -0.4251 -1.0640  0.2454
   80SLPC    C3 7378   6.077   3.286   6.595  0.1079 -0.6261 -0.1828
   80SLPC    HX 7379   5.970   3.259   6.580 -0.0617 -0.6949  1.0515
   80SLPC    HY 7380   6.116   3.320   6.496  0.2725  3.1961  1.0106
   80SLPC   O31 7381   6.107   3.402   6.680 -0.7282 -0.4961 -0.1108
   80SLPC   C31 7382   6.006   3.430   6.768 -1.0269  0.0893 -0.5590
   80SLPC   O32 7383   5.901   3.370   6.773 -0.2871  0.7159 -0.3540
   80SLPC   C32 7384   6.055   3.543   6.861 -0.0232 -0.3556 -0.1589
   80SLPC   H2X 7385   6.041   3.643   6.816  3.4310  0.6331  0.7123
   80SLPC   H2Y 7386   6.159   3.522   6.894 -0.1006  1.1057  1.1233
   80SLPC   C23 7387   6.179   2.900   7.020  0.5167 -0.2803 -0.2751
   80SLPC   H3R 7388   6.288   2.880   7.011  0.3692 -1.9025  1.0589
   80SLPC   H3S 7389   6.144   2.810   7.074  0.9868 -1.6912 -2.2041
   80SLPC   C24 7390   6.167   3.020   7.116 -0.9979  0.3288 -1.1719
   80SLPC   H4R 7391   6.064   3.042   7.152  0.3122  1.1848  2.5292
   80SLPC   H4S 7392   6.196   3.111   7.058 -1.9830  0.6272 -1.2164
   80SLPC   C25 7393   6.254   3.010   7.248 -0.7368 -0.3728 -0.1950
   80SLPC   H5R 7394   6.244   3.106   7.303  1.8634 -0.0107 -0.2117
   80SLPC   H5S 7395   6.359   3.003   7.211 -0.2795 -4.0524  1.3533
   80SLPC   C26 7396   6.206   2.903   7.341 -0.7184  0.7794  0.5795
   80SLPC   H6R 7397   6.220   2.802   7.296 -0.0017  0.6502  1.0841
   80SLPC   H6S 7398   6.102   2.920   7.377 -0.0717  1.2587  2.3088
   80SLPC   C27 7399   6.285   2.894   7.473 -0.4064 -0.0006  0.0383
   80SLPC   H7R 7400   6.388   2.882   7.435 -0.1429  2.0232 -0.0133
   80SLPC   H7S 7401   6.253   2.800   7.522 -2.6837  0.9949  0.6081
   80SLPC   C28 7402   6.275   3.019   7.559 -0.7068 -0.0818 -0.7469
   80SLPC   H8R 7403   6.167   3.045   7.563 -0.3953  1.1531  1.9370
   80SLPC   H8S 7404   6.330   3.105   7.517  2.6544 -1.3784  0.5692
   80SLPC   C29 7405   6.344   2.995   7.691 -0.6784 -0.0964 -0.3088
   80SLPC   H9R 7406   6.451   2.981   7.670 -0.8069 -3.3080  0.5691
   80SLPC  C210 7407   6.299   2.993   7.820 -0.4675  0.0554 -0.5706
   80SLPC  H10R 7408   6.374   2.976   7.898 -0.5065  1.2060 -0.2741
   80SLPC  C211 7409   6.159   3.035   7.862 -0.0593 -0.0534  0.5608
   80SLPC  H11R 7410   6.098   2.947   7.892 -0.4581  0.7065  2.0981
   80SLPC  H11S 7411   6.106   3.087   7.779  1.8970  0.6688 -0.2859
   80SLPC  C212 7412   6.173   3.126   7.982 -0.2509  0.2779 -0.6681
   80SLPC  H12R 7413   6.211   3.224   7.950  0.1725  0.6864  0.9799
   80SLPC  C213 7414   6.152   3.109   8.114  0.8024 -0.5328  0.0980
   80SLPC  H13R 7415   6.180   3.192   8.180  0.8083  1.6816 -2.4925
   80SLPC  C214 7416   6.099   2.976   8.172 -0.3056 -0.2023 -0.0355
   80SLPC  H14R 7417   6.057   2.909   8.095  1.6829 -1.7529  0.1511
   80SLPC  H14S 7418   6.016   3.003   8.241  1.8263  2.2754  1.7830
   80SLPC  C215 7419   6.201   2.897   8.249  0.1016  0.4471  0.2018
   80SLPC  H15R 7420   6.292   2.883   8.186 -0.2738  0.7328 -0.4082
   80SLPC  H15S 7421   6.164   2.792   8.254  1.1975 -0.0039 -0.6220
   80SLPC  C216 7422   6.240   2.963   8.379  0.1064 -0.3088  0.1753
   80SLPC  H16R 7423   6.210   3.069   8.394  2.0446  0.4617 -1.0862
   80SLPC  H16S 7424   6.350   2.972   8.369 -0.0221  0.3858 -0.7955
   80SLPC  C217 7425   6.197   2.894   8.512 -0.1475 -0.5407  0.5479
   80SLPC  H17R 7426   6.203   2.784   8.501  0.5767 -0.5188  0.7192
   80SLPC  H17S 7427   6.089   2.919   8.520 -0.1432 -0.1254 -0.5198
   80SLPC  C218 7428   6.279   2.930   8.640  0.2806  0.0165  0.4593
   80SLPC  H18R 7429   6.388   2.926   8.616  0.5771 -0.7179  1.8127
   80SLPC  H18S 7430   6.240   2.864   8.720 -1.0891  1.2006  0.8072
   80SLPC  H18T 7431   6.249   3.034   8.665 -0.7967  0.3625 -1.9624
   80SLPC   C33 7432   5.976   3.523   6.991  0.4653 -0.3544 -0.0379
   80SLPC   H3X 7433   6.001   3.422   7.031  2.8055  0.0335 -0.3537
   80SLPC   H3Y 7434   5.867   3.532   6.970  0.2937 -1.3644  0.3399
   80SLPC   C34 7435   6.016   3.634   7.088  0.3155 -0.0042  0.0395
   80SLPC   H4X 7436   5.934   3.642   7.162 -1.3094 -0.2410 -1.6473
   80SLPC   H4Y 7437   6.006   3.730   7.033  0.8063 -1.1041 -2.0724
   80SLPC   C35 7438   6.151   3.619   7.148  0.1045 -0.0878 -0.5762
   80SLPC   H5X 7439   6.228   3.586   7.076  0.3500  0.8387 -0.7446
   80SLPC   H5Y 7440   6.154   3.534   7.220  2.5374  0.5596  0.1716
   80SLPC   C36 7441   6.193   3.738   7.234 -0.2824 -0.8480 -0.2633
   80SLPC   H6X 7442   6.181   3.836   7.184 -2.0385  0.2825  2.1754
   80SLPC   H6Y 7443   6.298   3.725   7.266 -0.8018 -1.9492  1.1166
   80SLPC   C37 7444   6.099   3.744   7.350  0.7734 -0.3447 -0.8453
   80SLPC   H7X 7445   6.080   3.639   7.383  0.6423 -0.2406 -0.5807
   80SLPC   H7Y 7446   6.001   3.790   7.326  1.1966  1.5194  0.7234
   80SLPC   C38 7447   6.159   3.831   7.464  0.1539  0.6982  0.3144
   80SLPC   H8X 7448   6.160   3.936   7.430  0.0770 -0.5641 -4.2298
   80SLPC   H8Y 7449   6.264   3.797   7.476 -0.5511 -1.4531  1.0260
   80SLPC   C39 7450   6.081   3.835   7.593 -0.2564 -0.3356 -0.1864
   80SLPC   H9X 7451   6.097   3.737   7.641 -0.7448 -0.4107 -0.1789
   80SLPC   H9Y 7452   5.973   3.858   7.584 -0.3877 -0.8780 -0.0005
   80SLPC  C310 7453   6.132   3.942   7.696 -0.1765  0.5324  0.7662
   80SLPC  H10X 7454   6.238   3.972   7.688 -0.2830  0.5241 -1.1611
   80SLPC  H10Y 7455   6.130   3.888   7.792 -1.7692  0.7200  0.8696
   80SLPC  C311 7456   6.043   4.070   7.715 -0.1501  0.0294 -0.2237
   80SLPC  H11X 7457   5.954   4.022   7.759  0.0313  2.3007  3.0366
   80SLPC  H11Y 7458   6.022   4.124   7.620  1.0478 -0.0487 -0.5543
   80SLPC  C312 7459   6.085   4.173   7.818 -0.0162 -0.0017  0.6878
   80SLPC  H12X 7460   6.003   4.242   7.848  1.2721  1.8625  0.1434
   80SLPC  H12Y 7461   6.163   4.239   7.775  0.5040 -1.7180 -1.1058
   80SLPC  C313 7462   6.157   4.118   7.945  0.7665 -0.4878 -0.2085
   80SLPC  H13X 7463   6.257   4.080   7.915  0.9757 -1.1254  1.2226
   80SLPC  H13Y 7464   6.091   4.041   7.989  0.5625 -0.6325 -0.7585
   80SLPC  C314 7465   6.158   4.224   8.055  0.3522 -0.4432 -0.1704
   80SLPC  H14X 7466   6.054   4.250   8.086  0.8633  1.9552 -0.2692
   80SLPC  H14Y 7467   6.213   4.317   8.029  1.4055 -0.8187  0.6714
   80SLPC  C315 7468   6.221   4.166   8.180 -0.0166 -0.5241  0.2813
   80SLPC  H15X 7469   6.326   4.149   8.147  0.1598 -1.6554  1.3572
   80SLPC  H15Y 7470   6.184   4.067   8.213 -1.4143  0.5163  2.0878
   80SLPC  C316 7471   6.213   4.265   8.295  0.5832 -0.2162  0.2603
   80SLPC  H16X 7472   6.106   4.290   8.315 -0.1498 -1.7525 -1.3850
   80SLPC  H16Y 7473   6.262   4.358   8.259 -1.6643  0.0323 -2.5081
   80SLPC  C317 7474   6.283   4.209   8.418  0.2801  0.4432  0.3110
   80SLPC  H17X 7475   6.220   4.123   8.448 -0.1766  1.0270  1.0566
   80SLPC  H17Y 7476   6.273   4.284   8.499 -0.4867 -0.2337  0.8658
   80SLPC  C318 7477   6.428   4.154   8.399 -0.5356  0.0869 -0.7474
   80SLPC  H18X 7478   6.473   4.123   8.496 -0.3518 -2.5972 -1.6114
   80SLPC  H18Y 7479   6.498   4.233   8.365  0.9834 -1.3662 -1.1225
   80SLPC  H18Z 7480   6.435   4.072   8.325  3.2929 -1.5758  1.1596
   81SAPS     N 7481   3.189   3.784  11.029 -0.1409 -0.6377  0.2036
   81SAPS   HN1 7482   3.248   3.699  11.018  0.2672 -0.4088  0.6106
   81SAPS   HN2 7483   3.112   3.753  11.092 -0.7028 -0.4460 -0.3725
   81SAPS   HN3 7484   3.151   3.808  10.935  0.3206 -0.4243  0.0724
   81SAPS   C12 7485   3.274   3.889  11.101  0.0875  0.2003  0.3677
   81SAPS  H12A 7486   3.212   3.977  11.091 -1.0407 -0.5203  0.8847
   81SAPS   C13 7487   3.305   3.864  11.250 -0.0533  0.2647  0.7908
   81SAPS  O13A 7488   3.258   3.761  11.310 -0.1235 -0.9304  0.6057
   81SAPS  O13B 7489   3.369   3.959  11.312  0.1054  0.2108  0.6344
   81SAPS   C11 7490   3.413   3.917  11.029  0.1229 -0.0784  0.4606
   81SAPS  H11A 7491   3.484   3.833  11.045  1.8132  1.2933  0.3813
   81SAPS  H11B 7492   3.459   4.005  11.080  0.8175  0.7366 -1.4972
   81SAPS     P 7493   3.517   3.921  10.789  0.0441 -0.2272 -0.3445
   81SAPS   O13 7494   3.513   4.010  10.668 -0.1724 -0.1220 -0.7119
   81SAPS   O14 7495   3.643   3.921  10.864 -0.5404 -0.1908 -0.1688
   81SAPS   O12 7496   3.394   3.953  10.889 -0.3889 -0.1973  0.3299
   81SAPS   O11 7497   3.478   3.770  10.744 -0.3763  0.2867  0.0653
   81SAPS    C1 7498   3.342   3.747  10.699 -0.5135  0.6234 -0.1747
   81SAPS    HA 7499   3.303   3.661  10.758  1.2211 -0.5734 -0.6999
   81SAPS    HB 7500   3.272   3.832  10.714  0.6001  2.1443 -2.8581
   81SAPS    C2 7501   3.333   3.715  10.550  0.2113 -0.1775  0.2256
   81SAPS    HS 7502   3.342   3.610  10.514  0.0964  0.7104 -2.5948
   81SAPS   O21 7503   3.425   3.785  10.468  0.6268 -0.6471 -0.7662
   81SAPS   C21 7504   3.546   3.752  10.457  0.7694 -0.3182  0.5397
   81SAPS   O22 7505   3.595   3.645  10.482 -0.3999 -0.6472  0.4064
   81SAPS   C22 7506   3.611   3.865  10.369 -0.3570 -0.3692 -0.5498
   81SAPS   H2R 7507   3.581   3.964  10.409  2.4755  0.5448 -0.4954
   81SAPS   H2S 7508   3.720   3.858  10.384 -0.6866 -0.3653  2.2168
   81SAPS    C3 7509   3.191   3.759  10.500 -0.1711 -0.5493  0.0097
   81SAPS    HX 7510   3.186   3.866  10.528 -2.3621 -0.6926  0.3573
   81SAPS    HY 7511   3.111   3.715  10.564 -0.8360 -0.8438 -1.0077
   81SAPS   O31 7512   3.169   3.728  10.368 -0.7814  0.3495  0.5739
   81SAPS   C31 7513   3.196   3.813  10.275 -0.4606 -1.1473  0.0286
   81SAPS   O32 7514   3.234   3.931  10.292  0.4121 -0.0315  0.6729
   81SAPS   C32 7515   3.160   3.750  10.151 -0.3066  0.3778  0.3683
   81SAPS   H2X 7516   3.051   3.764  10.140 -0.7592 -2.1818  0.9046
   81SAPS   H2Y 7517   3.182   3.641  10.145 -0.4834  0.3763 -0.2806
   81SAPS   C23 7518   3.592   3.834  10.220 -0.5703  0.0755  0.1915
   81SAPS   H3R 7519   3.647   3.905  10.155 -1.1682  0.3184 -0.0508
   81SAPS   H3S 7520   3.491   3.871  10.195 -0.0707 -0.2694 -2.7455
   81SAPS   C24 7521   3.617   3.688  10.164 -0.6683  0.1110  0.7102
   81SAPS   H4R 7522   3.558   3.604  10.206 -1.8677 -0.0108 -1.0960
   81SAPS   H4S 7523   3.723   3.655  10.179 -0.0144  0.0328 -3.0073
   81SAPS   C25 7524   3.617   3.676  10.017  0.9476  0.0651  0.2221
   81SAPS   H5R 7525   3.590   3.771   9.970 -1.6863 -0.8573 -0.2952
   81SAPS   C26 7526   3.653   3.563   9.952 -0.0443 -0.0505 -0.0347
   81SAPS   H6R 7527   3.640   3.562   9.843 -0.4059 -1.4509  0.0050
   81SAPS   C27 7528   3.694   3.437  10.013 -0.6468 -0.9194 -0.0494
   81SAPS   H7R 7529   3.614   3.363   9.998 -0.5849 -0.7290 -1.4662
   81SAPS   H7S 7530   3.697   3.446  10.123 -0.7038 -1.3561 -0.0139
   81SAPS   C28 7531   3.836   3.397   9.969 -0.8449 -0.5726 -0.0695
   81SAPS   H8R 7532   3.915   3.432  10.037  0.1178  0.6626 -1.7495
   81SAPS   C29 7533   3.875   3.310   9.876  0.0086 -0.5382  0.2043
   81SAPS   H9R 7534   3.982   3.295   9.859  0.0289  0.1204 -0.3189
   81SAPS  C210 7535   3.789   3.248   9.765  0.6550  0.3447  0.3269
   81SAPS  H10R 7536   3.703   3.198   9.814 -0.0442  2.4301  1.3522
   81SAPS  H10S 7537   3.861   3.168   9.736  1.1485 -0.2197  2.8554
   81SAPS  C211 7538   3.738   3.341   9.658 -0.4020  0.1856 -0.0211
   81SAPS  H11R 7539   3.663   3.412   9.695 -0.9705 -0.2133 -0.3857
   81SAPS  C212 7540   3.766   3.339   9.529  0.3679  0.2387  0.5093
   81SAPS  H12R 7541   3.733   3.426   9.471 -1.2575  0.2776  1.4300
   81SAPS  C213 7542   3.849   3.245   9.451 -0.0502 -0.0963  0.4636
   81SAPS  H13R 7543   3.776   3.188   9.390 -0.2717  0.4095  0.2424
   81SAPS  H13S 7544   3.892   3.164   9.513 -1.4399  0.4391  2.2041
   81SAPS  C214 7545   3.952   3.318   9.355  0.4536  0.1575  0.3687
   81SAPS  H14R 7546   3.974   3.417   9.397  0.9216 -0.6645  2.1734
   81SAPS  C215 7547   4.005   3.270   9.239  0.7472  0.4351  0.4573
   81SAPS  H15R 7548   4.077   3.332   9.183  0.3162 -1.0120 -1.8103
   81SAPS  C216 7549   3.966   3.141   9.169 -0.7551 -0.6176 -0.5005
   81SAPS  H16R 7550   3.862   3.148   9.132 -0.4250 -1.7589 -1.7047
   81SAPS  H16S 7551   3.969   3.063   9.248 -2.8397 -0.5096 -0.2554
   81SAPS  C217 7552   4.067   3.090   9.058  0.0368 -0.6479 -0.4356
   81SAPS  H17R 7553   4.048   2.988   9.020  2.6431 -0.4164 -2.6882
   81SAPS  H17S 7554   4.172   3.086   9.094 -0.2630  1.0726  0.8212
   81SAPS  C218 7555   4.061   3.189   8.938 -0.7917  0.2844  0.3228
   81SAPS  H18R 7556   4.128   3.139   8.865  2.3014  1.6329  2.0545
   81SAPS  H18S 7557   4.117   3.284   8.951  0.4430 -0.4304  0.4381
   81SAPS  C219 7558   3.924   3.212   8.881  0.8115 -0.3202  0.0174
   81SAPS  H19R 7559   3.891   3.302   8.937 -0.5244 -1.1934  0.6929
   81SAPS  H19S 7560   3.857   3.123   8.878  0.7615 -0.4289  2.4555
   81SAPS  C220 7561   3.933   3.255   8.732  0.1324 -0.4898 -0.3522
   81SAPS  H20R 7562   3.963   3.169   8.668 -2.5995 -1.4762 -0.4362
   81SAPS  H20S 7563   4.008   3.337   8.737  2.2293 -2.0515 -2.8183
   81SAPS  H20T 7564   3.842   3.291   8.680  0.8113 -0.7347 -1.7791
   81SAPS   C33 7565   3.221   3.820  10.032  0.4874  0.2772  0.0988
   81SAPS   H3X 7566   3.326   3.854  10.046  0.9453 -1.0868  0.0844
   81SAPS   H3Y 7567   3.174   3.919  10.013 -1.4957 -0.6942 -0.2111
   81SAPS   C34 7568   3.230   3.742   9.899 -0.1628  0.0721 -0.1657
   81SAPS   H4X 7569   3.124   3.722   9.872 -0.6525  0.7876  1.1424
   81SAPS   H4Y 7570   3.284   3.646   9.918  3.1686  2.1322  1.6340
   81SAPS   C35 7571   3.287   3.828   9.784  0.1329 -0.1125  0.3071
   81SAPS   H5X 7572   3.374   3.889   9.817  1.7537 -1.6486 -0.9165
   81SAPS   H5Y 7573   3.202   3.886   9.741  1.9413  0.8791 -2.1645
   81SAPS   C36 7574   3.359   3.765   9.664 -0.2278 -0.0969 -0.1298
   81SAPS   H6X 7575   3.295   3.689   9.614 -0.7070  0.9027 -1.0873
   81SAPS   H6Y 7576   3.436   3.718   9.728  0.5352  1.9817  0.5624
   81SAPS   C37 7577   3.428   3.859   9.565 -0.3554  0.6030  0.7250
   81SAPS   H7X 7578   3.481   3.944   9.615  0.2618  1.4923 -1.3170
   81SAPS   H7Y 7579   3.346   3.904   9.505 -1.5336 -0.0931  1.7719
   81SAPS   C38 7580   3.526   3.780   9.477 -0.4212  0.6826 -0.2757
   81SAPS   H8X 7581   3.594   3.729   9.549 -0.4438  0.0005 -0.7273
   81SAPS   H8Y 7582   3.589   3.847   9.415  0.4565  0.6614  0.5646
   81SAPS   C39 7583   3.464   3.663   9.389  0.4768  0.4224 -0.3421
   81SAPS   H9X 7584   3.376   3.685   9.325  0.9239 -0.9326 -1.4599
   81SAPS   H9Y 7585   3.430   3.587   9.461 -1.3100  0.3357 -1.2364
   81SAPS  C310 7586   3.572   3.607   9.289 -0.7972  0.3446  0.6507
   81SAPS  H10X 7587   3.665   3.582   9.346 -0.7218  0.0618  0.4061
   81SAPS  H10Y 7588   3.592   3.698   9.229 -0.7339 -0.4234 -0.5133
   81SAPS  C311 7589   3.523   3.491   9.192 -0.4028  1.2277  0.3748
   81SAPS  H11X 7590   3.432   3.520   9.136 -0.3100 -0.6788 -0.8777
   81SAPS  H11Y 7591   3.499   3.399   9.249  2.0805  0.6310  0.6114
   81SAPS  C312 7592   3.623   3.446   9.090 -0.3450 -0.5596 -0.3212
   81SAPS  H12X 7593   3.701   3.383   9.138  0.8800  0.9705 -0.1874
   81SAPS  H12Y 7594   3.673   3.521   9.025 -0.0933 -1.0064 -0.6479
   81SAPS  C313 7595   3.563   3.358   8.981 -0.1269  0.6962  0.0441
   81SAPS  H13X 7596   3.498   3.289   9.038  2.0465 -0.5546  1.1203
   81SAPS  H13Y 7597   3.638   3.297   8.927 -2.9459 -1.2801 -1.9655
   81SAPS  C314 7598   3.481   3.422   8.873  0.2006 -0.6584 -0.1075
   81SAPS  H14X 7599   3.547   3.485   8.809  1.0058 -0.3733  0.9581
   81SAPS  H14Y 7600   3.409   3.495   8.916 -0.0489 -1.8279  1.5622
   81SAPS  C315 7601   3.388   3.326   8.789  1.3801 -0.5317  0.1901
   81SAPS  H15X 7602   3.325   3.389   8.723  0.4470 -2.8334 -1.2687
   81SAPS  H15Y 7603   3.322   3.269   8.857  0.2184  0.5514 -0.0023
   81SAPS  C316 7604   3.471   3.225   8.704  0.5398  0.2922  0.3682
   81SAPS  H16X 7605   3.551   3.177   8.766  1.8410  2.0619  0.1509
   81SAPS  H16Y 7606   3.519   3.285   8.624 -2.9610  1.2968 -1.1593
   81SAPS  C317 7607   3.391   3.115   8.635 -0.8001 -0.5383  0.9802
   81SAPS  H17X 7608   3.298   3.160   8.594  1.2615  2.3274 -0.9409
   81SAPS  H17Y 7609   3.363   3.032   8.703 -0.8364 -0.6102  0.8790
   81SAPS  C318 7610   3.465   3.060   8.513  0.2081 -0.2257 -0.3187
   81SAPS  H18X 7611   3.424   2.962   8.480 -3.2226  0.4580  1.4651
   81SAPS  H18Y 7612   3.575   3.054   8.527 -0.0141 -1.8082  0.9870
   81SAPS  H18Z 7613   3.450   3.132   8.429 -0.2231  0.8582  0.6500
   82SAPS     N 7614   6.450   3.596  10.996  0.2417 -0.6389  0.2316
   82SAPS   HN1 7615   6.485   3.654  10.917  0.0327 -1.0791 -0.1839
   82SAPS   HN2 7616   6.353   3.632  11.012  0.5240  0.3302 -0.1899
   82SAPS   HN3 7617   6.505   3.617  11.082 -1.1509 -0.7286  1.1724
   82SAPS   C12 7618   6.459   3.452  10.957 -0.3619 -0.3797 -0.4890
   82SAPS  H12A 7619   6.566   3.439  10.949 -0.1468  0.3534  0.9042
   82SAPS   C13 7620   6.402   3.363  11.068  1.0843 -0.3404  0.3265
   82SAPS  O13A 7621   6.330   3.408  11.161  0.3313 -0.5962  0.3464
   82SAPS  O13B 7622   6.430   3.244  11.065  0.1410  0.8691  0.5428
   82SAPS   C11 7623   6.383   3.428  10.822  0.2987 -0.2182  0.6654
   82SAPS  H11A 7624   6.272   3.437  10.830 -0.0792 -3.8428  1.1259
   82SAPS  H11B 7625   6.415   3.323  10.810 -0.5594 -0.3859 -0.2726
   82SAPS     P 7626   6.391   3.480  10.567  0.1277 -0.2277  0.2931
   82SAPS   O13 7627   6.248   3.454  10.553  0.3548  0.5423  0.9901
   82SAPS   O14 7628   6.439   3.596  10.484 -0.6289 -0.0804  0.1798
   82SAPS   O12 7629   6.424   3.512  10.718 -0.0057  0.1647  0.2045
   82SAPS   O11 7630   6.471   3.346  10.530 -0.1503 -0.6156 -0.0124
   82SAPS    C1 7631   6.608   3.345  10.567  0.8812 -0.4048 -0.5064
   82SAPS    HA 7632   6.651   3.444  10.593 -1.6505  0.2883  1.5295
   82SAPS    HB 7633   6.628   3.280  10.655 -0.4194  1.0322  0.9105
   82SAPS    C2 7634   6.688   3.290  10.448 -0.6396  0.2549 -0.4736
   82SAPS    HS 7635   6.789   3.270  10.490  0.4856  1.1382 -2.5798
   82SAPS   O21 7636   6.694   3.374  10.335  0.6314 -0.0138  0.1476
   82SAPS   C21 7637   6.802   3.439  10.304 -0.0422  0.6273  1.0904
   82SAPS   O22 7638   6.906   3.442  10.361 -0.4984  0.2199 -0.3725
   82SAPS   C22 7639   6.788   3.521  10.179  0.4102 -0.0316  0.4901
   82SAPS   H2R 7640   6.883   3.576  10.166  0.2695  0.4118  1.2730
   82SAPS   H2S 7641   6.776   3.456  10.089 -0.8062 -1.4257  1.6095
   82SAPS    C3 7642   6.639   3.144  10.397 -0.0543 -0.5942  0.3065
   82SAPS    HX 7643   6.528   3.148  10.395 -0.0116  0.9026 -0.8473
   82SAPS    HY 7644   6.672   3.076  10.478 -1.5936 -0.6641  0.9057
   82SAPS   O31 7645   6.702   3.102  10.269 -0.3424  0.6873 -0.4023
   82SAPS   C31 7646   6.675   2.971  10.247  0.0187  0.1910  0.5000
   82SAPS   O32 7647   6.615   2.897  10.322 -0.1400  0.0725  0.3918
   82SAPS   C32 7648   6.733   2.940  10.106 -0.7248  0.2173  0.6877
   82SAPS   H2X 7649   6.788   2.844  10.115  2.2050  1.7476  0.3979
   82SAPS   H2Y 7650   6.805   3.020  10.078 -1.6385  1.3594  1.5098
   82SAPS   C23 7651   6.667   3.622  10.174 -0.4895  0.0132  0.3656
   82SAPS   H3R 7652   6.675   3.683  10.267  1.4726 -0.7520  0.7506
   82SAPS   H3S 7653   6.573   3.571  10.203 -1.1266  1.0756  0.2074
   82SAPS   C24 7654   6.647   3.691  10.035  0.4281 -0.4783  0.3901
   82SAPS   H4R 7655   6.563   3.763  10.045  2.0861  1.8414 -1.3938
   82SAPS   H4S 7656   6.620   3.611   9.963  3.4416 -1.7120  0.4840
   82SAPS   C25 7657   6.753   3.780   9.996 -0.0322 -0.3396  0.1346
   82SAPS   H5R 7658   6.816   3.815  10.080  1.1183 -0.6950 -0.5557
   82SAPS   C26 7659   6.779   3.832   9.873 -0.7164  0.1768  0.2729
   82SAPS   H6R 7660   6.870   3.892   9.859 -2.3261  2.5069 -0.8127
   82SAPS   C27 7661   6.706   3.807   9.748 -0.6118  0.2682  0.6552
   82SAPS   H7R 7662   6.690   3.901   9.692 -1.6245  0.0863  0.6177
   82SAPS   H7S 7663   6.601   3.774   9.768 -1.0509  0.1715 -1.5551
   82SAPS   C28 7664   6.777   3.706   9.659 -0.4270  0.6401 -0.3724
   82SAPS   H8R 7665   6.787   3.603   9.698  1.8532  0.2739 -1.7515
   82SAPS   C29 7666   6.832   3.726   9.537  0.5378  0.0566 -0.2029
   82SAPS   H9R 7667   6.886   3.641   9.492 -0.4042 -1.9587  2.2777
   82SAPS  C210 7668   6.835   3.849   9.460 -0.1106 -0.3116  0.2161
   82SAPS  H10R 7669   6.928   3.856   9.398 -0.1953  1.4874  0.2406
   82SAPS  H10S 7670   6.839   3.939   9.524 -0.4228 -0.9967  1.2155
   82SAPS  C211 7671   6.707   3.876   9.377  0.0540  0.6705  0.2014
   82SAPS  H11R 7672   6.622   3.924   9.426  0.3827  2.1976 -0.6706
   82SAPS  C212 7673   6.692   3.862   9.244 -0.4097 -0.2598 -0.3978
   82SAPS  H12R 7674   6.598   3.885   9.193 -0.5204 -1.4865 -0.7739
   82SAPS  C213 7675   6.799   3.823   9.149 -0.2537  0.2822 -0.9219
   82SAPS  H13R 7676   6.786   3.716   9.124  1.9488  0.5418 -3.6433
   82SAPS  H13S 7677   6.898   3.843   9.195 -1.3056  3.3977  0.2903
   82SAPS  C214 7678   6.802   3.907   9.018  1.0995  0.1322  0.0269
   82SAPS  H14R 7679   6.738   3.996   9.025  0.1141 -0.6149  0.7954
   82SAPS  C215 7680   6.902   3.899   8.928 -0.3685  0.3212  0.0338
   82SAPS  H15R 7681   6.897   3.971   8.846 -0.5715 -1.2859 -1.4217
   82SAPS  C216 7682   7.017   3.802   8.923 -0.2944  0.5442 -0.2473
   82SAPS  H16R 7683   7.026   3.740   9.015  2.7941 -0.7855 -1.3288
   82SAPS  H16S 7684   7.108   3.862   8.904 -1.4636  1.6922 -2.6316
   82SAPS  C217 7685   6.996   3.720   8.796  0.3795 -0.2680 -0.0087
   82SAPS  H17R 7686   6.975   3.790   8.713 -2.0637 -0.2371  0.5507
   82SAPS  H17S 7687   6.907   3.656   8.813  0.9817 -0.8876  0.8873
   82SAPS  C218 7688   7.115   3.630   8.765  0.0710  0.0509 -0.6313
   82SAPS  H18R 7689   7.095   3.535   8.820  0.6319 -1.0908 -2.3483
   82SAPS  H18S 7690   7.210   3.674   8.802 -1.0309  1.3360  0.8305
   82SAPS  C219 7691   7.114   3.576   8.621 -0.4146 -0.4616  0.4897
   82SAPS  H19R 7692   7.116   3.667   8.557 -1.4930 -0.5013  0.3858
   82SAPS  H19S 7693   7.017   3.525   8.603 -0.2509 -1.0154  1.1300
   82SAPS  C220 7694   7.216   3.469   8.576 -0.3115 -0.2528  0.5386
   82SAPS  H20R 7695   7.319   3.499   8.602  0.0927 -0.5815 -0.6204
   82SAPS  H20S 7696   7.211   3.442   8.468  0.5053  1.8859 -0.0659
   82SAPS  H20T 7697   7.199   3.373   8.630 -0.3157 -0.3702  0.3332
   82SAPS   C33 7698   6.620   2.928   9.994  0.2007  0.7535 -0.3141
   82SAPS   H3X 7699   6.573   3.028  10.001  0.3344  0.7258  1.1882
   82SAPS   H3Y 7700   6.547   2.847  10.019  1.0543  0.3067  0.7910
   82SAPS   C34 7701   6.671   2.903   9.852 -0.7495  0.7474 -0.8624
   82SAPS   H4X 7702   6.701   2.798   9.835 -1.4954  0.4458 -0.3732
   82SAPS   H4Y 7703   6.760   2.966   9.830  0.4096 -0.7218 -0.5049
   82SAPS   C35 7704   6.581   2.940   9.739  0.0946 -0.7982  0.6287
   82SAPS   H5X 7705   6.539   3.038   9.769 -0.0454 -0.8469  0.5910
   82SAPS   H5Y 7706   6.505   2.861   9.723  0.1801 -0.5902 -1.0153
   82SAPS   C36 7707   6.664   2.949   9.610  0.7346 -0.0560  0.1203
   82SAPS   H6X 7708   6.718   2.853   9.590  0.4550 -0.3332  0.6740
   82SAPS   H6Y 7709   6.733   3.036   9.613  0.6529  0.0507 -0.9168
   82SAPS   C37 7710   6.576   2.979   9.488 -0.0494 -0.3471 -0.0491
   82SAPS   H7X 7711   6.509   3.067   9.504  0.6226  0.1185  0.2574
   82SAPS   H7Y 7712   6.512   2.891   9.469 -0.7753  0.4594 -1.5290
   82SAPS   C38 7713   6.658   3.015   9.362  0.1695  0.5571 -0.6553
   82SAPS   H8X 7714   6.728   2.929   9.366  0.9499  1.2244  1.3892
   82SAPS   H8Y 7715   6.716   3.108   9.346 -0.0132  0.4893 -1.7866
   82SAPS   C39 7716   6.573   3.008   9.241 -0.3573 -0.5740 -0.3010
   82SAPS   H9X 7717   6.482   3.071   9.253  0.5547  0.3846  2.5412
   82SAPS   H9Y 7718   6.537   2.904   9.225 -2.4288 -0.0601  0.6708
   82SAPS  C310 7719   6.642   3.025   9.101 -0.5616 -0.1633  0.0432
   82SAPS  H10X 7720   6.688   3.125   9.094  1.3489 -0.9287  0.8326
   82SAPS  H10Y 7721   6.570   3.018   9.017  0.6806 -1.8338 -0.9361
   82SAPS  C311 7722   6.762   2.925   9.080 -0.4140  0.7388 -0.4705
   82SAPS  H11X 7723   6.822   2.926   9.173 -0.0750 -1.2590 -0.6279
   82SAPS  H11Y 7724   6.836   2.964   9.007 -1.0626  0.4668 -1.2857
   82SAPS  C312 7725   6.730   2.792   9.018  0.2949 -0.5751  0.0804
   82SAPS  H12X 7726   6.665   2.806   8.929  1.0301  1.9201 -0.1393
   82SAPS  H12Y 7727   6.665   2.740   9.092  2.4192 -4.0081 -0.2515
   82SAPS  C313 7728   6.856   2.708   8.982  0.1597  0.0873 -0.3976
   82SAPS  H13X 7729   6.923   2.700   9.071  2.0619  1.3606 -1.6468
   82SAPS  H13Y 7730   6.906   2.769   8.905 -0.3056  1.3981  0.2933
   82SAPS  C314 7731   6.821   2.574   8.921 -0.2797 -0.6850  0.8577
   82SAPS  H14X 7732   6.901   2.534   8.855 -1.8318 -1.6558 -0.5548
   82SAPS  H14Y 7733   6.738   2.599   8.850  1.8712  2.2223 -0.8699
   82SAPS  C315 7734   6.774   2.470   9.024  0.9179 -0.2286 -0.1382
   82SAPS  H15X 7735   6.730   2.525   9.109  0.1855 -1.9885  0.6667
   82SAPS  H15Y 7736   6.862   2.408   9.053  0.7613  0.0222  0.9298
   82SAPS  C316 7737   6.673   2.360   8.968 -0.5496  1.2593 -0.2532
   82SAPS  H16X 7738   6.597   2.396   8.896  0.4120  2.7160 -0.5812
   82SAPS  H16Y 7739   6.624   2.330   9.063 -2.0569 -1.2617 -1.7119
   82SAPS  C317 7740   6.745   2.236   8.909  0.4564  0.1341 -0.2216
   82SAPS  H17X 7741   6.811   2.189   8.984 -0.2747 -2.2238 -0.9889
   82SAPS  H17Y 7742   6.819   2.277   8.836 -0.3479 -1.3791 -1.9851
   82SAPS  C318 7743   6.661   2.121   8.850  0.3577  0.3107  0.4382
   82SAPS  H18X 7744   6.597   2.159   8.767  1.4212 -0.3971 -0.7548
   82SAPS  H18Y 7745   6.594   2.095   8.934 -0.8223  0.5994 -0.3886
   82SAPS  H18Z 7746   6.732   2.045   8.811  1.4947  1.4931  0.1027
   83SAPS     N 7747   3.266   4.645  10.612 -0.1127 -0.3636  0.1301
   83SAPS   HN1 7748   3.194   4.697  10.556  1.1162  1.1284 -0.1483
   83SAPS   HN2 7749   3.359   4.691  10.617  1.0373 -2.6497  0.9092
   83SAPS   HN3 7750   3.294   4.555  10.569 -0.0667 -0.4262  0.2931
   83SAPS   C12 7751   3.219   4.613  10.750 -0.0140  0.2647 -0.0646
   83SAPS  H12A 7752   3.113   4.593  10.743  0.2242 -0.6405 -1.4127
   83SAPS   C13 7753   3.282   4.494  10.820 -0.6562 -0.1184  0.2121
   83SAPS  O13A 7754   3.365   4.415  10.754  0.0467 -0.2129 -0.1335
   83SAPS  O13B 7755   3.225   4.458  10.923 -0.2599  0.5790 -0.4691
   83SAPS   C11 7756   3.241   4.742  10.839 -0.6528  0.5605  0.5923
   83SAPS  H11A 7757   3.348   4.747  10.870 -0.9934  2.3943  1.6298
   83SAPS  H11B 7758   3.181   4.722  10.930 -1.0504  1.1362  0.4614
   83SAPS     P 7759   3.096   4.963  10.846 -0.3341 -0.1869 -0.1635
   83SAPS   O13 7760   2.963   4.896  10.869  0.0039  0.3297 -0.6567
   83SAPS   O14 7761   3.165   5.022  10.964 -0.2122  0.1469 -0.3251
   83SAPS   O12 7762   3.197   4.864  10.775 -0.3851 -0.1169 -0.0142
   83SAPS   O11 7763   3.069   5.077  10.736  0.6618  0.4557  0.1665
   83SAPS    C1 7764   3.168   5.098  10.631  0.3908 -0.7930 -0.7810
   83SAPS    HA 7765   3.153   5.196  10.579  0.6049  0.2913  1.1178
   83SAPS    HB 7766   3.273   5.073  10.656  1.0045 -0.0439 -2.4142
   83SAPS    C2 7767   3.133   4.998  10.515 -0.5061  0.0779 -0.0697
   83SAPS    HS 7768   3.131   4.893  10.551 -1.5545 -0.1519 -0.7462
   83SAPS   O21 7769   3.238   5.015  10.416 -0.9400 -0.3205  0.5638
   83SAPS   C21 7770   3.269   4.907  10.349  0.5555  0.0515 -0.3767
   83SAPS   O22 7771   3.212   4.796  10.353 -0.0332  0.0938  0.4288
   83SAPS   C22 7772   3.399   4.940  10.277  0.2985  0.3058 -0.5312
   83SAPS   H2R 7773   3.398   5.048  10.251 -1.2397  0.7176  1.0002
   83SAPS   H2S 7774   3.474   4.921  10.356  1.7297  0.6605 -1.7708
   83SAPS    C3 7775   3.001   5.031  10.449 -0.0435 -0.3088  0.1705
   83SAPS    HX 7776   3.001   5.136  10.413 -0.4589 -0.7480 -1.1827
   83SAPS    HY 7777   2.917   5.019  10.520 -0.6797 -2.9957 -0.9220
   83SAPS   O31 7778   2.987   4.946  10.332 -0.1236 -0.0860 -0.3120
   83SAPS   C31 7779   2.876   4.878  10.325 -0.1336  0.0261 -0.5044
   83SAPS   O32 7780   2.785   4.881  10.407  0.0332  0.1728 -0.9351
   83SAPS   C32 7781   2.895   4.778  10.215 -0.0410  0.4044  0.4423
   83SAPS   H2X 7782   2.999   4.739  10.216 -0.1745 -0.0424 -0.9398
   83SAPS   H2Y 7783   2.886   4.836  10.120 -1.3554  1.5669  1.2339
   83SAPS   C23 7784   3.428   4.845  10.161  0.4011 -0.1149 -0.3016
   83SAPS   H3R 7785   3.400   4.740  10.187  0.5061  0.1808  1.1342
   83SAPS   H3S 7786   3.536   4.847  10.137  0.3210  1.2584 -0.5927
   83SAPS   C24 7787   3.343   4.894  10.036 -0.4239  0.4087 -0.5386
   83SAPS   H4R 7788   3.237   4.898  10.067 -0.1592  0.9770  0.3119
   83SAPS   H4S 7789   3.340   4.808   9.966  0.5878 -0.9426  0.9993
   83SAPS   C25 7790   3.392   5.025   9.971 -0.7092  0.1546  0.0338
   83SAPS   H5R 7791   3.369   5.120  10.022  1.2629  1.2497 -0.9702
   83SAPS   C26 7792   3.471   5.035   9.858 -0.7368  0.2087  0.4274
   83SAPS   H6R 7793   3.516   5.125   9.816 -0.8989 -1.1938 -3.0456
   83SAPS   C27 7794   3.530   4.912   9.784 -0.1089  0.8797 -0.3890
   83SAPS   H7R 7795   3.454   4.872   9.713 -1.3273  1.1654  0.7174
   83SAPS   H7S 7796   3.559   4.826   9.847 -0.0802 -2.2333 -4.2240
   83SAPS   C28 7797   3.656   4.968   9.713  0.3008 -0.3086  0.1099
   83SAPS   H8R 7798   3.739   4.983   9.784 -1.3458  1.0718  1.8641
   83SAPS   C29 7799   3.669   4.994   9.583 -0.2964 -0.5910  0.4870
   83SAPS   H9R 7800   3.766   5.027   9.541  0.3130 -1.8265  0.8579
   83SAPS  C210 7801   3.539   4.976   9.500  0.3434  0.4957 -0.2559
   83SAPS  H10R 7802   3.457   5.029   9.552  0.7180  1.5978 -0.7447
   83SAPS  H10S 7803   3.511   4.869   9.506 -2.8450  1.3077  2.5368
   83SAPS  C211 7804   3.545   5.019   9.356 -1.0655 -0.2365 -0.4915
   83SAPS  H11R 7805   3.494   5.114   9.337  0.7067  0.7929 -0.2883
   83SAPS  C212 7806   3.614   4.953   9.256 -0.2822  0.1340  0.1327
   83SAPS  H12R 7807   3.612   4.991   9.153 -0.0772 -1.0330 -0.3156
   83SAPS  C213 7808   3.693   4.820   9.271  0.1221  0.3045  0.4689
   83SAPS  H13R 7809   3.643   4.747   9.203 -0.7101  0.8773  0.4608
   83SAPS  H13S 7810   3.691   4.772   9.371 -1.4838 -0.3301  0.1558
   83SAPS  C214 7811   3.833   4.849   9.223 -0.2354 -0.2839 -0.6351
   83SAPS  H14R 7812   3.881   4.929   9.281 -1.0488 -0.3194  0.1105
   83SAPS  C215 7813   3.906   4.771   9.141 -0.2818  0.7193 -0.1427
   83SAPS  H15R 7814   4.006   4.798   9.103  0.1134 -1.8508 -1.0828
   83SAPS  C216 7815   3.849   4.645   9.077 -0.4849  0.2042 -0.3660
   83SAPS  H16R 7816   3.743   4.659   9.048 -1.1674  1.7543  2.5000
   83SAPS  H16S 7817   3.844   4.559   9.146 -1.9533 -0.6993 -1.5351
   83SAPS  C217 7818   3.940   4.590   8.971 -0.2138  0.3459  0.7592
   83SAPS  H17R 7819   3.901   4.490   8.941 -0.7804  0.4446  1.1646
   83SAPS  H17S 7820   4.045   4.584   9.005  1.0765  1.2526 -2.6828
   83SAPS  C218 7821   3.942   4.675   8.843  0.1881 -0.3106 -0.2824
   83SAPS  H18R 7822   3.983   4.776   8.865 -0.1609 -0.6296  2.1917
   83SAPS  H18S 7823   3.836   4.684   8.809 -0.1622 -2.4923  0.0766
   83SAPS  C219 7824   4.028   4.612   8.735  0.3357 -0.1545  0.7050
   83SAPS  H19R 7825   4.041   4.684   8.652 -1.6904  0.6605  1.0433
   83SAPS  H19S 7826   3.968   4.529   8.692  1.5174 -1.7158  1.9612
   83SAPS  C220 7827   4.160   4.549   8.784 -0.1214  0.3284  0.2096
   83SAPS  H20R 7828   4.222   4.618   8.846 -1.6566  1.2162  0.8231
   83SAPS  H20S 7829   4.217   4.533   8.690  1.4328  0.2858  1.1287
   83SAPS  H20T 7830   4.144   4.460   8.848 -0.0030  0.0520 -0.1428
   83SAPS   C33 7831   2.787   4.662  10.214 -0.1392  0.1666 -0.3038
   83SAPS   H3X 7832   2.688   4.713  10.214  0.0024  0.4400  0.0630
   83SAPS   H3Y 7833   2.796   4.601  10.307 -0.9950  0.1599 -0.2146
   83SAPS   C34 7834   2.798   4.571  10.088  0.4513 -0.4316  0.2918
   83SAPS   H4X 7835   2.739   4.477  10.088  1.9081 -1.3854 -0.7941
   83SAPS   H4Y 7836   2.904   4.538  10.080  0.6320 -0.1135  1.1886
   83SAPS   C35 7837   2.764   4.655   9.958 -0.8057  0.9132 -0.2144
   83SAPS   H5X 7838   2.840   4.734   9.939 -0.3140 -0.1462 -3.1560
   83SAPS   H5Y 7839   2.657   4.687   9.961 -1.2619 -0.6003  0.1920
   83SAPS   C36 7840   2.768   4.567   9.835  0.6817  0.2861 -0.2786
   83SAPS   H6X 7841   2.722   4.466   9.844 -2.1271  0.9220 -4.3231
   83SAPS   H6Y 7842   2.877   4.546   9.830  0.5165 -0.4258 -1.3583
   83SAPS   C37 7843   2.719   4.630   9.705  0.3772 -0.3482 -0.8449
   83SAPS   H7X 7844   2.784   4.717   9.681 -0.9347  0.5719 -1.1183
   83SAPS   H7Y 7845   2.614   4.661   9.718 -0.1912 -1.8275 -1.6122
   83SAPS   C38 7846   2.726   4.537   9.580 -0.0764 -0.9029 -0.0970
   83SAPS   H8X 7847   2.641   4.553   9.510 -1.3943 -1.3131  1.3649
   83SAPS   H8Y 7848   2.717   4.432   9.614 -1.4762  0.4436  4.2961
   83SAPS   C39 7849   2.866   4.544   9.508  0.1285 -0.4321 -0.0476
   83SAPS   H9X 7850   2.941   4.493   9.572 -0.0876  2.3672  2.7156
   83SAPS   H9Y 7851   2.897   4.650   9.491 -1.8546  0.9014  3.5217
   83SAPS  C310 7852   2.850   4.489   9.366 -0.6536 -0.0763 -0.2741
   83SAPS  H10X 7853   2.764   4.542   9.317 -0.9033  0.0494  0.2904
   83SAPS  H10Y 7854   2.827   4.381   9.358  0.8043 -0.4351  0.1872
   83SAPS  C311 7855   2.966   4.508   9.272  0.3097  0.0773 -0.0944
   83SAPS  H11X 7856   3.052   4.454   9.316 -0.3069 -0.2610  0.7152
   83SAPS  H11Y 7857   2.973   4.618   9.259  0.0362  0.4271  2.2596
   83SAPS  C312 7858   2.933   4.454   9.129 -0.1098  0.4008 -0.2126
   83SAPS  H12X 7859   2.842   4.512   9.104 -2.9196 -1.7048  4.0063
   83SAPS  H12Y 7860   2.899   4.348   9.129  1.1955 -0.0512 -0.9969
   83SAPS  C313 7861   3.049   4.475   9.028 -0.1339 -0.3368  0.0217
   83SAPS  H13X 7862   3.119   4.393   9.058 -1.3494 -1.3539  0.1885
   83SAPS  H13Y 7863   3.098   4.573   9.045  1.6141 -0.9485 -1.1583
   83SAPS  C314 7864   2.997   4.466   8.881  0.4253 -0.1057 -0.2230
   83SAPS  H14X 7865   2.897   4.512   8.871 -0.9107 -2.7845 -0.1956
   83SAPS  H14Y 7866   2.975   4.357   8.875  1.1869 -0.2756 -0.1098
   83SAPS  C315 7867   3.088   4.505   8.769 -0.6649 -0.1960 -0.7194
   83SAPS  H15X 7868   3.181   4.445   8.779 -0.8778 -0.3681  0.3708
   83SAPS  H15Y 7869   3.120   4.611   8.778  1.1301 -0.7109 -0.4756
   83SAPS  C316 7870   3.013   4.488   8.635  0.4006  0.0411 -0.5348
   83SAPS  H16X 7871   2.912   4.529   8.655  0.4087 -0.5785  0.9357
   83SAPS  H16Y 7872   3.007   4.383   8.600  1.5420  0.4321 -1.9956
   83SAPS  C317 7873   3.080   4.560   8.523 -0.4196 -0.2295  0.3923
   83SAPS  H17X 7874   3.183   4.520   8.507 -0.1303 -1.0657  3.4965
   83SAPS  H17Y 7875   3.100   4.665   8.551  0.9025 -1.3071  4.1510
   83SAPS  C318 7876   3.005   4.540   8.395 -0.1657 -0.0490 -0.9612
   83SAPS  H18X 7877   2.912   4.601   8.393 -0.1224  0.0782  0.0253
   83SAPS  H18Y 7878   2.972   4.435   8.385  1.4516 -0.7431  0.3723
   83SAPS  H18Z 7879   3.074   4.580   8.318  1.4705 -1.2553 -0.1984
   84SAPS     N 7880   3.359   3.506  11.397 -0.0168 -0.3846  0.3475
   84SAPS   HN1 7881   3.329   3.605  11.396  1.9252  0.2601 -0.7593
   84SAPS   HN2 7882   3.399   3.491  11.492 -1.3461 -0.7740  0.8696
   84SAPS   HN3 7883   3.421   3.494  11.314  0.2923 -0.8703  0.6374
   84SAPS   C12 7884   3.238   3.421  11.388 -0.4394  0.3684  0.0740
   84SAPS  H12A 7885   3.268   3.318  11.401  1.6412  0.3361 -3.7156
   84SAPS   C13 7886   3.135   3.455  11.490  0.3041 -0.8983  0.0654
   84SAPS  O13A 7887   3.159   3.544  11.573 -0.4439  0.3188  0.0262
   84SAPS  O13B 7888   3.023   3.391  11.495 -0.4067 -0.3088 -0.2776
   84SAPS   C11 7889   3.198   3.434  11.239 -0.0340  0.3620  0.6320
   84SAPS  H11A 7890   3.179   3.540  11.214 -0.7595 -0.1489 -1.1740
   84SAPS  H11B 7891   3.106   3.380  11.208 -0.1477  1.7588 -1.7357
   84SAPS     P 7892   3.340   3.429  11.022  0.2215 -0.5565  0.2279
   84SAPS   O13 7893   3.356   3.575  11.035  0.0212  0.1494  0.7352
   84SAPS   O14 7894   3.455   3.356  10.967 -0.7752 -0.3453 -0.2433
   84SAPS   O12 7895   3.308   3.368  11.165 -0.1385 -0.4820  0.0542
   84SAPS   O11 7896   3.215   3.409  10.932 -0.2096 -0.2642 -0.3164
   84SAPS    C1 7897   3.169   3.273  10.926  0.1801  0.4159 -0.0744
   84SAPS    HA 7898   3.177   3.218  11.022 -0.5884  0.1811 -0.1371
   84SAPS    HB 7899   3.060   3.273  10.907  0.2142 -1.1069 -0.4178
   84SAPS    C2 7900   3.244   3.201  10.808 -0.0361  0.9716 -0.1516
   84SAPS    HS 7901   3.353   3.192  10.827 -0.4200 -0.6319  1.5869
   84SAPS   O21 7902   3.216   3.272  10.692 -0.1452  0.1711  0.3930
   84SAPS   C21 7903   3.315   3.291  10.610 -0.5189 -0.1802 -0.3077
   84SAPS   O22 7904   3.437   3.265  10.629  0.2153  0.2944  0.3463
   84SAPS   C22 7905   3.261   3.363  10.492 -0.6045  0.0188 -0.7371
   84SAPS   H2R 7906   3.199   3.444  10.535  0.8208  0.5765  0.3494
   84SAPS   H2S 7907   3.353   3.413  10.454 -0.0013  0.3495  1.0759
   84SAPS    C3 7908   3.192   3.051  10.783 -0.3725  0.1056 -0.0292
   84SAPS    HX 7909   3.082   3.061  10.770 -0.3361  0.5527 -0.0356
   84SAPS    HY 7910   3.204   3.002  10.881 -4.8597 -0.1212  0.5955
   84SAPS   O31 7911   3.248   2.986  10.666 -0.3307 -0.1634  0.0553
   84SAPS   C31 7912   3.237   2.850  10.660 -0.0952 -0.1705  0.3420
   84SAPS   O32 7913   3.183   2.779  10.739  0.2580  0.3488 -0.0559
   84SAPS   C32 7914   3.320   2.801  10.543 -0.1184  0.3584  0.1540
   84SAPS   H2X 7915   3.395   2.730  10.583  0.0038 -0.0322 -0.7386
   84SAPS   H2Y 7916   3.382   2.884  10.504  1.5175 -0.6733  0.4852
   84SAPS   C23 7917   3.187   3.272  10.390  0.6399 -0.2707  0.8184
   84SAPS   H3R 7918   3.143   3.334  10.309  1.3828  1.6378  1.8175
   84SAPS   H3S 7919   3.109   3.216  10.447 -0.3538  2.6054  2.4717
   84SAPS   C24 7920   3.264   3.162  10.316  0.4480 -0.2177 -0.5093
   84SAPS   H4R 7921   3.285   3.083  10.391 -2.2652 -1.9010 -1.3558
   84SAPS   H4S 7922   3.357   3.202  10.272  1.1108 -1.3730 -0.1972
   84SAPS   C25 7923   3.192   3.103  10.200  0.2839  0.2660 -0.0191
   84SAPS   H5R 7924   3.097   3.053  10.226  0.5595 -0.0156  0.4534
   84SAPS   C26 7925   3.233   3.087  10.075  0.1553  0.0890  0.0496
   84SAPS   H6R 7926   3.171   3.026  10.008 -0.7247  0.1771  0.7700
   84SAPS   C27 7927   3.364   3.135  10.010 -0.4185 -1.2318 -0.6250
   84SAPS   H7R 7928   3.424   3.051   9.971 -0.6264 -1.5087 -0.3496
   84SAPS   H7S 7929   3.439   3.183  10.077 -0.2831  0.0524 -1.6513
   84SAPS   C28 7930   3.329   3.238   9.901 -0.2859 -0.1420  0.0002
   84SAPS   H8R 7931   3.307   3.339   9.938 -1.2262  0.1454 -1.3093
   84SAPS   C29 7932   3.338   3.213   9.771  0.3249  0.0548 -0.3734
   84SAPS   H9R 7933   3.311   3.292   9.699  1.1493 -0.8788 -1.7657
   84SAPS  C210 7934   3.375   3.089   9.691  0.5577 -0.2513 -0.4851
   84SAPS  H10R 7935   3.281   3.041   9.660  0.5798 -1.4969  1.2460
   84SAPS  H10S 7936   3.424   3.022   9.765  1.0970  0.9055  0.2426
   84SAPS  C211 7937   3.460   3.124   9.571 -0.2064  1.2172 -0.2037
   84SAPS  H11R 7938   3.567   3.142   9.593  0.0327 -1.6692  1.4640
   84SAPS  C212 7939   3.415   3.140   9.446  0.3158  0.3976  0.2787
   84SAPS  H12R 7940   3.485   3.150   9.361  0.6362  1.7398  0.6699
   84SAPS  C213 7941   3.271   3.134   9.392  0.1096  0.0784 -0.3386
   84SAPS  H13R 7942   3.207   3.161   9.479 -0.5349 -0.4972 -0.6220
   84SAPS  H13S 7943   3.240   3.029   9.373 -0.3230 -0.1071  1.2148
   84SAPS  C214 7944   3.240   3.223   9.274  0.7158  0.5327  0.5830
   84SAPS  H14R 7945   3.207   3.323   9.307  2.8465  1.0710  1.2667
   84SAPS  C215 7946   3.247   3.198   9.142  0.0029 -0.6927 -0.3692
   84SAPS  H15R 7947   3.224   3.279   9.072  1.2020  1.1829  1.2770
   84SAPS  C216 7948   3.279   3.068   9.066 -0.5075 -0.2649 -0.2156
   84SAPS  H16R 7949   3.315   2.993   9.140  1.2259 -0.5518 -1.2946
   84SAPS  H16S 7950   3.367   3.080   9.000  0.9603 -2.4528  1.2340
   84SAPS  C217 7951   3.164   3.001   8.980 -0.1587  0.0138  0.3501
   84SAPS  H17R 7952   3.208   2.906   8.943  0.9606  1.2360 -1.6577
   84SAPS  H17S 7953   3.145   3.067   8.893 -1.6388 -2.0328 -0.9554
   84SAPS  C218 7954   3.038   2.973   9.057  0.5525 -0.1991  0.5778
   84SAPS  H18R 7955   2.984   3.067   9.077 -2.5523 -1.9483  1.0351
   84SAPS  H18S 7956   3.059   2.934   9.159 -2.3845 -2.2415  0.5124
   84SAPS  C219 7957   2.944   2.870   8.994  0.3257  0.0517 -0.6114
   84SAPS  H19R 7958   2.860   2.849   9.063  1.3033 -2.3752 -0.0263
   84SAPS  H19S 7959   2.991   2.769   8.982  1.4808  0.2275  1.6868
   84SAPS  C220 7960   2.869   2.915   8.868 -0.1236  0.2693 -0.0854
   84SAPS  H20R 7961   2.814   2.823   8.839  0.1489  0.5474 -1.5519
   84SAPS  H20S 7962   2.934   2.935   8.780 -2.0086  0.6906 -1.4520
   84SAPS  H20T 7963   2.798   3.000   8.880 -0.0086  0.3106  0.3171
   84SAPS   C33 7964   3.232   2.754  10.425 -0.1061  1.1452 -0.7599
   84SAPS   H3X 7965   3.171   2.844  10.400 -1.1749  1.2061  1.7668
   84SAPS   H3Y 7966   3.168   2.665  10.443 -1.3855  1.9363 -1.2481
   84SAPS   C34 7967   3.320   2.741  10.303  0.0517  0.2063  0.2634
   84SAPS   H4X 7968   3.394   2.661  10.322 -2.8247 -3.2637 -1.8485
   84SAPS   H4Y 7969   3.370   2.837  10.277 -0.8308  1.1637  1.9113
   84SAPS   C35 7970   3.243   2.694  10.180 -0.2850 -0.0488  0.2156
   84SAPS   H5X 7971   3.168   2.771  10.155 -1.3133 -1.2214 -0.4063
   84SAPS   H5Y 7972   3.193   2.595  10.178  1.3887 -0.9345 -0.4030
   84SAPS   C36 7973   3.343   2.693  10.057 -0.5469 -0.7687  0.3627
   84SAPS   H6X 7974   3.399   2.598  10.073 -0.8659 -1.1251 -0.5404
   84SAPS   H6Y 7975   3.420   2.770  10.040 -0.8438 -0.9654 -2.4253
   84SAPS   C37 7976   3.271   2.669   9.920 -0.1956 -0.2759 -0.8932
   84SAPS   H7X 7977   3.220   2.767   9.909 -1.1531 -0.5806  0.5484
   84SAPS   H7Y 7978   3.191   2.593   9.937 -0.6738 -0.0750 -2.1568
   84SAPS   C38 7979   3.348   2.642   9.789  0.1790  0.5034 -0.8544
   84SAPS   H8X 7980   3.364   2.533   9.774 -3.4760 -0.3473  0.3016
   84SAPS   H8Y 7981   3.446   2.691   9.801  0.3209 -0.2996  2.3548
   84SAPS   C39 7982   3.262   2.688   9.672  0.3721  0.0103 -0.6521
   84SAPS   H9X 7983   3.229   2.794   9.685  3.0474  0.8504 -0.1724
   84SAPS   H9Y 7984   3.168   2.628   9.670 -1.2987  2.4163  0.2640
   84SAPS  C310 7985   3.324   2.700   9.528  0.3961  0.2084 -0.4324
   84SAPS  H10X 7986   3.424   2.747   9.542  0.0790  0.4862  1.0926
   84SAPS  H10Y 7987   3.269   2.774   9.466 -0.8937 -1.2477 -1.0755
   84SAPS  C311 7988   3.340   2.564   9.464  0.6382  0.5711  0.3900
   84SAPS  H11X 7989   3.241   2.519   9.441  0.1169  2.0619 -0.4587
   84SAPS  H11Y 7990   3.415   2.508   9.524  1.0716  0.7466  0.0165
   84SAPS  C312 7991   3.403   2.584   9.323  0.1979  0.0125 -0.5133
   84SAPS  H12X 7992   3.509   2.613   9.339  0.6190 -2.1702  0.9596
   84SAPS  H12Y 7993   3.359   2.668   9.264 -1.3702 -0.9808 -0.7871
   84SAPS  C313 7994   3.406   2.456   9.237  0.1728 -0.0286 -0.6495
   84SAPS  H13X 7995   3.297   2.437   9.220  0.0116 -1.0315  1.2749
   84SAPS  H13Y 7996   3.463   2.375   9.287  0.4103  0.4904 -0.0707
   84SAPS  C314 7997   3.470   2.470   9.099  0.2730  0.7332 -0.1011
   84SAPS  H14X 7998   3.469   2.372   9.047 -2.0089  2.4581 -3.7542
   84SAPS  H14Y 7999   3.575   2.505   9.105  0.8172 -1.0568  3.6977
   84SAPS  C315 8000   3.398   2.570   9.011  0.0398  0.0822  0.3068
   84SAPS  H15X 8001   3.409   2.675   9.046  0.0445  0.2599 -0.2272
   84SAPS  H15Y 8002   3.290   2.544   9.013 -0.0256  0.2771 -0.4981
   84SAPS  C316 8003   3.427   2.583   8.858 -0.4631 -0.1127 -0.3343
   84SAPS  H16X 8004   3.416   2.483   8.812  0.3469 -0.2550 -0.2214
   84SAPS  H16Y 8005   3.527   2.617   8.826 -0.6497 -0.2122 -1.0401
   84SAPS  C317 8006   3.327   2.674   8.786  0.3248 -0.1357  0.4317
   84SAPS  H17X 8007   3.316   2.759   8.857  3.3154  2.2319 -1.6458
   84SAPS  H17Y 8008   3.229   2.628   8.764  0.8501 -0.8431 -0.5184
   84SAPS  C318 8009   3.391   2.718   8.657 -0.1548 -0.0456  0.2400
   84SAPS  H18X 8010   3.471   2.793   8.677 -1.4474  1.3017  0.5137
   84SAPS  H18Y 8011   3.308   2.769   8.604 -0.3989  0.6071  1.2207
   84SAPS  H18Z 8012   3.432   2.637   8.592 -0.0802 -0.1341  0.3943
   85SAPS     N 8013   0.070   4.346  10.766 -0.5422 -0.2930 -0.2650
   85SAPS   HN1 8014   0.119   4.350  10.675  1.7088  1.2530  0.9296
   85SAPS   HN2 8015   0.034   4.249  10.781 -1.8659  0.4354  1.7509
   85SAPS   HN3 8016  -0.018   4.402  10.766 -1.8964 -2.3032 -0.7292
   85SAPS   C12 8017   0.171   4.377  10.867 -0.3893 -0.3555  0.3822
   85SAPS  H12A 8018   0.261   4.325  10.840 -1.5478 -1.1138 -2.3711
   85SAPS   C13 8019   0.209   4.527  10.875 -0.0032  0.5016  0.1086
   85SAPS  O13A 8020   0.169   4.605  10.787  0.2945 -0.3683  0.0357
   85SAPS  O13B 8021   0.289   4.564  10.966  0.1260  0.2740  0.1575
   85SAPS   C11 8022   0.126   4.327  11.001 -0.8663 -1.2101 -0.2822
   85SAPS  H11A 8023   0.034   4.383  11.028 -0.1978  0.7340 -1.8146
   85SAPS  H11B 8024   0.207   4.355  11.072 -0.5865  2.5386 -1.8696
   85SAPS     P 8025   0.201   4.074  10.988  0.0417  0.1944  0.2244
   85SAPS   O13 8026   0.323   4.109  11.065  0.8933  0.4719  0.3027
   85SAPS   O14 8027   0.133   3.949  11.022  0.1142 -0.1654  0.3464
   85SAPS   O12 8028   0.094   4.194  10.995 -0.2656  0.5078 -0.3142
   85SAPS   O11 8029   0.234   4.055  10.838  0.3999  0.5147  0.9323
   85SAPS    C1 8030   0.337   3.966  10.785 -0.4541 -0.1451  0.1192
   85SAPS    HA 8031   0.409   3.944  10.866 -0.8991 -1.0166  0.2846
   85SAPS    HB 8032   0.295   3.871  10.747 -0.6787 -0.5987  1.4561
   85SAPS    C2 8033   0.412   4.047  10.672 -0.3166  0.4437 -0.1877
   85SAPS    HS 8034   0.497   3.979  10.650  0.2272  1.1759 -0.3772
   85SAPS   O21 8035   0.459   4.173  10.710 -0.2103  0.4278 -0.0796
   85SAPS   C21 8036   0.561   4.163  10.798  0.8142  0.3715  0.2274
   85SAPS   O22 8037   0.603   4.060  10.854  0.6115 -0.7336  0.4427
   85SAPS   C22 8038   0.613   4.309  10.818  0.1063  0.2538 -0.0519
   85SAPS   H2R 8039   0.589   4.379  10.735  0.4477  2.0100  1.2776
   85SAPS   H2S 8040   0.561   4.342  10.911 -2.0163  0.6376 -1.2987
   85SAPS    C3 8041   0.314   4.067  10.555 -0.2369  0.0505 -0.2576
   85SAPS    HX 8042   0.381   4.127  10.490 -1.4494 -0.0826 -1.7008
   85SAPS    HY 8043   0.234   4.120  10.610  0.4503  0.3257  0.4909
   85SAPS   O31 8044   0.258   3.947  10.500  0.1201  0.4307 -0.1263
   85SAPS   C31 8045   0.308   3.914  10.381 -0.0718 -0.6781  0.2790
   85SAPS   O32 8046   0.381   3.988  10.312  0.9062  0.1584  0.0879
   85SAPS   C32 8047   0.259   3.770  10.344  0.4167 -0.3241  0.1421
   85SAPS   H2X 8048   0.168   3.795  10.286  0.5015 -1.1952 -0.3830
   85SAPS   H2Y 8049   0.215   3.724  10.435 -0.3425  0.1240  0.0072
   85SAPS   C23 8050   0.760   4.301  10.823 -0.3754  0.2023  0.3219
   85SAPS   H3R 8051   0.795   4.206  10.869  1.7112  1.4245  1.3947
   85SAPS   H3S 8052   0.806   4.385  10.879  1.4403 -0.8726  0.4865
   85SAPS   C24 8053   0.828   4.325  10.687 -0.1588 -0.4762 -0.0216
   85SAPS   H4R 8054   0.939   4.320  10.684  0.0316  1.7601 -4.4371
   85SAPS   H4S 8055   0.793   4.423  10.649  0.0402 -0.3270  0.1785
   85SAPS   C25 8056   0.791   4.220  10.586  0.3199  0.2691 -0.4179
   85SAPS   H5R 8057   0.822   4.117  10.608  3.2182  0.9086 -0.9939
   85SAPS   C26 8058   0.738   4.238  10.466  0.0286 -0.1196  0.0854
   85SAPS   H6R 8059   0.699   4.150  10.414  1.7243 -0.9757  0.2117
   85SAPS   C27 8060   0.708   4.373  10.393  0.0241 -0.4511 -0.1517
   85SAPS   H7R 8061   0.766   4.377  10.298  0.2016 -1.0028 -0.0734
   85SAPS   H7S 8062   0.745   4.462  10.447 -0.0901 -1.0785  0.9987
   85SAPS   C28 8063   0.562   4.373  10.355  0.6564 -0.3859 -0.2002
   85SAPS   H8R 8064   0.499   4.404  10.440 -1.0918 -1.5801 -0.9970
   85SAPS   C29 8065   0.504   4.339  10.236 -0.0702  0.4238  0.3934
   85SAPS   H9R 8066   0.396   4.351  10.220 -0.0090  0.7799  0.2415
   85SAPS  C210 8067   0.573   4.299  10.111 -0.0203 -0.3275 -0.2444
   85SAPS  H10R 8068   0.681   4.326  10.118 -0.2761  1.3923 -2.0430
   85SAPS  H10S 8069   0.544   4.359  10.023  3.5413 -0.6059 -1.7963
   85SAPS  C211 8070   0.572   4.157  10.084  0.5409  0.7639  0.4869
   85SAPS  H11R 8071   0.563   4.082  10.164  1.3253 -3.0097 -2.6202
   85SAPS  C212 8072   0.604   4.104   9.962  0.1077  0.4122  0.3572
   85SAPS  H12R 8073   0.617   3.995   9.967 -0.0760  0.3619 -0.1832
   85SAPS  C213 8074   0.642   4.182   9.843  0.3736  0.4777 -0.0715
   85SAPS  H13R 8075   0.699   4.115   9.775 -1.6104 -1.4368  0.0594
   85SAPS  H13S 8076   0.708   4.270   9.858  0.8303  0.7073 -2.9436
   85SAPS  C214 8077   0.512   4.230   9.771 -0.4638  0.4681  0.3494
   85SAPS  H14R 8078   0.449   4.303   9.823 -0.4488  0.6391  0.1290
   85SAPS  C215 8079   0.485   4.196   9.645 -0.4505 -0.1583 -0.3794
   85SAPS  H15R 8080   0.390   4.234   9.606 -0.3636 -0.4492 -0.8942
   85SAPS  C216 8081   0.564   4.098   9.557  0.5621  0.3437 -0.7840
   85SAPS  H16R 8082   0.585   4.005   9.614  0.0419  1.2033  0.8723
   85SAPS  H16S 8083   0.653   4.146   9.511  0.1878  0.5449 -1.3086
   85SAPS  C217 8084   0.470   4.071   9.437  0.7881  0.4995 -0.2161
   85SAPS  H17R 8085   0.450   4.160   9.374  0.7818  0.4454 -0.2909
   85SAPS  H17S 8086   0.377   4.031   9.484  1.0807  0.6573  0.5131
   85SAPS  C218 8087   0.525   3.972   9.329 -0.4638  0.2401 -1.0372
   85SAPS  H18R 8088   0.533   3.882   9.392 -0.8112  1.4878  0.8764
   85SAPS  H18S 8089   0.630   4.000   9.303  0.0654 -0.5257  0.1990
   85SAPS  C219 8090   0.439   3.948   9.202  0.0391 -0.3294 -0.0392
   85SAPS  H19R 8091   0.344   3.903   9.237  0.3752 -0.7369  0.3545
   85SAPS  H19S 8092   0.486   3.863   9.148  0.8984 -0.8058  1.3939
   85SAPS  C220 8093   0.432   4.069   9.110  0.3609 -0.2108 -0.2733
   85SAPS  H20R 8094   0.385   4.039   9.014  0.6920 -1.0844 -0.1754
   85SAPS  H20S 8095   0.535   4.107   9.094  0.6073 -0.7686 -0.0717
   85SAPS  H20T 8096   0.381   4.155   9.157  1.4944  0.7505 -0.7520
   85SAPS   C33 8097   0.362   3.681  10.273 -0.0091  0.0431 -0.0501
   85SAPS   H3X 8098   0.328   3.576  10.281 -2.5438  0.8556  0.7980
   85SAPS   H3Y 8099   0.463   3.701  10.317  0.0380 -2.4085  1.1445
   85SAPS   C34 8100   0.372   3.712  10.127 -0.9320 -0.2806  0.6958
   85SAPS   H4X 8101   0.393   3.819  10.103  2.0467 -1.2907 -1.8436
   85SAPS   H4Y 8102   0.272   3.697  10.079 -1.2487 -2.2034  1.8671
   85SAPS   C35 8103   0.472   3.631  10.042 -0.3212  0.2023 -0.0038
   85SAPS   H5X 8104   0.471   3.525  10.076  0.1980  0.1912 -0.0219
   85SAPS   H5Y 8105   0.578   3.652  10.066 -0.3877 -0.4543  0.9208
   85SAPS   C36 8106   0.438   3.624   9.895 -0.3573  0.2182 -0.2520
   85SAPS   H6X 8107   0.336   3.586   9.875  0.1406  0.4569 -3.8274
   85SAPS   H6Y 8108   0.493   3.536   9.854  1.6182  1.6206 -0.7678
   85SAPS   C37 8109   0.493   3.743   9.805 -0.0494  0.0253 -0.2035
   85SAPS   H7X 8110   0.586   3.766   9.861  0.6983 -1.5651 -0.7360
   85SAPS   H7Y 8111   0.428   3.832   9.816 -0.2445  0.1117 -1.7802
   85SAPS   C38 8112   0.511   3.706   9.656 -0.1021  1.3945  0.7480
   85SAPS   H8X 8113   0.583   3.624   9.638  1.2182  2.7481 -0.4236
   85SAPS   H8Y 8114   0.547   3.796   9.602 -1.5262  0.7525 -1.3985
   85SAPS   C39 8115   0.377   3.660   9.591 -0.0070 -0.0566  0.0191
   85SAPS   H9X 8116   0.331   3.760   9.607  1.7765  1.0510 -1.3708
   85SAPS   H9Y 8117   0.322   3.583   9.649  1.6081 -2.0991 -1.0190
   85SAPS  C310 8118   0.395   3.608   9.450 -1.1949 -0.0470 -0.3552
   85SAPS  H10X 8119   0.445   3.678   9.380  0.2954 -1.6577 -0.9848
   85SAPS  H10Y 8120   0.294   3.596   9.407 -0.4417 -1.0640 -1.9162
   85SAPS  C311 8121   0.470   3.478   9.429  0.1837  0.0903 -0.1498
   85SAPS  H11X 8122   0.410   3.396   9.475 -0.1358 -0.0249 -0.7696
   85SAPS  H11Y 8123   0.571   3.478   9.477 -0.0589 -0.5758  0.3859
   85SAPS  C312 8124   0.479   3.453   9.281 -0.9655 -0.5763 -0.4523
   85SAPS  H12X 8125   0.549   3.531   9.243 -0.3687 -0.9261 -0.0834
   85SAPS  H12Y 8126   0.381   3.465   9.230 -0.1296 -0.7926 -2.1786
   85SAPS  C313 8127   0.553   3.320   9.243  0.9705  0.2123 -0.0795
   85SAPS  H13X 8128   0.486   3.236   9.271 -0.8780  1.5420 -0.2856
   85SAPS  H13Y 8129   0.657   3.320   9.282  2.0903  0.3166 -2.8234
   85SAPS  C314 8130   0.591   3.307   9.091  0.7324 -0.3247 -0.1376
   85SAPS  H14X 8131   0.502   3.311   9.024  0.8293  2.0986 -0.2409
   85SAPS  H14Y 8132   0.639   3.208   9.093 -2.6542 -2.1283 -0.4131
   85SAPS  C315 8133   0.687   3.413   9.036  0.5073  0.5172 -0.6446
   85SAPS  H15X 8134   0.776   3.426   9.101 -0.8207  0.2327  1.3579
   85SAPS  H15Y 8135   0.639   3.513   9.038 -3.9999 -1.3933 -0.8427
   85SAPS  C316 8136   0.731   3.391   8.893 -1.1034  0.4835 -0.2602
   85SAPS  H16X 8137   0.831   3.440   8.891 -1.1295  0.7006  1.6969
   85SAPS  H16Y 8138   0.670   3.446   8.818 -0.0059  0.4184 -1.2365
   85SAPS  C317 8139   0.775   3.245   8.862 -0.5551 -0.0082  0.0303
   85SAPS  H17X 8140   0.682   3.187   8.846  0.7968 -1.8071 -1.8085
   85SAPS  H17Y 8141   0.827   3.202   8.950  1.7608 -1.2528 -1.8325
   85SAPS  C318 8142   0.865   3.216   8.740 -0.3783 -0.3417 -0.7183
   85SAPS  H18X 8143   0.914   3.117   8.741 -0.4144 -0.3740 -1.5591
   85SAPS  H18Y 8144   0.946   3.291   8.753  0.1032 -0.3972 -2.9845
   85SAPS  H18Z 8145   0.820   3.243   8.642 -0.0399 -0.4611 -0.9077
   86SAPS     N 8146   0.866   5.234  11.006 -0.0023  1.0730  0.5454
   86SAPS   HN1 8147   0.827   5.279  10.921 -2.1154 -0.1243  0.8032
   86SAPS   HN2 8148   0.876   5.301  11.085  0.3388 -0.2285  1.6381
   86SAPS   HN3 8149   0.963   5.201  10.987  0.1918  1.2184  1.2585
   86SAPS   C12 8150   0.800   5.115  11.059 -0.0551  0.8210 -0.2016
   86SAPS  H12A 8151   0.802   5.116  11.167 -0.0827  2.2573 -0.1985
   86SAPS   C13 8152   0.650   5.087  11.011 -0.1831 -0.5483  0.2646
   86SAPS  O13A 8153   0.591   5.181  10.950  0.2436 -0.4647  0.3920
   86SAPS  O13B 8154   0.588   4.992  11.058 -0.0254  0.2052 -0.2869
   86SAPS   C11 8155   0.866   4.985  11.007  0.7401 -0.7107  0.0998
   86SAPS  H11A 8156   0.844   4.982  10.898  3.1196  0.7367 -0.5031
   86SAPS  H11B 8157   0.817   4.895  11.050 -3.3476  1.2828  0.1230
   86SAPS     P 8158   1.115   4.885  10.976 -0.0158  0.0983  0.3086
   86SAPS   O13 8159   1.238   4.961  10.954  0.4113  0.0476  0.2373
   86SAPS   O14 8160   1.125   4.776  11.077  0.0113 -0.4204 -0.5149
   86SAPS   O12 8161   1.005   4.990  11.022 -0.1541  0.0489 -0.0340
   86SAPS   O11 8162   1.051   4.830  10.839  0.4084 -0.0878 -0.1043
   86SAPS    C1 8163   1.032   4.698  10.806 -0.7345  0.1108 -0.0000
   86SAPS    HA 8164   1.130   4.647  10.814  0.6810  2.7732  1.2027
   86SAPS    HB 8165   0.969   4.644  10.879 -2.9415  2.0467 -0.3314
   86SAPS    C2 8166   0.966   4.680  10.664  0.5238 -0.2584 -0.5413
   86SAPS    HS 8167   0.958   4.572  10.639 -0.4492 -0.9440  2.3892
   86SAPS   O21 8168   1.027   4.757  10.563  0.2829  0.2751  0.5983
   86SAPS   C21 8169   1.138   4.712  10.514  0.5709  0.2740 -0.2711
   86SAPS   O22 8170   1.202   4.615  10.550 -0.1329 -0.5861  0.0563
   86SAPS   C22 8171   1.169   4.772  10.376  0.1875 -0.0373 -0.1764
   86SAPS   H2R 8172   1.099   4.857  10.361 -1.5272 -0.8472  2.6168
   86SAPS   H2S 8173   1.270   4.817  10.393  0.3116 -0.7450  1.0465
   86SAPS    C3 8174   0.817   4.722  10.670 -0.4435  0.3256 -0.7864
   86SAPS    HX 8175   0.823   4.814  10.733 -1.0718  0.5897 -1.0985
   86SAPS    HY 8176   0.777   4.639  10.733  2.9385 -0.9742 -0.1283
   86SAPS   O31 8177   0.747   4.730  10.546 -0.0551  0.9267 -0.4567
   86SAPS   C31 8178   0.749   4.847  10.478 -0.0271  0.0639 -0.0218
   86SAPS   O32 8179   0.794   4.952  10.520  0.2691 -0.3142  0.2495
   86SAPS   C32 8180   0.679   4.827  10.341  0.4267 -0.5415 -0.8292
   86SAPS   H2X 8181   0.661   4.930  10.305  1.2947  1.2973  3.3690
   86SAPS   H2Y 8182   0.585   4.770  10.360 -0.2201  0.0765 -2.0887
   86SAPS   C23 8183   1.150   4.671  10.260 -0.1669  0.4271 -0.7832
   86SAPS   H3R 8184   1.049   4.626  10.272 -0.5069  1.3648 -0.0417
   86SAPS   H3S 8185   1.225   4.591  10.277 -2.2136 -1.1516  1.4617
   86SAPS   C24 8186   1.181   4.726  10.122  0.2239  0.3339 -0.0743
   86SAPS   H4R 8187   1.270   4.794  10.122  1.0256 -0.6458 -1.6336
   86SAPS   H4S 8188   1.096   4.797  10.117 -0.3975 -0.3638  0.5649
   86SAPS   C25 8189   1.170   4.619  10.015  0.2087  0.2433  0.3883
   86SAPS   H5R 8190   1.106   4.533  10.040 -0.9278  0.8337 -0.3964
   86SAPS   C26 8191   1.235   4.622   9.898  0.4880  0.2136  0.4509
   86SAPS   H6R 8192   1.230   4.539   9.826 -0.8425 -1.4191  2.3114
   86SAPS   C27 8193   1.334   4.737   9.867  0.9914  0.5154  0.6021
   86SAPS   H7R 8194   1.389   4.762   9.960  0.5360 -0.4105  1.1352
   86SAPS   H7S 8195   1.280   4.828   9.832  0.0484  0.4233  1.7526
   86SAPS   C28 8196   1.430   4.709   9.756  0.6016 -0.1161  0.6943
   86SAPS   H8R 8197   1.535   4.692   9.783  0.4639  0.2134  1.4600
   86SAPS   C29 8198   1.392   4.725   9.627 -0.2677  0.3132 -0.3258
   86SAPS   H9R 8199   1.479   4.715   9.560  0.9642 -0.4839  1.2976
   86SAPS  C210 8200   1.263   4.761   9.562 -0.3311  0.3813  0.1866
   86SAPS  H10R 8201   1.262   4.871   9.546 -0.6523  0.1281 -1.7361
   86SAPS  H10S 8202   1.173   4.735   9.623 -1.0001 -3.3984 -2.0715
   86SAPS  C211 8203   1.235   4.686   9.432  0.4604  0.3353 -0.4315
   86SAPS  H11R 8204   1.169   4.598   9.436 -0.7287  1.2398  0.8133
   86SAPS  C212 8205   1.256   4.738   9.314 -0.9074  0.0660  0.1057
   86SAPS  H12R 8206   1.221   4.696   9.218  2.0658  1.0138 -1.5183
   86SAPS  C213 8207   1.329   4.869   9.297 -0.1218  0.2697  0.3510
   86SAPS  H13R 8208   1.437   4.844   9.310  0.1771 -0.4467 -2.6655
   86SAPS  H13S 8209   1.297   4.952   9.363 -0.6324 -1.1701  1.9715
   86SAPS  C214 8210   1.308   4.927   9.155  1.1537  0.1665  0.7434
   86SAPS  H14R 8211   1.244   5.016   9.158  3.5146  1.9981 -0.4030
   86SAPS  C215 8212   1.351   4.883   9.034 -0.3613 -0.1790 -0.1154
   86SAPS  H15R 8213   1.335   4.944   8.944  1.2383 -1.2097 -1.1383
   86SAPS  C216 8214   1.435   4.756   9.021  0.0868 -0.3763  0.4131
   86SAPS  H16R 8215   1.383   4.678   8.963  2.3638 -1.5979 -0.0963
   86SAPS  H16S 8216   1.458   4.704   9.117  0.0831 -2.2162 -0.5505
   86SAPS  C217 8217   1.572   4.789   8.972 -0.1402 -0.5163  0.1726
   86SAPS  H17R 8218   1.641   4.704   8.988 -1.0217 -1.2031  0.4420
   86SAPS  H17S 8219   1.616   4.857   9.048 -0.0235 -1.6134  1.1256
   86SAPS  C218 8220   1.577   4.844   8.823  0.3980  0.4734 -0.5360
   86SAPS  H18R 8221   1.507   4.931   8.824  0.8202  0.8410  1.4446
   86SAPS  H18S 8222   1.547   4.758   8.759 -1.7100  0.2480  0.6793
   86SAPS  C219 8223   1.716   4.890   8.788 -0.0851  0.5210  0.0070
   86SAPS  H19R 8224   1.768   4.931   8.878  1.0450 -0.0384 -0.3664
   86SAPS  H19S 8225   1.699   4.970   8.713 -1.6969  0.0786 -0.1187
   86SAPS  C220 8226   1.808   4.775   8.738 -0.2040 -0.3221  0.2651
   86SAPS  H20R 8227   1.794   4.769   8.628  1.3305 -1.0817  0.0893
   86SAPS  H20S 8228   1.790   4.674   8.779  1.6086 -2.4580 -3.6675
   86SAPS  H20T 8229   1.916   4.778   8.760  0.9774 -0.2790 -4.3798
   86SAPS   C33 8230   0.772   4.761  10.233 -0.1717  0.1068  0.2335
   86SAPS   H3X 8231   0.821   4.670  10.274 -1.8519 -0.8103  0.2945
   86SAPS   H3Y 8232   0.852   4.835  10.209  1.7241 -1.5620  1.1023
   86SAPS   C34 8233   0.706   4.732  10.097 -0.6276 -0.8065  0.2682
   86SAPS   H4X 8234   0.650   4.814  10.047 -1.0315 -2.5135 -2.2626
   86SAPS   H4Y 8235   0.624   4.662  10.120 -1.6225 -0.6080 -2.2846
   86SAPS   C35 8236   0.804   4.668  10.002 -0.3413 -0.1740 -0.2492
   86SAPS   H5X 8237   0.829   4.565  10.036 -0.0410 -0.4058 -1.1654
   86SAPS   H5Y 8238   0.900   4.724  10.000 -0.2008 -0.4240 -0.4272
   86SAPS   C36 8239   0.754   4.665   9.864  0.1697 -0.1384  0.1571
   86SAPS   H6X 8240   0.738   4.772   9.838  1.9918 -0.0321 -0.7069
   86SAPS   H6Y 8241   0.652   4.623   9.857 -0.1409  0.7831 -1.5013
   86SAPS   C37 8242   0.842   4.595   9.762  0.1782 -0.0972  0.8818
   86SAPS   H7X 8243   0.852   4.490   9.796 -3.9971 -0.4275  1.5856
   86SAPS   H7Y 8244   0.940   4.648   9.759 -1.0942  2.5217  2.3219
   86SAPS   C38 8245   0.775   4.609   9.623 -0.1877  0.2449  0.1408
   86SAPS   H8X 8246   0.729   4.710   9.617 -0.4634  0.2664  2.0551
   86SAPS   H8Y 8247   0.696   4.531   9.625  0.4342 -0.4272 -0.7711
   86SAPS   C39 8248   0.870   4.575   9.513  0.2157  0.0265 -0.1889
   86SAPS   H9X 8249   0.915   4.475   9.531 -1.5356 -0.7756 -0.0104
   86SAPS   H9Y 8250   0.942   4.659   9.517 -1.3265  1.3809  0.6358
   86SAPS  C310 8251   0.801   4.580   9.375  0.1369 -0.6371 -0.1854
   86SAPS  H10X 8252   0.736   4.670   9.370  0.2612 -0.5871 -1.0832
   86SAPS  H10Y 8253   0.724   4.501   9.368 -1.2510  0.7496 -1.4076
   86SAPS  C311 8254   0.900   4.558   9.262  0.0830  0.1906 -0.6503
   86SAPS  H11X 8255   0.947   4.459   9.279  1.4939  0.9138 -0.1887
   86SAPS  H11Y 8256   0.983   4.632   9.268 -0.4464  0.6616  1.8322
   86SAPS  C312 8257   0.838   4.565   9.125  0.2583 -0.0182 -0.3296
   86SAPS  H12X 8258   0.766   4.649   9.118  0.5924  0.4524  1.4928
   86SAPS  H12Y 8259   0.776   4.474   9.112  0.1388 -0.0142  0.2029
   86SAPS  C313 8260   0.950   4.571   9.014  0.1815 -0.0402 -0.0930
   86SAPS  H13X 8261   1.020   4.486   9.031  0.9153  0.6160  0.2322
   86SAPS  H13Y 8262   1.007   4.665   9.029  0.3460 -0.1771  0.1489
   86SAPS  C314 8263   0.894   4.572   8.869  0.3375  0.0888 -0.8668
   86SAPS  H14X 8264   0.805   4.638   8.866 -0.3859 -0.8727 -1.0660
   86SAPS  H14Y 8265   0.860   4.467   8.852  0.9458 -0.0297 -1.4392
   86SAPS  C315 8266   1.005   4.586   8.762 -0.3794  0.2132 -0.4877
   86SAPS  H15X 8267   1.051   4.687   8.768 -2.5005  1.4245 -2.6046
   86SAPS  H15Y 8268   0.949   4.591   8.666 -0.3916  1.7828 -0.4259
   86SAPS  C316 8269   1.115   4.474   8.760 -0.5097  0.1295 -0.1427
   86SAPS  H16X 8270   1.071   4.372   8.762  1.3415 -0.6859  1.0182
   86SAPS  H16Y 8271   1.177   4.476   8.852 -1.0250 -2.1626  0.3396
   86SAPS  C317 8272   1.217   4.494   8.642 -0.1868 -0.5674  0.3021
   86SAPS  H17X 8273   1.155   4.500   8.550 -1.5811 -1.4340  1.1389
   86SAPS  H17Y 8274   1.290   4.410   8.638 -0.1222 -0.6462  2.2242
   86SAPS  C318 8275   1.314   4.618   8.662  0.6925  0.7218  0.4622
   86SAPS  H18X 8276   1.247   4.706   8.656 -0.9039 -0.5336 -1.5829
   86SAPS  H18Y 8277   1.375   4.625   8.569 -2.3121  1.1372 -1.5970
   86SAPS  H18Z 8278   1.377   4.609   8.753 -1.3902  0.3330  1.9337
   87SAPS     N 8279   2.384   5.758  10.979 -1.0211  0.8435 -0.0865
   87SAPS   HN1 8280   2.472   5.728  11.027  0.1134  2.4127 -1.0810
   87SAPS   HN2 8281   2.324   5.802  11.052 -0.2351  0.9435  0.5237
   87SAPS   HN3 8282   2.329   5.671  10.966  0.0361  0.2168 -0.5443
   87SAPS   C12 8283   2.400   5.848  10.867  0.3340  0.3108  0.1627
   87SAPS  H12A 8284   2.459   5.796  10.794  0.4666 -0.4001  0.7631
   87SAPS   C13 8285   2.272   5.894  10.801 -0.3224 -0.1953  0.2555
   87SAPS  O13A 8286   2.161   5.853  10.845  0.0982 -0.3151 -0.0147
   87SAPS  O13B 8287   2.281   5.975  10.709  0.6511  0.0953  0.4391
   87SAPS   C11 8288   2.488   5.967  10.912  0.4570 -0.2953 -0.6385
   87SAPS  H11A 8289   2.496   6.038  10.826 -2.3011 -0.0899 -0.8226
   87SAPS  H11B 8290   2.575   5.908  10.946  0.2040 -0.0990  0.3825
   87SAPS     P 8291   2.427   6.184  11.047 -0.0957  0.0262  0.0222
   87SAPS   O13 8292   2.285   6.216  11.062 -0.4176 -0.4790  0.1380
   87SAPS   O14 8293   2.516   6.207  11.166 -0.3267 -0.3663 -0.1622
   87SAPS   O12 8294   2.441   6.031  11.030 -0.7131  0.4945  0.2750
   87SAPS   O11 8295   2.490   6.256  10.917 -0.2136  0.6034 -0.1539
   87SAPS    C1 8296   2.380   6.302  10.833 -0.4901 -0.0503  1.0872
   87SAPS    HA 8297   2.315   6.218  10.800 -0.8962  0.9814 -0.9190
   87SAPS    HB 8298   2.313   6.376  10.882  0.4396  3.0068 -1.8772
   87SAPS    C2 8299   2.429   6.381  10.706  0.1434 -0.5550  0.7749
   87SAPS    HS 8300   2.330   6.413  10.666 -0.1671  0.6831  2.4240
   87SAPS   O21 8301   2.508   6.289  10.621  0.0413 -0.0288 -0.0636
   87SAPS   C21 8302   2.438   6.218  10.528  0.8418 -0.1485 -0.3820
   87SAPS   O22 8303   2.321   6.242  10.495 -0.1723  0.0151 -0.1086
   87SAPS   C22 8304   2.532   6.115  10.469 -0.0916  0.6385  0.2203
   87SAPS   H2R 8305   2.634   6.159  10.465 -0.1715  0.8434  0.4225
   87SAPS   H2S 8306   2.530   6.025  10.533  0.2491  0.4299 -0.0563
   87SAPS    C3 8307   2.504   6.506  10.737  0.3383 -0.3267  0.3474
   87SAPS    HX 8308   2.603   6.492  10.785  0.4942  0.5044  0.2848
   87SAPS    HY 8309   2.448   6.567  10.812 -3.0226 -2.1994 -0.4326
   87SAPS   O31 8310   2.527   6.583  10.615  0.2543 -0.2250  0.3301
   87SAPS   C31 8311   2.436   6.658  10.568  0.6736  0.0648  0.1469
   87SAPS   O32 8312   2.331   6.692  10.620  0.2226  0.0499 -0.1368
   87SAPS   C32 8313   2.467   6.719  10.433 -0.8514  0.0410  0.8966
   87SAPS   H2X 8314   2.578   6.727  10.437 -0.5780 -0.9461 -2.0113
   87SAPS   H2Y 8315   2.424   6.821  10.425  1.2442  0.8829 -0.4482
   87SAPS   C23 8316   2.489   6.071  10.328 -0.1411 -0.3978 -0.3583
   87SAPS   H3R 8317   2.520   6.156  10.264  2.1681 -0.2170  0.9240
   87SAPS   H3S 8318   2.378   6.080  10.326 -0.0054  1.6214 -0.8468
   87SAPS   C24 8319   2.537   5.935  10.296  0.4538 -0.5669 -0.4174
   87SAPS   H4R 8320   2.480   5.858  10.352  0.7379 -0.8118 -0.4604
   87SAPS   H4S 8321   2.645   5.922  10.319  0.7712  1.5212 -0.4844
   87SAPS   C25 8322   2.516   5.921  10.148 -0.1029  0.1952 -0.2635
   87SAPS   H5R 8323   2.602   5.956  10.090  0.7750 -1.1021  0.2055
   87SAPS   C26 8324   2.404   5.878  10.083 -0.8170  0.3361  0.8660
   87SAPS   H6R 8325   2.399   5.890   9.974  1.1708 -1.7947  0.4618
   87SAPS   C27 8326   2.274   5.831  10.138 -0.0597  0.6179  0.3122
   87SAPS   H7R 8327   2.201   5.856  10.059  1.3768  0.8799 -0.9954
   87SAPS   H7S 8328   2.243   5.905  10.214 -1.4198  3.4253 -2.7509
   87SAPS   C28 8329   2.272   5.690  10.193 -0.5651 -0.2608 -0.6490
   87SAPS   H8R 8330   2.265   5.684  10.302 -0.4797  0.2906 -0.6058
   87SAPS   C29 8331   2.256   5.577  10.128  0.5853  0.8250  0.5860
   87SAPS   H9R 8332   2.252   5.488  10.192  3.2299 -0.3200 -0.6764
   87SAPS  C210 8333   2.241   5.552   9.977 -0.1845 -1.0559 -0.2923
   87SAPS  H10R 8334   2.241   5.650   9.926 -0.6305 -1.2950 -0.7645
   87SAPS  H10S 8335   2.142   5.507   9.955 -1.1679  2.1288 -3.4089
   87SAPS  C211 8336   2.347   5.460   9.924  0.8253  0.2927 -0.3767
   87SAPS  H11R 8337   2.389   5.398  10.004 -3.2881 -1.5040  0.6290
   87SAPS  C212 8338   2.374   5.434   9.791  0.4003  0.2912 -0.3965
   87SAPS  H12R 8339   2.456   5.365   9.764 -0.8296 -0.7905 -1.5138
   87SAPS  C213 8340   2.306   5.494   9.670 -0.6457 -0.6213  0.7350
   87SAPS  H13R 8341   2.215   5.545   9.709  0.2521  0.6445  1.2539
   87SAPS  H13S 8342   2.277   5.415   9.598 -2.6037  0.1037  0.6490
   87SAPS  C214 8343   2.386   5.603   9.597  0.1676  0.6561 -0.0116
   87SAPS  H14R 8344   2.495   5.589   9.599  0.0570 -0.1193  0.9307
   87SAPS  C215 8345   2.348   5.721   9.539 -0.3586  0.3173 -0.1270
   87SAPS  H15R 8346   2.416   5.780   9.476  2.4442 -1.7205  0.7830
   87SAPS  C216 8347   2.203   5.760   9.537  0.7232 -0.4611 -0.0289
   87SAPS  H16R 8348   2.166   5.768   9.641  0.3546 -0.1407 -0.1858
   87SAPS  H16S 8349   2.145   5.685   9.479 -0.6686  0.4894  0.0795
   87SAPS  C217 8350   2.192   5.901   9.476  0.6278 -0.4046 -1.1133
   87SAPS  H17R 8351   2.250   5.970   9.539 -0.3349 -1.4837  1.0441
   87SAPS  H17S 8352   2.087   5.932   9.492  0.5350 -0.8966 -0.7586
   87SAPS  C218 8353   2.237   5.925   9.330  0.4831 -0.0869  0.0917
   87SAPS  H18R 8354   2.344   5.895   9.321 -0.5341 -4.4107  0.5178
   87SAPS  H18S 8355   2.205   6.031   9.320 -3.8244 -1.2327 -0.0792
   87SAPS  C219 8356   2.158   5.838   9.233  0.3868 -0.0721 -0.1586
   87SAPS  H19R 8357   2.165   5.734   9.273 -0.6457  0.1066  0.5298
   87SAPS  H19S 8358   2.206   5.844   9.133 -0.0782  0.2183 -0.3673
   87SAPS  C220 8359   2.011   5.876   9.223  0.0615  0.7757  0.4246
   87SAPS  H20R 8360   2.010   5.983   9.190 -1.1198  0.4303 -0.7239
   87SAPS  H20S 8361   1.966   5.858   9.323  0.9952  1.1861  0.9328
   87SAPS  H20T 8362   1.959   5.824   9.140 -0.3063  0.6204  0.7526
   87SAPS   C33 8363   2.433   6.624  10.322  0.6617 -0.4467  0.7929
   87SAPS   H3X 8364   2.324   6.609  10.306  0.7539 -0.0829 -0.2473
   87SAPS   H3Y 8365   2.470   6.522  10.346 -0.7653 -2.2996 -3.7684
   87SAPS   C34 8366   2.487   6.677  10.183 -0.5331 -0.6474 -0.6202
   87SAPS   H4X 8367   2.598   6.688  10.192 -0.8926  3.1686  1.2069
   87SAPS   H4Y 8368   2.462   6.785  10.177 -0.5914 -0.5972  0.3386
   87SAPS   C35 8369   2.457   6.601  10.054  0.0487  0.5066 -0.3391
   87SAPS   H5X 8370   2.350   6.623  10.035 -0.3317 -0.8623  0.1159
   87SAPS   H5Y 8371   2.460   6.491  10.067 -1.1746  0.6993  2.1935
   87SAPS   C36 8372   2.538   6.653   9.936 -0.2260 -0.2853 -0.3590
   87SAPS   H6X 8373   2.646   6.626   9.935  0.5071  2.3378  0.7905
   87SAPS   H6Y 8374   2.534   6.763   9.927 -0.6765 -0.4609 -3.2250
   87SAPS   C37 8375   2.478   6.616   9.796  0.6983  0.4786  0.1228
   87SAPS   H7X 8376   2.370   6.641   9.794  1.0727  2.5618  2.3511
   87SAPS   H7Y 8377   2.470   6.505   9.787 -2.3780  0.4149  1.9763
   87SAPS   C38 8378   2.559   6.669   9.677  0.4813 -0.0343 -0.7268
   87SAPS   H8X 8379   2.666   6.672   9.707  0.7164  1.2417 -1.6077
   87SAPS   H8Y 8380   2.542   6.778   9.679  2.0442  0.2799  2.6383
   87SAPS   C39 8381   2.534   6.602   9.541  0.4137 -0.0143 -0.2455
   87SAPS   H9X 8382   2.426   6.581   9.525  0.2743 -1.7244  2.3834
   87SAPS   H9Y 8383   2.591   6.507   9.534  0.0076 -0.1645 -2.0054
   87SAPS  C310 8384   2.579   6.695   9.429  0.5629  0.2835 -0.2733
   87SAPS  H10X 8385   2.689   6.706   9.417  0.6464 -0.8844 -0.6565
   87SAPS  H10Y 8386   2.542   6.797   9.453 -0.9001  0.5251 -3.1673
   87SAPS  C311 8387   2.514   6.673   9.291  0.2107  0.4773  0.7995
   87SAPS  H11X 8388   2.532   6.763   9.229 -0.2320  0.6033  0.8461
   87SAPS  H11Y 8389   2.404   6.671   9.308  0.5197  0.9070  3.0551
   87SAPS  C312 8390   2.556   6.549   9.209  0.1477 -0.1129 -0.6184
   87SAPS  H12X 8391   2.528   6.467   9.279  1.9890 -0.6957 -0.5053
   87SAPS  H12Y 8392   2.666   6.555   9.199  0.2262  2.0477  0.8721
   87SAPS  C313 8393   2.494   6.532   9.066  0.1172  0.4484  0.1001
   87SAPS  H13X 8394   2.385   6.554   9.067 -0.1121 -0.5541  1.8599
   87SAPS  H13Y 8395   2.493   6.426   9.033 -1.5080  0.2936  0.5457
   87SAPS  C314 8396   2.569   6.606   8.958  0.1746  0.4543  0.2546
   87SAPS  H14X 8397   2.679   6.595   8.969  0.0567 -0.9022  0.1665
   87SAPS  H14Y 8398   2.562   6.716   8.974 -0.3613  0.0240  3.9198
   87SAPS  C315 8399   2.533   6.564   8.818 -0.2013  0.0927  0.5651
   87SAPS  H15X 8400   2.559   6.456   8.812  0.5985  0.0827  2.9569
   87SAPS  H15Y 8401   2.596   6.618   8.744  0.3120  1.3740  1.8687
   87SAPS  C316 8402   2.383   6.574   8.790  0.2176 -0.0162  0.7301
   87SAPS  H16X 8403   2.353   6.677   8.818 -0.6015  0.1536 -0.6634
   87SAPS  H16Y 8404   2.332   6.514   8.868 -0.7238 -0.2571 -0.0483
   87SAPS  C317 8405   2.334   6.553   8.645 -0.4065 -0.1347 -0.0848
   87SAPS  H17X 8406   2.394   6.608   8.570 -3.5001  1.6258 -1.4515
   87SAPS  H17Y 8407   2.233   6.600   8.637  0.8794  2.5034 -2.2465
   87SAPS  C318 8408   2.305   6.399   8.607  0.2485 -0.4394 -0.0168
   87SAPS  H18X 8409   2.394   6.334   8.621  0.3817 -0.5119 -1.1121
   87SAPS  H18Y 8410   2.239   6.384   8.520  0.0865  0.4861 -0.0699
   87SAPS  H18Z 8411   2.230   6.368   8.682 -0.7657 -2.0743 -1.6500
   88SAPS     N 8412   5.022   5.941  11.228  0.4525  0.1343  0.0391
   88SAPS   HN1 8413   5.036   5.920  11.127 -1.8051  0.0949 -0.3123
   88SAPS   HN2 8414   4.993   6.040  11.228  0.1843  0.0777 -1.1542
   88SAPS   HN3 8415   5.110   5.933  11.283 -0.6725 -3.5988  1.6282
   88SAPS   C12 8416   4.915   5.850  11.267 -0.5008 -0.6022 -0.2124
   88SAPS  H12A 8417   4.938   5.750  11.233  1.8164  0.5983 -2.6173
   88SAPS   C13 8418   4.899   5.850  11.421 -0.1675 -0.1966  0.2560
   88SAPS  O13A 8419   4.959   5.933  11.493  0.2860 -0.6842  0.3519
   88SAPS  O13B 8420   4.832   5.756  11.468  0.8306 -0.2874 -0.8412
   88SAPS   C11 8421   4.785   5.893  11.192  0.2201 -0.5463 -0.3438
   88SAPS  H11A 8422   4.754   5.998  11.211  0.8087 -0.4932  0.3924
   88SAPS  H11B 8423   4.708   5.825  11.233 -0.2877  0.1825 -0.0516
   88SAPS     P 8424   4.810   5.982  10.947 -0.0673  0.1758  0.0549
   88SAPS   O13 8425   4.703   6.086  10.954 -0.3573  0.4338 -0.0119
   88SAPS   O14 8426   4.944   6.035  10.948  0.1997 -0.5527 -0.5201
   88SAPS   O12 8427   4.792   5.863  11.055  0.4043 -0.4980  0.8580
   88SAPS   O11 8428   4.789   5.905  10.813  0.5151  0.7180 -0.2869
   88SAPS    C1 8429   4.693   5.805  10.802 -0.2866  0.3423  0.7241
   88SAPS    HA 8430   4.731   5.707  10.837  0.5407  0.8123  1.1656
   88SAPS    HB 8431   4.595   5.833  10.846 -0.5885  2.0847 -0.9623
   88SAPS    C2 8432   4.647   5.784  10.656  0.0450 -0.9057  0.8271
   88SAPS    HS 8433   4.562   5.713  10.661  1.2043 -2.3434  0.9325
   88SAPS   O21 8434   4.749   5.742  10.574  0.0277 -0.2804  0.3163
   88SAPS   C21 8435   4.779   5.615  10.591  1.1268 -0.6382  0.0497
   88SAPS   O22 8436   4.725   5.538  10.667 -0.1163  0.0950 -0.0834
   88SAPS   C22 8437   4.895   5.575  10.502 -0.0261  0.1817  0.3909
   88SAPS   H2R 8438   4.882   5.611  10.397  0.4315 -1.0602 -0.1121
   88SAPS   H2S 8439   4.991   5.616  10.540  1.3270 -0.7115 -1.8356
   88SAPS    C3 8440   4.583   5.914  10.593 -0.1283  0.3937 -0.3752
   88SAPS    HX 8441   4.640   5.994  10.647  0.3982 -1.2931  1.6974
   88SAPS    HY 8442   4.478   5.928  10.624 -1.0030 -2.7050 -1.5877
   88SAPS   O31 8443   4.594   5.913  10.447 -0.3035 -0.1782  0.6539
   88SAPS   C31 8444   4.526   6.020  10.398 -0.0489  0.2071 -0.0438
   88SAPS   O32 8445   4.489   6.114  10.469 -0.5831 -0.2855  0.1125
   88SAPS   C32 8446   4.514   6.006  10.242  0.4855  0.1073  0.0436
   88SAPS   H2X 8447   4.453   5.915  10.224 -2.7271  1.8674  1.1911
   88SAPS   H2Y 8448   4.614   5.982  10.199  0.7158 -1.4857  1.3716
   88SAPS   C23 8449   4.903   5.416  10.486  0.0327  0.5309 -0.6817
   88SAPS   H3R 8450   4.808   5.358  10.484 -0.3599  1.1664 -2.1871
   88SAPS   H3S 8451   4.955   5.375  10.575  1.0031 -1.6625 -2.1640
   88SAPS   C24 8452   4.982   5.369  10.363  0.1561  0.6705 -0.3319
   88SAPS   H4R 8453   4.912   5.409  10.286 -0.1042  2.8775  0.9557
   88SAPS   H4S 8454   4.984   5.258  10.368  0.2843  0.6239 -1.2441
   88SAPS   C25 8455   5.118   5.423  10.351 -0.5229  0.1422 -0.0968
   88SAPS   H5R 8456   5.193   5.410  10.430  1.3473 -2.5565 -2.1339
   88SAPS   C26 8457   5.169   5.484  10.238  0.0972 -0.9343  0.4668
   88SAPS   H6R 8458   5.255   5.551  10.251  0.2379 -0.5952 -1.7862
   88SAPS   C27 8459   5.085   5.505  10.114 -0.4306 -0.4388 -0.3661
   88SAPS   H7R 8460   4.994   5.554  10.156  0.7929  1.9692 -0.3772
   88SAPS   H7S 8461   5.050   5.408  10.072 -2.5686  0.1464 -0.0551
   88SAPS   C28 8462   5.138   5.611  10.014 -0.6214  0.3462 -0.5589
   88SAPS   H8R 8463   5.128   5.715  10.048 -0.1887  0.7762 -1.7014
   88SAPS   C29 8464   5.177   5.589   9.888  0.1353 -1.0740  0.7668
   88SAPS   H9R 8465   5.205   5.670   9.819 -4.4538 -2.4980 -3.3827
   88SAPS  C210 8466   5.189   5.458   9.812 -0.3383 -0.0356 -0.4568
   88SAPS  H10R 8467   5.130   5.470   9.719  0.7609 -2.9723 -1.6830
   88SAPS  H10S 8468   5.151   5.373   9.873  0.4113 -1.7046 -2.2070
   88SAPS  C211 8469   5.334   5.438   9.777  0.2551 -0.8014 -0.2194
   88SAPS  H11R 8470   5.398   5.436   9.866 -0.8318 -0.0721  0.5943
   88SAPS  C212 8471   5.391   5.439   9.657 -0.4802  0.0292 -0.2995
   88SAPS  H12R 8472   5.500   5.427   9.662 -0.4015  0.2799 -1.1916
   88SAPS  C213 8473   5.333   5.448   9.512 -0.3306  0.6379 -1.4028
   88SAPS  H13R 8474   5.408   5.412   9.438 -1.5385 -0.4481 -2.1363
   88SAPS  H13S 8475   5.315   5.551   9.473  0.8153  1.1098 -0.7608
   88SAPS  C214 8476   5.224   5.355   9.479 -0.5190  0.0039  0.4800
   88SAPS  H14R 8477   5.143   5.351   9.554 -0.1493  0.5671  0.9208
   88SAPS  C215 8478   5.211   5.296   9.353  0.0794  0.6064  0.0757
   88SAPS  H15R 8479   5.128   5.224   9.343  0.9368 -0.4416  0.2606
   88SAPS  C216 8480   5.291   5.318   9.232 -0.2621 -0.0751 -0.6571
   88SAPS  H16R 8481   5.368   5.238   9.236  1.3848  1.4950  2.7651
   88SAPS  H16S 8482   5.340   5.417   9.238  0.0001 -0.1138 -1.8369
   88SAPS  C217 8483   5.215   5.302   9.101 -0.6101 -0.0750 -0.2992
   88SAPS  H17R 8484   5.139   5.381   9.081  1.0698  1.5471 -0.6137
   88SAPS  H17S 8485   5.168   5.202   9.101  0.1741 -0.4521 -0.3968
   88SAPS  C218 8486   5.318   5.298   8.980  0.7338 -0.5398 -0.2780
   88SAPS  H18R 8487   5.409   5.238   8.999  0.6804 -0.2910  0.8494
   88SAPS  H18S 8488   5.362   5.400   8.974  0.0600 -0.3172 -2.7599
   88SAPS  C219 8489   5.272   5.253   8.840  0.4446  0.3176 -0.1054
   88SAPS  H19R 8490   5.167   5.280   8.812  0.5544 -0.5724 -1.4276
   88SAPS  H19S 8491   5.275   5.143   8.845  1.6449  0.3846  1.4395
   88SAPS  C220 8492   5.362   5.294   8.723  0.0548 -0.2195 -0.0069
   88SAPS  H20R 8493   5.466   5.253   8.725 -0.1206 -0.8652 -2.0058
   88SAPS  H20S 8494   5.371   5.404   8.712 -2.5503  0.2230  1.4318
   88SAPS  H20T 8495   5.323   5.267   8.622  2.3140 -0.4547 -0.8740
   88SAPS   C33 8496   4.450   6.133  10.172 -0.0423 -0.2076 -0.4944
   88SAPS   H3X 8497   4.534   6.195  10.136  0.4055 -0.0220  0.8212
   88SAPS   H3Y 8498   4.388   6.202  10.234 -0.5639 -1.0312 -0.0781
   88SAPS   C34 8499   4.356   6.081  10.063 -0.9857 -0.3273 -0.4707
   88SAPS   H4X 8500   4.279   6.018  10.111 -0.6042 -0.4291  0.0173
   88SAPS   H4Y 8501   4.412   6.036   9.978 -0.5966 -0.3832 -0.1879
   88SAPS   C35 8502   4.277   6.198   9.994  0.1328  0.6373  0.1068
   88SAPS   H5X 8503   4.347   6.275   9.955  0.8306 -0.6744 -1.3164
   88SAPS   H5Y 8504   4.208   6.245  10.068  1.8712  0.7368  1.7549
   88SAPS   C36 8505   4.179   6.149   9.888  0.8768  0.0615 -0.0867
   88SAPS   H6X 8506   4.091   6.218   9.885  0.5560 -0.2213  1.8499
   88SAPS   H6Y 8507   4.135   6.054   9.925 -2.5774  1.9751  1.2290
   88SAPS   C37 8508   4.234   6.140   9.750 -0.0379 -0.4614 -0.4238
   88SAPS   H7X 8509   4.322   6.072   9.755 -1.1642 -1.8524  1.6241
   88SAPS   H7Y 8510   4.270   6.243   9.730  0.3198 -0.5299 -0.1232
   88SAPS   C38 8511   4.142   6.094   9.639  0.0155  0.1646  0.0990
   88SAPS   H8X 8512   4.038   6.135   9.647 -0.4184 -1.2240  2.6226
   88SAPS   H8Y 8513   4.138   5.983   9.643 -2.4005  0.1430 -0.7056
   88SAPS   C39 8514   4.194   6.131   9.502 -0.0964 -0.1844  0.5854
   88SAPS   H9X 8515   4.289   6.075   9.484  0.5683  1.0392  0.1992
   88SAPS   H9Y 8516   4.221   6.238   9.493  2.1567 -0.6560  1.0346
   88SAPS  C310 8517   4.081   6.113   9.401 -0.5087  0.3545  0.6987
   88SAPS  H10X 8518   4.013   6.200   9.405 -2.1361 -0.8146 -0.3279
   88SAPS  H10Y 8519   4.021   6.022   9.419  0.0946 -0.0106  0.9149
   88SAPS  C311 8520   4.131   6.094   9.258 -0.1660  0.0558  0.4317
   88SAPS  H11X 8521   4.187   6.000   9.239 -3.6005 -2.2956  1.1686
   88SAPS  H11Y 8522   4.199   6.179   9.237 -3.3313  1.7841 -4.2753
   88SAPS  C312 8523   4.020   6.102   9.153 -0.3233  0.5752 -0.5998
   88SAPS  H12X 8524   3.947   6.184   9.168 -2.4233 -0.9038 -2.1710
   88SAPS  H12Y 8525   3.966   6.005   9.155  0.9142 -0.1288 -0.1916
   88SAPS  C313 8526   4.087   6.114   9.015  0.9213  0.5449 -0.8138
   88SAPS  H13X 8527   4.159   6.031   8.998 -2.1429 -1.9149 -2.7237
   88SAPS  H13Y 8528   4.141   6.211   9.016  2.4065 -0.2596 -0.1033
   88SAPS  C314 8529   3.983   6.121   8.902  0.3629 -0.4254  0.2280
   88SAPS  H14X 8530   4.044   6.156   8.816  2.0449 -0.6696  1.2664
   88SAPS  H14Y 8531   3.898   6.191   8.921 -0.1942 -0.6189 -1.4255
   88SAPS  C315 8532   3.922   5.983   8.873 -0.5736 -0.7583  0.2920
   88SAPS  H15X 8533   3.877   5.936   8.963  1.5098  1.1692  2.5019
   88SAPS  H15Y 8534   4.011   5.921   8.850 -0.0160  0.6389 -1.6411
   88SAPS  C316 8535   3.832   5.972   8.743 -0.2108 -0.3249  0.2436
   88SAPS  H16X 8536   3.731   6.016   8.758  0.8810  3.1388 -1.3597
   88SAPS  H16Y 8537   3.817   5.863   8.738 -0.0496 -0.4207  1.5718
   88SAPS  C317 8538   3.889   6.031   8.616  0.1630 -1.1772 -0.7686
   88SAPS  H17X 8539   4.000   6.034   8.615  0.1800 -1.2022 -2.4653
   88SAPS  H17Y 8540   3.856   6.137   8.614 -0.8910 -1.4824 -0.2898
   88SAPS  C318 8541   3.847   5.962   8.486  0.0691 -0.7620 -1.0899
   88SAPS  H18X 8542   3.739   5.987   8.472  0.2105  1.2565  0.8771
   88SAPS  H18Y 8543   3.848   5.852   8.502 -0.2707 -0.6004  0.2278
   88SAPS  H18Z 8544   3.908   5.993   8.400 -0.8970  0.9820 -1.1924
   89SAPS     N 8545   5.808   0.355  10.798 -0.1326  0.3212  0.1424
   89SAPS   HN1 8546   5.875   0.425  10.760  1.0542 -0.5134  0.6408
   89SAPS   HN2 8547   5.858   0.270  10.830 -3.1358 -1.3793  0.7229
   89SAPS   HN3 8548   5.739   0.330  10.723  0.2720  0.6184 -0.3338
   89SAPS   C12 8549   5.718   0.405  10.910 -0.3369  0.0346 -0.0197
   89SAPS  H12A 8550   5.639   0.335  10.930  0.2937 -0.0655  2.5183
   89SAPS   C13 8551   5.795   0.425  11.051 -0.0085 -0.0859  0.6285
   89SAPS  O13A 8552   5.921   0.410  11.048 -1.0155  0.0225 -0.6495
   89SAPS  O13B 8553   5.726   0.470  11.150 -0.1814  0.2559 -0.0150
   89SAPS   C11 8554   5.646   0.534  10.861  0.7142  0.3541  0.6824
   89SAPS  H11A 8555   5.717   0.612  10.827  0.1349 -0.0958 -1.6793
   89SAPS  H11B 8556   5.595   0.575  10.951  0.7647  2.7781 -0.3275
   89SAPS     P 8557   5.482   0.599  10.669  0.2512  0.0593 -0.1814
   89SAPS   O13 8558   5.333   0.565  10.661 -0.4452 -0.4366 -0.2519
   89SAPS   O14 8559   5.507   0.736  10.721  0.0503  0.3607 -0.6926
   89SAPS   O12 8560   5.551   0.493  10.761  0.2947 -0.2267 -0.3890
   89SAPS   O11 8561   5.557   0.582  10.533 -0.0097  0.3049  0.0285
   89SAPS    C1 8562   5.699   0.600  10.516  0.0069  0.0499  0.2052
   89SAPS    HA 8563   5.726   0.706  10.534  3.1939 -0.6310  0.1167
   89SAPS    HB 8564   5.770   0.537  10.574 -1.2702 -0.2279  1.5024
   89SAPS    C2 8565   5.750   0.586  10.368 -0.0431  0.5761  0.3391
   89SAPS    HS 8566   5.733   0.481  10.336  0.1583  0.3936  0.8310
   89SAPS   O21 8567   5.885   0.645  10.348  0.3885  0.4954 -0.0195
   89SAPS   C21 8568   5.964   0.581  10.263 -0.5646  0.2770  0.5273
   89SAPS   O22 8569   5.945   0.472  10.215  0.0984  1.2643  0.4189
   89SAPS   C22 8570   6.090   0.661  10.236  0.0609 -0.6823  0.1372
   89SAPS   H2R 8571   6.065   0.767  10.255  0.2902 -0.6008 -0.0103
   89SAPS   H2S 8572   6.178   0.639  10.301  0.2227  1.1525  0.5895
   89SAPS    C3 8573   5.657   0.671  10.272 -0.0720 -0.0035 -0.0647
   89SAPS    HX 8574   5.669   0.777  10.302 -1.2934 -0.0383  0.6038
   89SAPS    HY 8575   5.549   0.649  10.286 -0.5403  1.3076 -1.2994
   89SAPS   O31 8576   5.700   0.664  10.134 -0.3197 -0.1642 -0.0812
   89SAPS   C31 8577   5.647   0.560  10.060  0.4790 -0.4269  0.1277
   89SAPS   O32 8578   5.563   0.482  10.101  0.2995  0.0213 -0.1542
   89SAPS   C32 8579   5.719   0.564   9.926 -0.2092 -0.2677  0.2291
   89SAPS   H2X 8580   5.678   0.484   9.861  0.4331 -0.0138 -0.4975
   89SAPS   H2Y 8581   5.825   0.542   9.950  0.0456  1.5214  0.9142
   89SAPS   C23 8582   6.111   0.647  10.081 -0.4776  0.5026  0.0811
   89SAPS   H3R 8583   6.167   0.734  10.040  3.0833 -0.5004  2.3426
   89SAPS   H3S 8584   6.024   0.641  10.013  0.2417  0.3195 -0.8500
   89SAPS   C24 8585   6.208   0.525  10.052  0.1679 -0.7811  0.1764
   89SAPS   H4R 8586   6.209   0.491   9.946  1.6856  0.6765 -0.3232
   89SAPS   H4S 8587   6.162   0.437  10.101  0.6469 -2.1381 -1.6963
   89SAPS   C25 8588   6.355   0.534  10.095  0.3834 -0.3132  0.0696
   89SAPS   H5R 8589   6.368   0.520  10.204 -2.7148  1.2279  0.7409
   89SAPS   C26 8590   6.458   0.550  10.012 -0.4800 -0.1681 -0.4216
   89SAPS   H6R 8591   6.559   0.531  10.052 -0.0353 -0.5014 -1.6254
   89SAPS   C27 8592   6.464   0.562   9.858  0.1763  0.1346 -0.0739
   89SAPS   H7R 8593   6.497   0.664   9.828 -3.4161  1.6099  0.5002
   89SAPS   H7S 8594   6.360   0.574   9.823 -0.0740  0.7990  0.8860
   89SAPS   C28 8595   6.549   0.456   9.793  0.3740 -0.2251  0.1336
   89SAPS   H8R 8596   6.566   0.367   9.855 -1.1697 -0.0394  0.8456
   89SAPS   C29 8597   6.607   0.456   9.669 -0.1885 -0.5482  0.1587
   89SAPS   H9R 8598   6.667   0.368   9.641 -0.7041 -1.0617  0.6387
   89SAPS  C210 8599   6.606   0.574   9.575  1.1419  0.5857 -0.0349
   89SAPS  H10R 8600   6.697   0.602   9.518 -0.0205 -0.9621 -2.8337
   89SAPS  H10S 8601   6.589   0.672   9.625  0.8591  0.8319 -0.5987
   89SAPS  C211 8602   6.508   0.552   9.472  0.1728 -0.6487  0.1456
   89SAPS  H11R 8603   6.530   0.467   9.407 -2.0013 -1.5083  0.4403
   89SAPS  C212 8604   6.404   0.635   9.446 -0.1484  0.2254 -0.7090
   89SAPS  H12R 8605   6.339   0.611   9.361 -0.4396 -2.2607  0.1178
   89SAPS  C213 8606   6.361   0.753   9.524 -0.4034  0.7296 -0.4748
   89SAPS  H13R 8607   6.419   0.841   9.488 -3.5419  3.1258 -0.1162
   89SAPS  H13S 8608   6.379   0.739   9.632  1.4350  0.8459 -0.7329
   89SAPS  C214 8609   6.215   0.786   9.500 -0.4824 -0.9879 -0.0257
   89SAPS  H14R 8610   6.153   0.773   9.590 -2.5789 -0.1311 -1.2467
   89SAPS  C215 8611   6.152   0.824   9.387  0.6095  0.7633 -0.2523
   89SAPS  H15R 8612   6.047   0.851   9.404  1.0121  0.9404  2.3195
   89SAPS  C216 8613   6.216   0.844   9.252 -0.5256 -1.1332 -0.3836
   89SAPS  H16R 8614   6.323   0.815   9.260 -0.2944  0.1875  3.3666
   89SAPS  H16S 8615   6.228   0.953   9.231 -0.5077 -1.1370 -0.3928
   89SAPS  C217 8616   6.146   0.770   9.133  0.2709 -0.2898 -0.1217
   89SAPS  H17R 8617   6.039   0.798   9.142  1.0251  2.1805  2.0437
   89SAPS  H17S 8618   6.172   0.662   9.135 -0.0512 -0.3752 -0.3518
   89SAPS  C218 8619   6.193   0.802   8.992  0.3276  0.6221 -0.4382
   89SAPS  H18R 8620   6.183   0.909   8.963  1.7041 -0.2414 -4.8437
   89SAPS  H18S 8621   6.120   0.747   8.927  0.6917 -2.6458  1.6886
   89SAPS  C219 8622   6.340   0.768   8.962  0.1844 -0.5894 -0.1476
   89SAPS  H19R 8623   6.362   0.664   8.993  0.1245 -1.0108 -1.4847
   89SAPS  H19S 8624   6.390   0.841   9.030 -0.8307 -1.0623  1.1377
   89SAPS  C220 8625   6.399   0.786   8.823 -0.3490 -0.0129  0.3174
   89SAPS  H20R 8626   6.363   0.707   8.754 -0.9403  1.0291 -0.6109
   89SAPS  H20S 8627   6.510   0.785   8.829 -0.4238 -0.0971  2.4709
   89SAPS  H20T 8628   6.375   0.885   8.780  0.7920  0.0972 -0.0793
   89SAPS   C33 8629   5.709   0.705   9.865  0.7185  0.5129  0.0014
   89SAPS   H3X 8630   5.778   0.777   9.914  0.3564  0.7034  0.2399
   89SAPS   H3Y 8631   5.608   0.751   9.866  1.0512  1.2543  0.2353
   89SAPS   C34 8632   5.734   0.696   9.716 -0.5108  0.4142  0.2995
   89SAPS   H4X 8633   5.668   0.632   9.654  1.7800 -2.1416  0.2737
   89SAPS   H4Y 8634   5.833   0.645   9.707 -0.1935  0.5413  2.5324
   89SAPS   C35 8635   5.708   0.826   9.645 -0.2878 -0.9456 -0.1461
   89SAPS   H5X 8636   5.763   0.901   9.706  1.2168 -2.0348 -0.1037
   89SAPS   H5Y 8637   5.601   0.854   9.648 -0.0108  0.1136  1.4702
   89SAPS   C36 8638   5.746   0.833   9.496  0.2972 -0.1186 -0.8121
   89SAPS   H6X 8639   5.849   0.791   9.488 -0.3003 -2.3426  1.5475
   89SAPS   H6Y 8640   5.739   0.930   9.443 -0.9224 -0.4880 -1.3609
   89SAPS   C37 8641   5.667   0.730   9.423  0.8725  0.0915 -0.2724
   89SAPS   H7X 8642   5.560   0.744   9.447  1.0850  0.5772  0.4126
   89SAPS   H7Y 8643   5.695   0.626   9.450 -1.4124 -0.8373 -1.2545
   89SAPS   C38 8644   5.676   0.750   9.269 -0.1849  0.7510  0.2268
   89SAPS   H8X 8645   5.733   0.839   9.236 -0.9536  0.5962 -1.6277
   89SAPS   H8Y 8646   5.576   0.768   9.226  0.1402  0.3665 -0.7040
   89SAPS   C39 8647   5.736   0.626   9.201  0.3545 -0.2542 -0.0993
   89SAPS   H9X 8648   5.674   0.539   9.233 -0.8267  0.1476 -1.1873
   89SAPS   H9Y 8649   5.844   0.617   9.224  0.2266 -0.4555  0.4397
   89SAPS  C310 8650   5.710   0.643   9.049 -0.1523  0.5049 -0.0324
   89SAPS  H10X 8651   5.758   0.555   9.003 -2.6698 -1.0500  0.1394
   89SAPS  H10Y 8652   5.735   0.744   9.009  0.7927  0.0790 -0.5418
   89SAPS  C311 8653   5.562   0.610   9.011  0.3010 -0.4616 -0.0162
   89SAPS  H11X 8654   5.490   0.676   9.064 -0.1163  1.2241 -2.4730
   89SAPS  H11Y 8655   5.545   0.510   9.055  0.8739 -1.4236 -1.8639
   89SAPS  C312 8656   5.541   0.636   8.862 -0.1180 -0.0486  0.0981
   89SAPS  H12X 8657   5.609   0.577   8.796 -1.0176 -0.8707 -0.1311
   89SAPS  H12Y 8658   5.560   0.743   8.839 -1.1835  0.1330  0.0182
   89SAPS  C313 8659   5.402   0.593   8.819 -0.7535  0.0117 -0.3445
   89SAPS  H13X 8660   5.403   0.620   8.711  1.7699  2.0726  0.1170
   89SAPS  H13Y 8661   5.333   0.652   8.884 -0.2745  0.8283 -0.5623
   89SAPS  C314 8662   5.379   0.441   8.822  0.1963  0.2465  0.3992
   89SAPS  H14X 8663   5.410   0.410   8.924  1.4508 -2.0067 -0.6033
   89SAPS  H14Y 8664   5.437   0.387   8.744 -3.2648 -0.0300 -2.2571
   89SAPS  C315 8665   5.227   0.393   8.799  0.5852 -0.1514 -0.5051
   89SAPS  H15X 8666   5.161   0.455   8.863  0.1248 -1.3591  0.2194
   89SAPS  H15Y 8667   5.222   0.287   8.831 -0.7383  0.2499  0.7079
   89SAPS  C316 8668   5.175   0.401   8.656  0.0972 -0.4997  0.1964
   89SAPS  H16X 8669   5.248   0.340   8.597  1.3091 -0.0578  1.2014
   89SAPS  H16Y 8670   5.169   0.510   8.632 -0.6312  0.0877  2.7846
   89SAPS  C317 8671   5.033   0.338   8.651 -0.7484 -0.2020 -0.2924
   89SAPS  H17X 8672   4.980   0.377   8.740 -0.6572  4.1417 -1.8891
   89SAPS  H17Y 8673   5.038   0.228   8.667 -2.5214 -0.2450  0.2432
   89SAPS  C318 8674   4.949   0.354   8.524  0.0258 -1.1128  0.0769
   89SAPS  H18X 8675   4.997   0.287   8.450 -0.6242  0.7189 -2.1278
   89SAPS  H18Y 8676   4.957   0.455   8.477 -1.2057 -0.2733  1.5634
   89SAPS  H18Z 8677   4.843   0.326   8.540 -0.1855 -0.9239 -0.9102
   90SAPS     N 8678   6.424   0.539  10.835 -0.6405  0.6582 -0.0386
   90SAPS   HN1 8679   6.393   0.481  10.754 -1.5991  1.8553 -0.5590
   90SAPS   HN2 8680   6.344   0.527  10.902  0.6404 -3.3864  1.0846
   90SAPS   HN3 8681   6.430   0.638  10.805 -0.5336  0.8241  0.5167
   90SAPS   C12 8682   6.549   0.486  10.902  0.8855 -0.3393  0.3466
   90SAPS  H12A 8683   6.620   0.514  10.825 -0.3033  1.3885 -0.1927
   90SAPS   C13 8684   6.586   0.564  11.034  0.1631  0.0426  0.1582
   90SAPS  O13A 8685   6.528   0.665  11.070  0.2300  0.8571  0.5237
   90SAPS  O13B 8686   6.675   0.502  11.103 -0.3739  0.0704 -0.0442
   90SAPS   C11 8687   6.545   0.330  10.911  0.0393  0.8944  0.7130
   90SAPS  H11A 8688   6.443   0.309  10.949 -0.2574  1.3220  0.1627
   90SAPS  H11B 8689   6.626   0.301  10.981  2.1830  1.5021 -1.3730
   90SAPS     P 8690   6.446   0.227  10.685  0.0501  0.0523  0.1875
   90SAPS   O13 8691   6.391   0.103  10.745 -0.0074  0.5988 -0.5569
   90SAPS   O14 8692   6.351   0.342  10.655  0.6342 -0.6985  0.2167
   90SAPS   O12 8693   6.565   0.275  10.782  0.6444  0.6329 -0.0802
   90SAPS   O11 8694   6.535   0.197  10.558 -0.0511  0.4382 -0.3439
   90SAPS    C1 8695   6.643   0.283  10.511 -0.3771  0.9094  0.4998
   90SAPS    HA 8696   6.695   0.344  10.588  1.4773  0.9605 -0.7277
   90SAPS    HB 8697   6.720   0.219  10.463  0.6149  3.0978 -0.9926
   90SAPS    C2 8698   6.601   0.384  10.397  0.2526  0.7615  0.3162
   90SAPS    HS 8699   6.501   0.432  10.409  0.4968  1.6495 -0.9726
   90SAPS   O21 8700   6.615   0.320  10.269 -0.0812 -0.1858  0.0186
   90SAPS   C21 8701   6.516   0.245  10.228  0.4331  0.4609 -0.9018
   90SAPS   O22 8702   6.410   0.240  10.287 -0.4148 -0.3479  0.2776
   90SAPS   C22 8703   6.553   0.164  10.112  0.0184 -0.0879  0.2965
   90SAPS   H2R 8704   6.622   0.208  10.036 -0.1418 -0.3056  0.0211
   90SAPS   H2S 8705   6.612   0.074  10.140  2.3977  0.6130 -2.0317
   90SAPS    C3 8706   6.695   0.507  10.405 -0.1982  0.3411 -0.2540
   90SAPS    HX 8707   6.801   0.486  10.382 -0.4243  2.1195 -3.6356
   90SAPS    HY 8708   6.694   0.531  10.514 -0.3599 -1.1700  0.0970
   90SAPS   O31 8709   6.643   0.609  10.324  0.0876 -0.5402 -0.2989
   90SAPS   C31 8710   6.582   0.713  10.377 -0.0741  0.4083  0.3003
   90SAPS   O32 8711   6.532   0.723  10.489 -0.1520 -0.3735  0.1377
   90SAPS   C32 8712   6.566   0.815  10.270  0.4432 -0.6030 -0.1846
   90SAPS   H2X 8713   6.573   0.761  10.173  0.2832  0.7474 -0.9703
   90SAPS   H2Y 8714   6.662   0.872  10.276 -0.5065  1.0287 -0.0201
   90SAPS   C23 8715   6.426   0.126  10.029 -0.2027 -0.3014  0.5908
   90SAPS   H3R 8716   6.378   0.211   9.976  1.6746  0.1934 -0.3643
   90SAPS   H3S 8717   6.345   0.092  10.098 -0.1703 -0.3102  0.6253
   90SAPS   C24 8718   6.448   0.018   9.919  0.2675  0.0784  0.2028
   90SAPS   H4R 8719   6.341   0.007   9.890  0.3710  0.1719 -0.2228
   90SAPS   H4S 8720   6.472  -0.086   9.950  0.0120  0.3892  1.5064
   90SAPS   C25 8721   6.529   0.047   9.791  0.0245  0.6496 -0.5411
   90SAPS   H5R 8722   6.627   0.084   9.824  0.7440 -1.7445  0.2265
   90SAPS   C26 8723   6.490   0.021   9.658 -0.5737 -0.4246 -0.7410
   90SAPS   H6R 8724   6.564   0.045   9.580  1.0269  0.2602  0.9049
   90SAPS   C27 8725   6.364  -0.037   9.610  0.4690 -0.5436 -0.7418
   90SAPS   H7R 8726   6.293   0.048   9.620 -1.0716 -1.3822 -3.6192
   90SAPS   H7S 8727   6.335  -0.126   9.669  1.5090 -1.4415 -1.5417
   90SAPS   C28 8728   6.363  -0.080   9.467 -0.2867 -0.6527 -0.0527
   90SAPS   H8R 8729   6.428  -0.169   9.464  0.4836 -0.1261  0.5176
   90SAPS   C29 8730   6.285  -0.044   9.361  0.3080  0.4140  0.4174
   90SAPS   H9R 8731   6.297  -0.091   9.263  0.5269  0.2378  0.5253
   90SAPS  C210 8732   6.177   0.065   9.359  0.5212 -0.2846 -0.8354
   90SAPS  H10R 8733   6.182   0.127   9.267 -1.3192 -1.4776 -1.8074
   90SAPS  H10S 8734   6.189   0.133   9.445 -2.7322 -0.1726 -0.3708
   90SAPS  C211 8735   6.039  -0.007   9.361 -0.7226 -0.2662 -0.6883
   90SAPS  H11R 8736   6.003  -0.044   9.458 -0.8303 -2.9004 -1.6495
   90SAPS  C212 8737   5.965  -0.022   9.250 -0.3857 -0.2784  0.4986
   90SAPS  H12R 8738   5.869  -0.074   9.261 -0.5792  0.1274  0.7283
   90SAPS  C213 8739   5.985   0.032   9.107  0.7341  0.1909  0.9714
   90SAPS  H13R 8740   6.089   0.020   9.068  0.1445  0.1577 -0.6540
   90SAPS  H13S 8741   5.979   0.143   9.114  0.5577  0.3524 -1.1702
   90SAPS  C214 8742   5.884  -0.013   9.002 -0.0867  0.0583 -0.3374
   90SAPS  H14R 8743   5.788   0.039   9.015  0.2673  1.1370 -1.6853
   90SAPS  C215 8744   5.891  -0.115   8.909 -0.3804 -0.1247  0.0894
   90SAPS  H15R 8745   5.804  -0.147   8.850 -2.6970  0.4022  2.9896
   90SAPS  C216 8746   6.011  -0.201   8.893 -0.5176 -0.2188 -0.6778
   90SAPS  H16R 8747   5.989  -0.305   8.925 -0.1417  0.1215  0.7576
   90SAPS  H16S 8748   6.100  -0.168   8.952 -0.5735 -0.8672 -0.2190
   90SAPS  C217 8749   6.063  -0.198   8.747 -1.1005  0.0839  0.2926
   90SAPS  H17R 8750   6.011  -0.267   8.678  1.8900  0.1325 -2.2341
   90SAPS  H17S 8751   6.166  -0.239   8.745 -1.2717 -0.3235 -1.1309
   90SAPS  C218 8752   6.081  -0.056   8.689 -0.0265 -0.3372  0.0112
   90SAPS  H18R 8753   6.122   0.011   8.767 -0.5531  0.1272 -0.1034
   90SAPS  H18S 8754   5.979  -0.027   8.655 -0.1923 -3.3696 -2.4776
   90SAPS  C219 8755   6.167  -0.044   8.562  1.3081  0.4111  0.3806
   90SAPS  H19R 8756   6.127   0.033   8.492 -0.4541  0.1001  1.0002
   90SAPS  H19S 8757   6.159  -0.142   8.509 -0.8965  0.4610  0.5560
   90SAPS  C220 8758   6.311  -0.000   8.584 -1.0401 -0.8288  0.8112
   90SAPS  H20R 8759   6.332   0.109   8.587 -0.2433 -0.8770 -1.3864
   90SAPS  H20S 8760   6.369  -0.029   8.494 -0.5080  0.2940  0.7707
   90SAPS  H20T 8761   6.360  -0.043   8.675 -1.4773 -0.5146  1.2014
   90SAPS   C33 8762   6.463   0.919  10.290  0.9470 -0.1217  0.1630
   90SAPS   H3X 8763   6.483   0.959  10.391  0.5741  2.4053 -0.6795
   90SAPS   H3Y 8764   6.360   0.878  10.281  1.2773 -0.7156 -1.4814
   90SAPS   C34 8765   6.471   1.032  10.190  0.0477 -0.0501  0.3602
   90SAPS   H4X 8766   6.575   1.071  10.190 -0.1136  0.4385  1.7657
   90SAPS   H4Y 8767   6.410   1.119  10.222  0.0829  0.1752 -0.1736
   90SAPS   C35 8768   6.441   0.986  10.051  0.6965 -0.5502  0.0667
   90SAPS   H5X 8769   6.330   0.981  10.045  0.7486 -0.1100 -1.7558
   90SAPS   H5Y 8770   6.477   0.885  10.024 -0.0663 -1.3964  2.0592
   90SAPS   C36 8771   6.471   1.077   9.932 -0.0087 -0.7948  0.0280
   90SAPS   H6X 8772   6.574   1.115   9.950  0.2189 -0.2473 -2.2157
   90SAPS   H6Y 8773   6.404   1.165   9.944 -0.0346 -0.9717  1.2853
   90SAPS   C37 8774   6.452   1.001   9.800 -0.4150  0.5471  0.2771
   90SAPS   H7X 8775   6.361   0.938   9.803  1.2512 -2.0255  0.0350
   90SAPS   H7Y 8776   6.534   0.926   9.793 -0.3993  0.5675  0.2424
   90SAPS   C38 8777   6.461   1.084   9.664 -0.1165  0.5545 -0.0010
   90SAPS   H8X 8778   6.406   1.179   9.682 -1.6878 -0.5074  1.1350
   90SAPS   H8Y 8779   6.403   1.028   9.587  1.1899 -0.4593 -0.3000
   90SAPS   C39 8780   6.608   1.099   9.619 -0.0422  0.0552 -0.3442
   90SAPS   H9X 8781   6.648   0.996   9.605 -0.4372 -0.2297  0.5740
   90SAPS   H9Y 8782   6.668   1.139   9.703 -1.0333  0.1958  0.3109
   90SAPS  C310 8783   6.616   1.177   9.487  0.7387  0.3430  0.4033
   90SAPS  H10X 8784   6.722   1.161   9.457  1.3746 -0.8450  3.0106
   90SAPS  H10Y 8785   6.598   1.282   9.518 -0.7421  0.1983  0.0961
   90SAPS  C311 8786   6.529   1.118   9.375 -0.5850 -1.0444 -0.1965
   90SAPS  H11X 8787   6.421   1.143   9.384  0.0542  1.5793  0.9971
   90SAPS  H11Y 8788   6.537   1.008   9.389  2.8902 -1.0112 -1.0831
   90SAPS  C312 8789   6.574   1.158   9.236 -0.0702  0.6433 -0.3697
   90SAPS  H12X 8790   6.685   1.150   9.240 -0.1747 -0.2132  2.6422
   90SAPS  H12Y 8791   6.541   1.264   9.224  0.6010  0.6662 -2.4089
   90SAPS  C313 8792   6.520   1.065   9.131 -0.3344 -0.2727 -0.0299
   90SAPS  H13X 8793   6.409   1.064   9.118 -0.5528 -1.3315  1.7169
   90SAPS  H13Y 8794   6.553   0.962   9.155 -1.7684 -0.6247  0.5149
   90SAPS  C314 8795   6.568   1.108   8.990 -0.0312 -0.4840  0.1759
   90SAPS  H14X 8796   6.535   1.212   8.971 -0.2005 -0.7281 -0.8992
   90SAPS  H14Y 8797   6.527   1.051   8.904 -0.7016 -0.5071  0.5067
   90SAPS  C315 8798   6.717   1.102   8.979  0.7075  0.2373  0.3548
   90SAPS  H15X 8799   6.738   0.994   8.963 -1.4721  0.0595 -1.9520
   90SAPS  H15Y 8800   6.781   1.133   9.064  1.7941 -1.7542  0.3360
   90SAPS  C316 8801   6.765   1.174   8.849  0.0113 -0.4640 -0.0501
   90SAPS  H16X 8802   6.736   1.282   8.845 -0.6119 -0.6423 -0.6602
   90SAPS  H16Y 8803   6.711   1.123   8.766  2.4374 -0.3628 -1.8024
   90SAPS  C317 8804   6.919   1.185   8.823 -0.9444  0.4910 -0.6473
   90SAPS  H17X 8805   6.958   1.267   8.887  1.5182 -0.7397 -0.4393
   90SAPS  H17Y 8806   6.930   1.216   8.717  0.1297 -1.5320 -1.1823
   90SAPS  C318 8807   6.995   1.058   8.847  0.0066  0.0289 -0.1109
   90SAPS  H18X 8808   6.940   0.978   8.793  0.2737 -0.8979  0.9363
   90SAPS  H18Y 8809   6.994   1.032   8.955  1.2814  1.2914  0.2222
   90SAPS  H18Z 8810   7.098   1.055   8.806  0.4982 -2.6556  1.0862
   91SAPS     N 8811   2.121   5.844   5.753 -0.0759 -0.6152  0.1356
   91SAPS   HN1 8812   2.182   5.766   5.787 -0.3056 -1.7964 -1.9984
   91SAPS   HN2 8813   2.043   5.847   5.822 -1.1251 -0.6211 -1.0272
   91SAPS   HN3 8814   2.081   5.799   5.668  2.1541 -1.0877 -0.7394
   91SAPS   C12 8815   2.203   5.959   5.721  0.3426  0.0011  0.1936
   91SAPS  H12A 8816   2.282   5.946   5.650  0.4364  1.7908 -0.0674
   91SAPS   C13 8817   2.101   6.070   5.659 -0.1418  0.3310 -0.5476
   91SAPS  O13A 8818   1.982   6.042   5.640 -0.0368  0.2411 -0.1801
   91SAPS  O13B 8819   2.151   6.172   5.599 -0.1568 -0.0926  0.6727
   91SAPS   C11 8820   2.268   6.019   5.854  0.6023 -0.2144  0.3792
   91SAPS  H11A 8821   2.320   6.111   5.821 -0.3832 -0.0036 -0.6166
   91SAPS  H11B 8822   2.346   5.950   5.893  0.9063 -0.2409 -0.2717
   91SAPS     P 8823   2.141   5.955   6.073  0.1096 -0.4328  0.1689
   91SAPS   O13 8824   2.002   5.974   6.122  0.8922  0.5536 -0.2107
   91SAPS   O14 8825   2.195   5.818   6.066  0.8099 -0.2520  0.3416
   91SAPS   O12 8826   2.169   6.054   5.954  0.0249  0.1560 -0.3595
   91SAPS   O11 8827   2.231   6.015   6.191 -0.0501 -0.4246 -0.0661
   91SAPS    C1 8828   2.360   6.072   6.168 -0.4078  0.6097 -0.5548
   91SAPS    HA 8829   2.436   6.024   6.234 -0.2003  2.3565  0.5441
   91SAPS    HB 8830   2.408   6.070   6.068  1.3105 -1.8130  0.2172
   91SAPS    C2 8831   2.368   6.222   6.215  0.2725  0.5306  0.0764
   91SAPS    HS 8832   2.470   6.255   6.185 -0.8047  1.6648 -2.6299
   91SAPS   O21 8833   2.349   6.209   6.363  0.5212  0.1482 -0.0716
   91SAPS   C21 8834   2.447   6.271   6.441  0.0521  0.1536  0.2131
   91SAPS   O22 8835   2.541   6.331   6.395 -0.0426 -0.2043  0.1925
   91SAPS   C22 8836   2.424   6.248   6.589  0.1687  0.4200  0.1749
   91SAPS   H2R 8837   2.320   6.275   6.618 -0.0042  0.6323 -0.6035
   91SAPS   H2S 8838   2.423   6.140   6.616 -0.1681  0.5288  0.6105
   91SAPS    C3 8839   2.267   6.310   6.138  0.1564 -0.2394  0.0633
   91SAPS    HX 8840   2.168   6.262   6.154 -0.3634  1.4426  2.3511
   91SAPS    HY 8841   2.293   6.292   6.031 -0.3071 -0.4539 -0.0178
   91SAPS   O31 8842   2.277   6.444   6.185  0.1138 -0.2773  0.2366
   91SAPS   C31 8843   2.279   6.544   6.100  0.0182 -0.0796 -0.2162
   91SAPS   O32 8844   2.278   6.538   5.980  0.0577 -0.9955 -0.5341
   91SAPS   C32 8845   2.307   6.677   6.175 -0.4005 -0.1272  0.1963
   91SAPS   H2X 8846   2.214   6.733   6.196 -0.3495  0.2315 -0.5223
   91SAPS   H2Y 8847   2.371   6.739   6.109  0.2679 -1.6768 -0.6550
   91SAPS   C23 8848   2.538   6.297   6.686 -0.1080 -0.1438  0.2779
   91SAPS   H3R 8849   2.583   6.394   6.657 -1.0775  0.4703  0.7872
   91SAPS   H3S 8850   2.619   6.221   6.673  0.1884 -0.0635  1.5747
   91SAPS   C24 8851   2.495   6.309   6.832 -0.6233 -0.4318 -0.7484
   91SAPS   H4R 8852   2.586   6.296   6.893  0.3102 -1.2598 -2.2436
   91SAPS   H4S 8853   2.422   6.228   6.853  0.5743 -0.9213  1.7974
   91SAPS   C25 8854   2.421   6.439   6.871 -0.2271 -0.4058  0.3564
   91SAPS   H5R 8855   2.359   6.479   6.790 -0.4386 -1.3290  0.0572
   91SAPS   C26 8856   2.436   6.509   6.986  0.3572  1.3774  0.1132
   91SAPS   H6R 8857   2.369   6.596   6.988  0.8697  1.8318 -1.2426
   91SAPS   C27 8858   2.525   6.472   7.105 -0.1709  0.1489  0.2746
   91SAPS   H7R 8859   2.628   6.513   7.102 -0.0415 -0.1292  0.7254
   91SAPS   H7S 8860   2.529   6.361   7.112  1.3279  0.0621 -1.2504
   91SAPS   C28 8861   2.459   6.521   7.233 -0.4578 -0.1742  0.2296
   91SAPS   H8R 8862   2.350   6.536   7.227 -0.7458 -2.1564  0.0312
   91SAPS   C29 8863   2.518   6.529   7.353  0.0963 -0.2397 -0.3841
   91SAPS   H9R 8864   2.460   6.554   7.444  2.7665 -1.0339  1.6687
   91SAPS  C210 8865   2.664   6.504   7.390  0.7134  0.2109 -0.0037
   91SAPS  H10R 8866   2.715   6.596   7.425 -1.6726  1.8673 -0.6722
   91SAPS  H10S 8867   2.721   6.476   7.298  1.2324  3.4066 -0.7647
   91SAPS  C211 8868   2.670   6.400   7.497  0.2107  0.8325 -0.8481
   91SAPS  H11R 8869   2.678   6.295   7.466  0.4757  0.7877 -0.6372
   91SAPS  C212 8870   2.658   6.423   7.630 -0.7248 -0.8028  0.1718
   91SAPS  H12R 8871   2.653   6.343   7.705  1.2015  0.4167  1.6896
   91SAPS  C213 8872   2.651   6.560   7.695  0.3107 -0.1632  0.1332
   91SAPS  H13R 8873   2.547   6.570   7.732  0.9801 -2.9267  3.2259
   91SAPS  H13S 8874   2.670   6.641   7.622 -0.0553 -0.0883  0.1169
   91SAPS  C214 8875   2.754   6.562   7.802  0.5869 -0.5757 -0.3494
   91SAPS  H14R 8876   2.856   6.529   7.777  1.0487 -0.1961  0.9591
   91SAPS  C215 8877   2.737   6.600   7.924  0.0930  0.8252  0.3563
   91SAPS  H15R 8878   2.826   6.591   7.987  0.2858 -0.0494 -0.0280
   91SAPS  C216 8879   2.606   6.636   7.988  0.6527  0.6412  0.0928
   91SAPS  H16R 8880   2.538   6.699   7.927  1.1732  1.2709  0.1462
   91SAPS  H16S 8881   2.635   6.698   8.075  0.4082  2.8022 -1.2728
   91SAPS  C217 8882   2.520   6.510   8.024 -0.4772 -0.3881  0.3964
   91SAPS  H17R 8883   2.584   6.445   8.088  1.5056  0.2352 -0.8580
   91SAPS  H17S 8884   2.481   6.465   7.931 -1.4411  0.3872  0.4105
   91SAPS  C218 8885   2.392   6.532   8.098  1.3043 -0.2779 -0.0016
   91SAPS  H18R 8886   2.351   6.439   8.143 -0.6692  0.1425 -0.8004
   91SAPS  H18S 8887   2.308   6.577   8.039 -1.0904 -1.7156  2.0837
   91SAPS  C219 8888   2.398   6.632   8.216  0.4703 -0.0322  0.5306
   91SAPS  H19R 8889   2.443   6.731   8.194 -1.7525  1.1193  0.8295
   91SAPS  H19S 8890   2.460   6.583   8.293  0.2540 -1.7197 -0.3193
   91SAPS  C220 8891   2.255   6.669   8.278 -0.1913 -0.3614  0.2612
   91SAPS  H20R 8892   2.179   6.663   8.197 -1.5555 -3.0159  1.5919
   91SAPS  H20S 8893   2.268   6.774   8.312  0.2699  0.6513 -2.7716
   91SAPS  H20T 8894   2.224   6.601   8.360  0.6568 -0.2056  0.7165
   91SAPS   C33 8895   2.371   6.659   6.310  0.2557  0.1042 -0.2071
   91SAPS   H3X 8896   2.465   6.600   6.300  0.1104 -0.1172 -0.2675
   91SAPS   H3Y 8897   2.309   6.610   6.388  0.6463  0.8191  0.5737
   91SAPS   C34 8898   2.429   6.793   6.367  0.3405  0.2459 -0.8668
   91SAPS   H4X 8899   2.341   6.856   6.394  0.7761  0.0794  1.0943
   91SAPS   H4Y 8900   2.481   6.846   6.284 -1.1107 -1.2650 -2.8278
   91SAPS   C35 8901   2.515   6.761   6.496 -0.3369 -0.4994 -0.0352
   91SAPS   H5X 8902   2.621   6.774   6.467 -0.2266  0.2536  0.6593
   91SAPS   H5Y 8903   2.503   6.654   6.522 -1.1450 -1.3582 -3.4763
   91SAPS   C36 8904   2.483   6.854   6.606 -0.2221 -0.6243 -0.2763
   91SAPS   H6X 8905   2.375   6.837   6.629  0.1826 -2.1240  0.6279
   91SAPS   H6Y 8906   2.504   6.954   6.564  0.2165 -0.5026  0.2336
   91SAPS   C37 8907   2.565   6.820   6.736  0.3069  0.1169  0.4362
   91SAPS   H7X 8908   2.669   6.857   6.721  0.7448 -0.8100  1.0869
   91SAPS   H7Y 8909   2.567   6.713   6.764 -2.8080  0.4576  2.4325
   91SAPS   C38 8910   2.510   6.896   6.860  0.2099  0.0587  0.1073
   91SAPS   H8X 8911   2.405   6.869   6.884 -0.3571  0.6256 -1.5822
   91SAPS   H8Y 8912   2.519   7.003   6.832 -0.9739 -0.4086 -2.3660
   91SAPS   C39 8913   2.609   6.873   6.978  0.3979 -0.2279  0.7746
   91SAPS   H9X 8914   2.707   6.923   6.964  1.1991 -1.7188  0.9298
   91SAPS   H9Y 8915   2.625   6.763   6.976  1.6301 -0.0546 -0.5307
   91SAPS  C310 8916   2.555   6.919   7.117  1.0290 -0.7210 -0.4831
   91SAPS  H10X 8917   2.472   6.853   7.150 -0.7352  1.7689  0.3528
   91SAPS  H10Y 8918   2.520   7.024   7.115 -0.3226 -1.1546 -0.7916
   91SAPS  C311 8919   2.668   6.894   7.218 -0.4536  0.6105 -0.7592
   91SAPS  H11X 8920   2.761   6.949   7.192 -0.1615 -0.8127 -3.0149
   91SAPS  H11Y 8921   2.695   6.786   7.226 -1.1613  0.5763  2.2042
   91SAPS  C312 8922   2.628   6.945   7.358  0.4812  0.1389 -0.4024
   91SAPS  H12X 8923   2.554   6.880   7.409  1.8499 -0.9205  0.2971
   91SAPS  H12Y 8924   2.589   7.048   7.341 -0.5084  0.1130  1.4810
   91SAPS  C313 8925   2.743   6.974   7.463 -0.7196 -0.3917 -0.0595
   91SAPS  H13X 8926   2.808   7.058   7.430 -2.2049  0.2231 -1.5448
   91SAPS  H13Y 8927   2.806   6.883   7.459 -0.1024 -0.1735  2.7662
   91SAPS  C314 8928   2.693   7.007   7.603 -0.0544 -0.2118 -0.1212
   91SAPS  H14X 8929   2.617   6.927   7.616 -0.5092 -0.2631 -2.5942
   91SAPS  H14Y 8930   2.642   7.105   7.600 -0.7570 -0.5976 -1.3458
   91SAPS  C315 8931   2.804   7.000   7.710 -0.3675 -0.2740  0.6191
   91SAPS  H15X 8932   2.888   7.060   7.670 -0.7784  0.7412  1.2493
   91SAPS  H15Y 8933   2.830   6.897   7.744 -0.5512 -0.2659  0.7824
   91SAPS  C316 8934   2.743   7.061   7.838 -0.1609 -0.3679 -0.1311
   91SAPS  H16X 8935   2.642   7.016   7.840 -0.8488  1.0518 -0.9872
   91SAPS  H16Y 8936   2.732   7.170   7.819  0.3384 -0.6002 -1.9209
   91SAPS  C317 8937   2.824   7.039   7.959 -0.0275  0.0645 -0.1884
   91SAPS  H17X 8938   2.928   7.072   7.936 -0.2988 -1.8476 -5.2484
   91SAPS  H17Y 8939   2.824   6.934   7.996 -0.9946  0.6899  1.7369
   91SAPS  C318 8940   2.769   7.125   8.074  0.5090 -0.8668  0.0417
   91SAPS  H18X 8941   2.813   7.112   8.176  0.5338 -1.5699 -0.0524
   91SAPS  H18Y 8942   2.662   7.097   8.084  0.1648  0.0445 -0.9190
   91SAPS  H18Z 8943   2.786   7.231   8.043  2.1574 -1.8195 -2.6955
   92SAPS     N 8944   3.081   4.097   6.492  0.2106 -0.6305  0.7836
   92SAPS   HN1 8945   2.991   4.102   6.544 -0.1882  0.2496  0.0361
   92SAPS   HN2 8946   3.162   4.069   6.551  0.6268 -1.1984 -0.0348
   92SAPS   HN3 8947   3.114   4.193   6.468 -0.7460 -0.2235  1.0464
   92SAPS   C12 8948   3.078   4.017   6.367 -0.5574  0.4046 -0.4706
   92SAPS  H12A 8949   3.000   4.054   6.302  0.1299 -0.7092 -1.9827
   92SAPS   C13 8950   3.209   4.020   6.283 -0.1047  0.6545  0.3459
   92SAPS  O13A 8951   3.314   4.051   6.343 -0.7046 -0.0551 -0.4245
   92SAPS  O13B 8952   3.213   3.954   6.175 -0.2792  0.1755  0.5985
   92SAPS   C11 8953   3.040   3.864   6.407  0.7788 -0.1801 -0.6089
   92SAPS  H11A 8954   3.125   3.829   6.469 -0.5952  1.2022  2.2268
   92SAPS  H11B 8955   3.027   3.801   6.316 -0.7438 -2.3276  1.0090
   92SAPS     P 8956   2.891   3.749   6.585 -0.3272  0.2599 -0.0407
   92SAPS   O13 8957   2.845   3.630   6.514  0.0236  0.4041  0.1725
   92SAPS   O14 8958   3.004   3.730   6.676 -0.6039  0.2689  1.0941
   92SAPS   O12 8959   2.919   3.863   6.484 -0.4962  0.6767  0.4423
   92SAPS   O11 8960   2.766   3.792   6.674 -0.4089 -0.1397  0.2660
   92SAPS    C1 8961   2.659   3.866   6.618  0.2215 -0.2969  0.0443
   92SAPS    HA 8962   2.647   3.834   6.512  0.8379 -1.7794  0.3991
   92SAPS    HB 8963   2.562   3.845   6.668  0.0125  2.1085  0.7931
   92SAPS    C2 8964   2.683   4.023   6.622 -0.7843  0.1737 -0.1810
   92SAPS    HS 8965   2.772   4.039   6.558  1.0890  0.2274  2.2804
   92SAPS   O21 8966   2.723   4.042   6.762  0.4322  0.2274  0.8765
   92SAPS   C21 8967   2.851   4.089   6.778  0.2030 -0.0661  0.6690
   92SAPS   O22 8968   2.914   4.139   6.692  0.0207  0.1609  0.0673
   92SAPS   C22 8969   2.900   4.072   6.919  0.3077  0.7342  0.3592
   92SAPS   H2R 8970   2.818   4.055   6.992  0.3661 -2.7940 -0.2202
   92SAPS   H2S 8971   2.951   3.973   6.918  1.2091  1.1082  2.9027
   92SAPS    C3 8972   2.558   4.103   6.563  0.9024  0.0999 -0.3709
   92SAPS    HX 8973   2.473   4.071   6.626  0.5370  2.7529  0.6261
   92SAPS    HY 8974   2.541   4.062   6.461 -1.0505 -0.2986  0.0694
   92SAPS   O31 8975   2.593   4.246   6.561 -0.0762  0.2653 -0.2579
   92SAPS   C31 8976   2.519   4.325   6.633 -0.6240 -0.9663  0.5373
   92SAPS   O32 8977   2.416   4.298   6.690 -0.4953  0.0963 -0.8027
   92SAPS   C32 8978   2.583   4.463   6.629 -0.1756 -0.1212  0.1346
   92SAPS   H2X 8979   2.553   4.507   6.531  2.1511  0.1115 -0.5270
   92SAPS   H2Y 8980   2.694   4.464   6.637 -0.2476 -0.4350  1.4008
   92SAPS   C23 8981   2.997   4.180   6.960 -0.3929  0.3344 -0.2420
   92SAPS   H3R 8982   3.075   4.188   6.881 -0.7397  1.2825 -0.5012
   92SAPS   H3S 8983   3.052   4.149   7.051 -0.4408 -1.5230 -0.8115
   92SAPS   C24 8984   2.922   4.319   6.984 -0.5397  0.7241 -0.0865
   92SAPS   H4R 8985   2.844   4.307   7.062 -0.8937  2.1872 -0.1897
   92SAPS   H4S 8986   2.886   4.338   6.881  2.9772 -0.5648 -1.7114
   92SAPS   C25 8987   3.021   4.428   7.020 -0.2863 -0.1968  0.1179
   92SAPS   H5R 8988   3.052   4.489   6.934 -4.4624 -0.0278 -1.4798
   92SAPS   C26 8989   3.084   4.447   7.139  0.5758 -0.0112  0.2543
   92SAPS   H6R 8990   3.161   4.526   7.140 -0.1491  0.8515 -2.7424
   92SAPS   C27 8991   3.080   4.363   7.264  0.3979  0.1286 -0.3582
   92SAPS   H7R 8992   2.985   4.306   7.263 -0.2192  0.9261  2.4004
   92SAPS   H7S 8993   3.060   4.423   7.355 -0.1426 -1.2823  0.4967
   92SAPS   C28 8994   3.195   4.271   7.282  0.0343 -0.9086  0.0943
   92SAPS   H8R 8995   3.255   4.259   7.191 -0.0363 -1.3571  0.1066
   92SAPS   C29 8996   3.202   4.181   7.385 -0.6667 -0.8613  0.1494
   92SAPS   H9R 8997   3.280   4.104   7.382  0.6594  0.2600  2.4470
   92SAPS  C210 8998   3.117   4.171   7.515 -0.1296 -0.4707  0.4290
   92SAPS  H10R 8999   3.038   4.096   7.495  1.5929 -2.0859 -0.6998
   92SAPS  H10S 9000   3.059   4.263   7.534 -0.5084 -0.0533 -2.2738
   92SAPS  C211 9001   3.201   4.128   7.631 -0.3152 -0.2324 -0.4441
   92SAPS  H11R 9002   3.219   4.020   7.639  0.3505 -0.0624  0.5594
   92SAPS  C212 9003   3.252   4.216   7.722 -0.3055  0.2829  0.3314
   92SAPS  H12R 9004   3.321   4.188   7.804  0.9019 -1.1214 -1.1026
   92SAPS  C213 9005   3.238   4.363   7.708  0.0089 -0.3289 -0.1897
   92SAPS  H13R 9006   3.268   4.401   7.808  1.7663 -3.2203  0.4870
   92SAPS  H13S 9007   3.130   4.386   7.694  0.5891  1.0625 -3.1460
   92SAPS  C214 9008   3.313   4.431   7.594  0.0221  0.1962  0.2581
   92SAPS  H14R 9009   3.365   4.369   7.519  0.1530  0.0494  0.4669
   92SAPS  C215 9010   3.296   4.560   7.572  0.4108 -0.2796 -0.6834
   92SAPS  H15R 9011   3.361   4.608   7.497  2.0362  0.2798  0.9928
   92SAPS  C216 9012   3.211   4.659   7.648  0.0225 -0.0374  0.0560
   92SAPS  H16R 9013   3.272   4.746   7.681 -0.5252 -0.2900  1.7937
   92SAPS  H16S 9014   3.162   4.611   7.735  2.0461 -2.0393  0.1969
   92SAPS  C217 9015   3.104   4.725   7.556 -0.1344 -0.6461  0.3516
   92SAPS  H17R 9016   3.159   4.740   7.461  0.8885 -0.7208  0.9155
   92SAPS  H17S 9017   3.074   4.822   7.601  0.8231 -0.0922 -0.1727
   92SAPS  C218 9018   2.975   4.652   7.526  0.4472 -0.6019 -0.6457
   92SAPS  H18R 9019   2.930   4.620   7.622 -1.4646  0.3146 -1.1988
   92SAPS  H18S 9020   2.983   4.557   7.469 -0.0399 -1.2411  0.3239
   92SAPS  C219 9021   2.861   4.723   7.449  0.2823 -0.2960  0.1499
   92SAPS  H19R 9022   2.819   4.807   7.507  0.5579  1.0055 -1.4800
   92SAPS  H19S 9023   2.776   4.651   7.454  0.7423 -0.7995  1.0343
   92SAPS  C220 9024   2.887   4.775   7.308 -0.4346  0.2840 -0.7291
   92SAPS  H20R 9025   2.862   4.700   7.230 -1.0039 -0.1277 -0.1544
   92SAPS  H20S 9026   2.993   4.807   7.297 -0.0579  1.1151  3.5888
   92SAPS  H20T 9027   2.829   4.867   7.287  1.9874  2.0542 -0.0555
   92SAPS   C33 9028   2.520   4.548   6.740  0.1170 -0.6596  0.4395
   92SAPS   H3X 9029   2.410   4.537   6.743  0.0464 -0.6854 -1.1563
   92SAPS   H3Y 9030   2.544   4.655   6.722 -3.7754  0.3983  0.6818
   92SAPS   C34 9031   2.579   4.531   6.881 -0.3262  1.1741  0.2155
   92SAPS   H4X 9032   2.680   4.486   6.868 -0.4027  0.5752  1.5347
   92SAPS   H4Y 9033   2.510   4.460   6.931 -0.7991  0.3043 -1.5614
   92SAPS   C35 9034   2.585   4.658   6.963 -0.5272 -0.7858  0.2437
   92SAPS   H5X 9035   2.657   4.727   6.913 -2.0516  0.6960  0.0317
   92SAPS   H5Y 9036   2.635   4.631   7.059 -0.2745 -0.6070  0.1647
   92SAPS   C36 9037   2.449   4.716   6.990  0.0107  0.3206  0.6037
   92SAPS   H6X 9038   2.393   4.651   7.060  0.5672 -0.4639  0.3309
   92SAPS   H6Y 9039   2.391   4.724   6.895 -0.1982  1.7532  0.8245
   92SAPS   C37 9040   2.457   4.858   7.033  0.2227 -0.1422  0.1779
   92SAPS   H7X 9041   2.351   4.891   7.023 -0.1097 -1.1992  0.1456
   92SAPS   H7Y 9042   2.521   4.912   6.961 -0.5721  0.0407 -0.4071
   92SAPS   C38 9043   2.506   4.879   7.182 -0.2079  0.5977  0.3644
   92SAPS   H8X 9044   2.606   4.832   7.171 -1.1916 -1.3052 -0.8650
   92SAPS   H8Y 9045   2.443   4.824   7.255  1.2471  0.2684  1.4372
   92SAPS   C39 9046   2.522   5.022   7.215  1.2345 -1.0733  0.0778
   92SAPS   H9X 9047   2.417   5.057   7.207  1.5431  0.2920  1.4283
   92SAPS   H9Y 9048   2.580   5.077   7.138 -1.1120 -1.7794 -2.3361
   92SAPS  C310 9049   2.566   5.049   7.361 -0.0822  0.0852  0.3077
   92SAPS  H10X 9050   2.579   5.159   7.365  0.3581  0.0984 -1.0256
   92SAPS  H10Y 9051   2.664   5.000   7.381 -1.0080 -1.2983  1.7650
   92SAPS  C311 9052   2.461   4.990   7.461 -0.2674 -0.2648  0.3184
   92SAPS  H11X 9053   2.459   4.880   7.445 -1.5005  0.0720 -2.4358
   92SAPS  H11Y 9054   2.356   5.014   7.431 -0.2836 -0.9774 -0.2369
   92SAPS  C312 9055   2.477   5.014   7.603 -0.1873 -0.1458 -0.9066
   92SAPS  H12X 9056   2.476   5.124   7.619  0.9915 -0.2284 -0.1904
   92SAPS  H12Y 9057   2.574   4.973   7.637 -1.7940 -3.2554  0.3230
   92SAPS  C313 9058   2.384   4.935   7.692  0.6208  0.3676 -0.1342
   92SAPS  H13X 9059   2.376   4.827   7.668  0.1020  0.1011  1.1162
   92SAPS  H13Y 9060   2.293   4.999   7.689  1.4432  1.7989  2.1431
   92SAPS  C314 9061   2.425   4.944   7.842  0.0585 -0.5244 -0.1399
   92SAPS  H14X 9062   2.449   5.052   7.855  1.7022 -0.8549 -0.1884
   92SAPS  H14Y 9063   2.510   4.878   7.869 -2.4353 -3.2840  1.6063
   92SAPS  C315 9064   2.308   4.908   7.938 -0.7468 -0.3207 -0.3842
   92SAPS  H15X 9065   2.281   4.802   7.917  1.8154 -0.9602 -0.7898
   92SAPS  H15Y 9066   2.218   4.971   7.922 -0.3445  0.0936 -1.1236
   92SAPS  C316 9067   2.362   4.921   8.085  0.3249 -0.5928 -0.5140
   92SAPS  H16X 9068   2.467   4.888   8.098 -0.1054 -1.5761  0.6808
   92SAPS  H16Y 9069   2.302   4.855   8.151  0.8246 -0.0038  0.5541
   92SAPS  C317 9070   2.351   5.060   8.138  0.0135 -0.7965 -0.8394
   92SAPS  H17X 9071   2.259   5.111   8.101 -1.2575 -2.9599 -0.8073
   92SAPS  H17Y 9072   2.443   5.115   8.109 -0.8938  0.9725 -0.5337
   92SAPS  C318 9073   2.361   5.055   8.293  0.0979  0.0711 -0.1487
   92SAPS  H18X 9074   2.419   5.142   8.332  1.0778 -1.4864  2.1241
   92SAPS  H18Y 9075   2.419   4.968   8.329  2.4773  1.8466  0.5496
   92SAPS  H18Z 9076   2.257   5.056   8.333 -1.0186 -0.1966 -2.8643
   93SAPS     N 9077   3.558   3.708   6.309  0.5775 -0.3151 -0.2352
   93SAPS   HN1 9078   3.513   3.759   6.230 -1.3852 -1.6395 -0.0564
   93SAPS   HN2 9079   3.500   3.694   6.394  0.4530  1.4662 -0.0046
   93SAPS   HN3 9080   3.630   3.772   6.346  2.1553 -1.6203 -0.9175
   93SAPS   C12 9081   3.622   3.588   6.256  0.6380  0.7878 -0.5238
   93SAPS  H12A 9082   3.541   3.533   6.209  1.4093 -2.6143  1.7468
   93SAPS   C13 9083   3.728   3.605   6.153 -0.1304  0.2742  0.0580
   93SAPS  O13A 9084   3.780   3.714   6.119  0.7022 -0.2191  0.1686
   93SAPS  O13B 9085   3.781   3.497   6.110  0.0532 -0.3150  0.5987
   93SAPS   C11 9086   3.674   3.500   6.375 -0.3490  0.3405 -0.4252
   93SAPS  H11A 9087   3.763   3.553   6.416 -0.2241 -0.3849  0.2928
   93SAPS  H11B 9088   3.710   3.406   6.329  1.9315  1.2285 -0.6101
   93SAPS     P 9089   3.605   3.378   6.597  0.1488  0.5859  0.2469
   93SAPS   O13 9090   3.479   3.352   6.673  0.7029 -1.0164  0.6023
   93SAPS   O14 9091   3.679   3.262   6.540  0.5807 -0.2398  0.8706
   93SAPS   O12 9092   3.577   3.478   6.477  0.4803 -0.0850  0.4443
   93SAPS   O11 9093   3.699   3.459   6.688  0.4026  0.0129 -0.2650
   93SAPS    C1 9094   3.836   3.431   6.700 -0.3942  0.0507 -0.6176
   93SAPS    HA 9095   3.876   3.369   6.618 -2.3397  1.1697 -2.5033
   93SAPS    HB 9096   3.894   3.526   6.708 -0.5426  0.0355  1.2465
   93SAPS    C2 9097   3.863   3.359   6.834  0.4015 -0.3478 -0.2419
   93SAPS    HS 9098   3.799   3.269   6.845  1.0545 -0.8174 -0.2203
   93SAPS   O21 9099   3.852   3.453   6.943  0.4297 -0.0724 -0.2961
   93SAPS   C21 9100   3.797   3.397   7.047 -0.0932 -0.9772  0.4155
   93SAPS   O22 9101   3.775   3.284   7.063 -0.2927 -0.3586 -0.1216
   93SAPS   C22 9102   3.767   3.503   7.147 -0.3320  0.3711 -1.1639
   93SAPS   H2R 9103   3.863   3.553   7.175  0.4343 -1.9137  0.6121
   93SAPS   H2S 9104   3.689   3.573   7.110 -0.8728  0.3523 -0.1002
   93SAPS    C3 9105   4.008   3.304   6.837  0.8451 -0.2298  0.3601
   93SAPS    HX 9106   4.066   3.399   6.831 -1.9031  1.6537  1.8721
   93SAPS    HY 9107   4.011   3.250   6.740 -2.3786 -0.6602  0.4151
   93SAPS   O31 9108   4.054   3.245   6.958 -0.0717 -0.2601 -0.3222
   93SAPS   C31 9109   4.009   3.129   6.989 -0.6688  0.5185  0.0079
   93SAPS   O32 9110   3.939   3.063   6.918 -0.2797  0.3767 -0.2771
   93SAPS   C32 9111   4.023   3.108   7.137 -0.2217  0.0152  0.3471
   93SAPS   H2X 9112   3.974   3.015   7.173 -0.3686  0.6068  1.7206
   93SAPS   H2Y 9113   3.976   3.190   7.195 -1.4600 -0.2965 -0.1876
   93SAPS   C23 9114   3.718   3.445   7.280  0.2724 -0.2907 -0.3167
   93SAPS   H3R 9115   3.797   3.376   7.319  2.2263  1.6395 -0.6925
   93SAPS   H3S 9116   3.614   3.408   7.267 -0.8179  2.1204  0.8740
   93SAPS   C24 9117   3.702   3.540   7.397  0.4433  0.0516 -0.3405
   93SAPS   H4R 9118   3.669   3.498   7.494  1.7122  2.9551  1.4800
   93SAPS   H4S 9119   3.619   3.608   7.369  0.9879  1.5808  1.5145
   93SAPS   C25 9120   3.833   3.616   7.432 -1.0215  0.4910  0.2227
   93SAPS   H5R 9121   3.834   3.719   7.394 -2.0000 -0.0557 -1.3723
   93SAPS   C26 9122   3.941   3.569   7.505 -0.1873 -0.2261  0.6226
   93SAPS   H6R 9123   4.032   3.632   7.505 -0.0868 -0.3699  0.5243
   93SAPS   C27 9124   3.947   3.437   7.576 -0.2571 -0.0408  0.5820
   93SAPS   H7R 9125   4.057   3.423   7.578 -0.1862  0.4186  0.2133
   93SAPS   H7S 9126   3.900   3.359   7.513 -0.4527  1.1603 -0.8227
   93SAPS   C28 9127   3.879   3.451   7.713  0.9371  0.3583  0.0105
   93SAPS   H8R 9128   3.773   3.478   7.708  1.0148  0.6369 -0.2164
   93SAPS   C29 9129   3.938   3.420   7.828  0.0492  1.0762 -0.3665
   93SAPS   H9R 9130   3.877   3.434   7.919 -1.3341 -1.3680 -0.8314
   93SAPS  C210 9131   4.078   3.364   7.848  0.2802  0.9017 -0.3939
   93SAPS  H10R 9132   4.143   3.441   7.894 -0.1015  1.5114 -0.8695
   93SAPS  H10S 9133   4.115   3.324   7.751 -0.1751 -0.1350 -0.1607
   93SAPS  C211 9134   4.085   3.231   7.933 -0.5275 -0.0618  0.2073
   93SAPS  H11R 9135   4.129   3.144   7.881  0.7726 -1.2147  3.0255
   93SAPS  C212 9136   4.065   3.228   8.065 -0.0998  1.1332  0.0126
   93SAPS  H12R 9137   4.071   3.129   8.113  1.0419  1.9923  1.7173
   93SAPS  C213 9138   4.020   3.340   8.156 -0.6395  0.4007 -0.4029
   93SAPS  H13R 9139   3.947   3.410   8.108 -1.2615 -0.3606 -0.5902
   93SAPS  H13S 9140   4.112   3.396   8.181  0.5234 -1.4260 -0.4616
   93SAPS  C214 9141   3.978   3.302   8.298 -0.3038 -0.5310 -0.2495
   93SAPS  H14R 9142   4.055   3.263   8.366 -1.7846 -1.0208  1.2077
   93SAPS  C215 9143   3.854   3.300   8.344 -0.1405  0.4487 -0.5193
   93SAPS  H15R 9144   3.839   3.270   8.449 -0.5774  0.8724 -0.4567
   93SAPS  C216 9145   3.726   3.342   8.271 -0.2074 -0.4025 -0.2178
   93SAPS  H16R 9146   3.693   3.253   8.213 -2.1181 -0.6621  1.1725
   93SAPS  H16S 9147   3.732   3.425   8.198 -1.8051 -0.2753 -0.2417
   93SAPS  C217 9148   3.601   3.391   8.352  0.0278 -1.0457  0.2248
   93SAPS  H17R 9149   3.627   3.481   8.412 -2.6495 -0.5498  0.7589
   93SAPS  H17S 9150   3.574   3.308   8.421 -0.0333 -0.5250  0.8341
   93SAPS  C218 9151   3.493   3.421   8.251  0.2611 -0.1744  0.0486
   93SAPS  H18R 9152   3.474   3.321   8.206 -2.3246  0.8541 -1.3605
   93SAPS  H18S 9153   3.525   3.488   8.169 -2.0101  1.0320  0.0743
   93SAPS  C219 9154   3.360   3.474   8.314 -0.2042 -0.0306  0.1250
   93SAPS  H19R 9155   3.377   3.574   8.359 -1.3328  1.3594 -2.3345
   93SAPS  H19S 9156   3.342   3.406   8.400  2.4376 -0.0873  0.7212
   93SAPS  C220 9157   3.234   3.497   8.224  0.4873  0.0293 -0.2330
   93SAPS  H20R 9158   3.153   3.543   8.284  1.6754  0.0091  1.4524
   93SAPS  H20S 9159   3.195   3.399   8.188  0.4356  0.4246 -1.2830
   93SAPS  H20T 9160   3.262   3.560   8.137 -0.6054  2.1855  0.9100
   93SAPS   C33 9161   4.177   3.104   7.169  0.9192  0.2183 -0.7305
   93SAPS   H3X 9162   4.224   3.205   7.169  0.5221  0.4331  0.8590
   93SAPS   H3Y 9163   4.234   3.045   7.094  0.8037 -0.4300 -0.3109
   93SAPS   C34 9164   4.199   3.055   7.323 -0.6379  0.1632  0.1486
   93SAPS   H4X 9165   4.142   2.960   7.336 -0.8747 -0.2024 -2.8122
   93SAPS   H4Y 9166   4.155   3.132   7.389 -0.9014  0.2178 -0.0872
   93SAPS   C35 9167   4.343   3.038   7.363 -0.2614 -0.3995 -0.2326
   93SAPS   H5X 9168   4.392   3.137   7.348  0.8876 -0.9545 -0.2738
   93SAPS   H5Y 9169   4.391   2.970   7.289 -0.2551 -2.3240  1.4545
   93SAPS   C36 9170   4.359   2.986   7.510  0.2588 -0.0783  0.4672
   93SAPS   H6X 9171   4.319   2.882   7.506  1.8454 -0.8559  2.6556
   93SAPS   H6Y 9172   4.288   3.040   7.576 -0.8780  1.0357 -1.5846
   93SAPS   C37 9173   4.505   2.978   7.558  0.7589 -0.2803  0.3456
   93SAPS   H7X 9174   4.533   3.084   7.574 -1.2913 -0.0279  2.8582
   93SAPS   H7Y 9175   4.567   2.917   7.488 -0.5035 -0.4730 -0.6302
   93SAPS   C38 9176   4.516   2.908   7.693 -0.3513 -0.2334  0.1020
   93SAPS   H8X 9177   4.619   2.905   7.734 -1.0906 -1.4380  2.0288
   93SAPS   H8Y 9178   4.494   2.802   7.668 -0.7777  0.2113 -1.5330
   93SAPS   C39 9179   4.433   2.948   7.818  0.3187  0.0322 -0.2098
   93SAPS   H9X 9180   4.403   2.855   7.871  2.1257  0.3523  1.4537
   93SAPS   H9Y 9181   4.341   3.002   7.785  1.6689  2.4128 -0.3302
   93SAPS  C310 9182   4.508   3.022   7.927 -0.0009 -0.0204  0.1181
   93SAPS  H10X 9183   4.544   3.111   7.870 -0.6065 -0.7425 -1.4533
   93SAPS  H10Y 9184   4.601   2.963   7.941  0.2416 -1.2331 -4.8234
   93SAPS  C311 9185   4.427   3.062   8.052 -0.3553 -0.0315 -0.7283
   93SAPS  H11X 9186   4.350   3.138   8.028  0.5162  1.0913 -0.0391
   93SAPS  H11Y 9187   4.493   3.112   8.126  0.6636  1.4292 -2.5330
   93SAPS  C312 9188   4.358   2.936   8.112 -0.2285  0.5903  0.4167
   93SAPS  H12X 9189   4.439   2.861   8.117 -1.3525 -0.6438  0.6313
   93SAPS  H12Y 9190   4.281   2.901   8.040 -1.5639  1.5134  1.3463
   93SAPS  C313 9191   4.284   2.967   8.243 -0.5649 -0.5749  0.3862
   93SAPS  H13X 9192   4.234   3.066   8.238 -1.2301 -0.8222  1.7847
   93SAPS  H13Y 9193   4.359   2.978   8.325 -2.0234  1.9176  1.4763
   93SAPS  C314 9194   4.179   2.864   8.277  0.5743  0.1010 -0.5503
   93SAPS  H14X 9195   4.227   2.771   8.313 -2.7874 -2.6211 -2.5374
   93SAPS  H14Y 9196   4.115   2.840   8.190  0.7842  0.1485 -0.7193
   93SAPS  C315 9197   4.101   2.922   8.399  1.1326 -0.5066 -0.2662
   93SAPS  H15X 9198   4.029   2.998   8.360  1.2542 -0.5355 -0.5515
   93SAPS  H15Y 9199   4.154   2.979   8.478 -0.2456  0.6907 -0.1475
   93SAPS  C316 9200   4.025   2.811   8.470  0.6473  0.3111  0.2804
   93SAPS  H16X 9201   4.100   2.737   8.506 -0.0569 -0.3199  0.4857
   93SAPS  H16Y 9202   3.964   2.757   8.395  1.1761 -1.7133  1.2199
   93SAPS  C317 9203   3.948   2.859   8.583 -0.0921  0.5349 -0.2395
   93SAPS  H17X 9204   3.995   2.936   8.648  2.2897 -1.0743  0.0842
   93SAPS  H17Y 9205   3.936   2.784   8.664  0.0106  2.2171  1.3926
   93SAPS  C318 9206   3.801   2.891   8.560 -0.0809  0.0656 -0.1427
   93SAPS  H18X 9207   3.751   2.915   8.656 -0.1857 -0.0305 -0.1729
   93SAPS  H18Y 9208   3.746   2.811   8.507 -0.4649  0.3069 -0.1188
   93SAPS  H18Z 9209   3.801   2.984   8.498  0.7391 -1.1813 -2.1039
   94SAPS     N 9210   2.260   1.288   6.225  0.7480 -0.1493 -0.5857
   94SAPS   HN1 9211   2.353   1.322   6.255  0.4778 -0.3698  0.5232
   94SAPS   HN2 9212   2.177   1.343   6.254  0.1500 -1.8767  1.1623
   94SAPS   HN3 9213   2.242   1.195   6.267 -1.1952 -0.0213 -1.0263
   94SAPS   C12 9214   2.271   1.271   6.082 -0.0547  0.2787  0.0712
   94SAPS  H12A 9215   2.171   1.253   6.045  0.3227 -1.2930 -0.2395
   94SAPS   C13 9216   2.324   1.392   6.000  0.4146  1.5580 -0.0653
   94SAPS  O13A 9217   2.391   1.481   6.059 -0.3337  0.4108 -0.2461
   94SAPS  O13B 9218   2.318   1.383   5.877 -0.2200 -0.0300 -0.2672
   94SAPS   C11 9219   2.343   1.141   6.052  0.2241  0.8122  0.6724
   94SAPS  H11A 9220   2.446   1.155   6.091  0.8967  0.1262 -0.7955
   94SAPS  H11B 9221   2.344   1.111   5.945  0.0036 -3.0504  1.6218
   94SAPS     P 9222   2.301   0.881   6.098 -0.2139  0.2825 -0.3391
   94SAPS   O13 9223   2.165   0.827   6.109 -0.1974  0.0656 -0.3467
   94SAPS   O14 9224   2.368   0.878   5.969 -0.0244 -0.2418  0.4536
   94SAPS   O12 9225   2.278   1.041   6.130  0.0012  0.2727 -0.2907
   94SAPS   O11 9226   2.402   0.821   6.207  0.0765  0.2927 -0.0747
   94SAPS    C1 9227   2.412   0.880   6.339 -0.5759 -0.3772 -0.3401
   94SAPS    HA 9228   2.443   0.987   6.332  0.2578 -0.6381 -0.7966
   94SAPS    HB 9229   2.314   0.887   6.390 -0.7911 -2.3456 -0.4075
   94SAPS    C2 9230   2.516   0.806   6.425 -0.4345  0.1406  0.2541
   94SAPS    HS 9231   2.515   0.700   6.392 -0.0050  0.1439  0.2239
   94SAPS   O21 9232   2.474   0.802   6.559 -0.1824 -0.1705  0.4861
   94SAPS   C21 9233   2.446   0.908   6.632  0.2842  0.2743  0.2084
   94SAPS   O22 9234   2.451   1.028   6.590  0.0552  0.2213 -0.3253
   94SAPS   C22 9235   2.398   0.856   6.762  0.8437 -0.6753 -0.4314
   94SAPS   H2R 9236   2.288   0.876   6.767  0.7806 -1.2944  0.9845
   94SAPS   H2S 9237   2.401   0.745   6.761  0.8429 -0.7088  1.3080
   94SAPS    C3 9238   2.653   0.863   6.408  0.1478 -0.3363 -0.4777
   94SAPS    HX 9239   2.640   0.971   6.429 -0.1312 -0.5932  0.7755
   94SAPS    HY 9240   2.684   0.849   6.302 -0.9460 -0.5166 -0.7834
   94SAPS   O31 9241   2.752   0.803   6.492  0.2604  0.2532 -0.1345
   94SAPS   C31 9242   2.805   0.691   6.437 -0.3250 -0.3130  0.3170
   94SAPS   O32 9243   2.762   0.627   6.341 -0.4430  0.0049 -0.7219
   94SAPS   C32 9244   2.921   0.648   6.519 -0.0329  0.0311 -0.2707
   94SAPS   H2X 9245   2.932   0.716   6.606 -0.6830 -0.7556  0.4586
   94SAPS   H2Y 9246   3.021   0.651   6.472  0.2356  0.3404  0.3092
   94SAPS   C23 9247   2.467   0.920   6.883 -0.4173 -0.6818 -0.3444
   94SAPS   H3R 9248   2.452   1.030   6.891  1.3884 -0.0892 -3.3981
   94SAPS   H3S 9249   2.575   0.915   6.860  0.1054  1.7714  1.1729
   94SAPS   C24 9250   2.434   0.846   7.016  0.1420 -0.5494  0.0064
   94SAPS   H4R 9251   2.497   0.897   7.091 -0.6453 -2.7162  2.2600
   94SAPS   H4S 9252   2.475   0.743   7.023  2.0441  0.1402 -0.3478
   94SAPS   C25 9253   2.293   0.845   7.078 -0.0904 -0.3793  0.2511
   94SAPS   H5R 9254   2.210   0.826   7.008  0.7502  0.3805 -1.0076
   94SAPS   C26 9255   2.270   0.849   7.213  0.0269  0.2270 -0.0489
   94SAPS   H6R 9256   2.166   0.847   7.248 -0.2896 -3.0456 -0.8903
   94SAPS   C27 9257   2.370   0.867   7.326  0.7746 -0.4834  0.2636
   94SAPS   H7R 9258   2.422   0.962   7.303 -0.7437  0.4304  0.5251
   94SAPS   H7S 9259   2.448   0.787   7.323 -0.0438 -1.2721 -1.1126
   94SAPS   C28 9260   2.302   0.862   7.463  0.0578 -1.0032 -0.4082
   94SAPS   H8R 9261   2.234   0.777   7.477 -0.9395 -0.2111 -0.2672
   94SAPS   C29 9262   2.293   0.964   7.550 -0.5298 -0.2184  0.3443
   94SAPS   H9R 9263   2.235   0.954   7.643 -0.9015 -0.8972  0.0431
   94SAPS  C210 9264   2.354   1.100   7.546  1.2051  0.0987  0.8186
   94SAPS  H10R 9265   2.456   1.090   7.504  0.6201 -1.5404 -0.3119
   94SAPS  H10S 9266   2.366   1.146   7.647  0.3738 -0.9472  1.4181
   94SAPS  C211 9267   2.273   1.198   7.455  0.1345  0.6476 -0.9285
   94SAPS  H11R 9268   2.267   1.170   7.348  1.1835  1.8313 -1.3199
   94SAPS  C212 9269   2.190   1.297   7.484 -0.0163 -0.1699 -0.3756
   94SAPS  H12R 9270   2.140   1.343   7.398 -2.0443 -0.3613  0.6587
   94SAPS  C213 9271   2.161   1.358   7.622 -0.3707  0.4453 -1.3413
   94SAPS  H13R 9272   2.215   1.453   7.636  0.3892 -0.1571  0.1007
   94SAPS  H13S 9273   2.190   1.284   7.700  2.1224 -1.5586 -3.9867
   94SAPS  C214 9274   2.008   1.386   7.623 -0.4440  0.2603  0.2520
   94SAPS  H14R 9275   1.973   1.449   7.540  0.3751 -1.4517 -1.4609
   94SAPS  C215 9276   1.915   1.343   7.713 -0.8956  0.0508  0.3017
   94SAPS  H15R 9277   1.814   1.389   7.714 -0.0164  2.1097  0.0562
   94SAPS  C216 9278   1.938   1.263   7.841  0.8596  0.8844 -0.8887
   94SAPS  H16R 9279   2.022   1.190   7.837 -1.0306 -1.5091  0.0417
   94SAPS  H16S 9280   1.849   1.200   7.866  3.5214 -2.7406  0.3724
   94SAPS  C217 9281   1.944   1.352   7.964  0.2318 -0.4911 -0.5479
   94SAPS  H17R 9282   1.842   1.378   8.000 -0.5759 -2.2294 -1.4847
   94SAPS  H17S 9283   1.999   1.446   7.943 -1.2062  0.2810 -1.0050
   94SAPS  C218 9284   1.999   1.277   8.093  0.5410  0.3126  0.0286
   94SAPS  H18R 9285   2.103   1.242   8.073  0.5599  0.3409  0.0750
   94SAPS  H18S 9286   1.924   1.199   8.117  1.7026 -0.5867  0.8739
   94SAPS  C219 9287   2.027   1.365   8.220  0.5222 -1.5113  0.2570
   94SAPS  H19R 9288   2.042   1.298   8.307  0.6156 -1.0469  0.6031
   94SAPS  H19S 9289   1.940   1.431   8.244  1.2786 -0.2166 -0.4149
   94SAPS  C220 9290   2.138   1.474   8.199 -0.2479  0.3700 -1.1670
   94SAPS  H20R 9291   2.129   1.571   8.146  1.5432  0.8244 -0.7135
   94SAPS  H20S 9292   2.225   1.417   8.159  0.9998  1.3252  0.1112
   94SAPS  H20T 9293   2.180   1.486   8.301 -0.3483 -2.1565 -0.7625
   94SAPS   C33 9294   2.892   0.495   6.564  0.8464  0.0279 -0.3877
   94SAPS   H3X 9295   2.989   0.459   6.604 -0.1266 -0.9051  1.2583
   94SAPS   H3Y 9296   2.874   0.436   6.472 -0.0138 -0.5285  0.1248
   94SAPS   C34 9297   2.773   0.479   6.663 -0.6430 -0.3798  0.2757
   94SAPS   H4X 9298   2.760   0.372   6.692 -0.1252 -0.1760  1.2871
   94SAPS   H4Y 9299   2.677   0.501   6.612  0.2107 -0.5542 -1.4787
   94SAPS   C35 9300   2.802   0.562   6.790 -0.1578 -0.2799  0.0651
   94SAPS   H5X 9301   2.783   0.671   6.775 -1.6223 -0.5776 -0.4145
   94SAPS   H5Y 9302   2.911   0.553   6.813 -0.6795 -1.3491  2.3739
   94SAPS   C36 9303   2.733   0.503   6.913 -0.1391  0.1815 -0.0212
   94SAPS   H6X 9304   2.774   0.403   6.938 -0.1266  0.4323  1.0416
   94SAPS   H6Y 9305   2.622   0.504   6.906 -0.1623  2.5399 -0.2604
   94SAPS   C37 9306   2.758   0.591   7.047 -0.0669 -0.0710  0.4885
   94SAPS   H7X 9307   2.739   0.697   7.023  2.2089  0.4271  0.6602
   94SAPS   H7Y 9308   2.867   0.581   7.061  0.3732 -3.7985 -3.3760
   94SAPS   C38 9309   2.679   0.551   7.169  0.0358  0.2223 -0.1363
   94SAPS   H8X 9310   2.728   0.455   7.197  0.8531  0.2506 -1.4068
   94SAPS   H8Y 9311   2.574   0.530   7.139  0.1661 -1.8189  0.6434
   94SAPS   C39 9312   2.698   0.649   7.284 -0.6356  0.0445  0.0168
   94SAPS   H9X 9313   2.642   0.738   7.246  0.5393 -1.0137 -4.9722
   94SAPS   H9Y 9314   2.805   0.678   7.296 -0.3322 -0.6828 -0.7940
   94SAPS  C310 9315   2.647   0.605   7.418  0.1675 -0.0072  0.1666
   94SAPS  H10X 9316   2.711   0.519   7.448  0.1472 -0.2128 -0.3705
   94SAPS  H10Y 9317   2.537   0.588   7.415  0.2924 -0.8173 -1.5987
   94SAPS  C311 9318   2.684   0.709   7.521 -0.3816  0.1503  0.3274
   94SAPS  H11X 9319   2.609   0.791   7.514  0.2398  1.0493  3.1491
   94SAPS  H11Y 9320   2.785   0.745   7.494  0.2695  0.5801  3.1078
   94SAPS  C312 9321   2.687   0.654   7.667  0.6326  0.2048  0.0607
   94SAPS  H12X 9322   2.755   0.565   7.668 -2.6332 -2.5480 -1.5668
   94SAPS  H12Y 9323   2.588   0.617   7.701 -0.7218  1.8617 -1.8643
   94SAPS  C313 9324   2.721   0.768   7.765 -0.0092 -0.6062  0.4053
   94SAPS  H13X 9325   2.644   0.847   7.754 -0.9179 -1.4339  0.6456
   94SAPS  H13Y 9326   2.814   0.807   7.719 -1.4185  0.9245 -1.2845
   94SAPS  C314 9327   2.755   0.720   7.902 -0.2897  0.1516  0.5062
   94SAPS  H14X 9328   2.841   0.650   7.900 -0.9898 -0.7093 -0.2430
   94SAPS  H14Y 9329   2.668   0.673   7.952  0.0416 -0.7371  0.2641
   94SAPS  C315 9330   2.805   0.839   7.994 -0.6147  0.2889 -0.2567
   94SAPS  H15X 9331   2.723   0.914   7.989  0.8053  1.8250 -1.5622
   94SAPS  H15Y 9332   2.890   0.890   7.944 -0.4804  1.7481  1.3608
   94SAPS  C316 9333   2.835   0.784   8.134  0.7759  0.1080 -0.2369
   94SAPS  H16X 9334   2.753   0.715   8.165  1.7802 -1.2889 -0.6151
   94SAPS  H16Y 9335   2.844   0.869   8.205 -1.8717 -0.4146  0.8511
   94SAPS  C317 9336   2.962   0.700   8.139  0.2788  0.2833  0.0603
   94SAPS  H17X 9337   3.051   0.747   8.093  1.5376 -2.7251 -0.8286
   94SAPS  H17Y 9338   2.943   0.605   8.085 -1.0380  0.4872  0.1419
   94SAPS  C318 9339   3.010   0.669   8.288  0.1320  0.3928  0.1880
   94SAPS  H18X 9340   3.118   0.646   8.279 -0.3100 -1.3848 -1.1801
   94SAPS  H18Y 9341   2.950   0.586   8.332 -2.6480  2.0277 -0.3094
   94SAPS  H18Z 9342   3.000   0.757   8.355  0.5214  0.1832  0.5237
   95SAPS     N 9343   0.535   6.020   6.043 -0.4586 -0.3302 -0.1660
   95SAPS   HN1 9344   0.562   6.098   6.107  2.9354 -1.7682  0.3841
   95SAPS   HN2 9345   0.573   6.033   5.947 -0.8822  0.1569 -0.2702
   95SAPS   HN3 9346   0.432   6.010   6.034 -0.5725 -0.7101  1.2747
   95SAPS   C12 9347   0.594   5.893   6.088 -0.5131  0.5680  0.1995
   95SAPS  H12A 9348   0.575   5.885   6.194  2.3019 -0.9703  0.6753
   95SAPS   C13 9349   0.522   5.771   6.024 -0.0993  0.2699 -0.4502
   95SAPS  O13A 9350   0.425   5.778   5.954  0.6494  0.3553  0.0944
   95SAPS  O13B 9351   0.562   5.655   6.065 -0.2943 -0.0993  0.1426
   95SAPS   C11 9352   0.748   5.882   6.046 -0.0633 -0.7306  0.1833
   95SAPS  H11A 9353   0.753   5.873   5.935  1.6541  0.0956  0.1494
   95SAPS  H11B 9354   0.797   5.789   6.081 -1.3757 -0.4167  3.1712
   95SAPS     P 9355   0.980   6.011   6.093  0.1706  0.5252 -0.3720
   95SAPS   O13 9356   1.040   5.903   6.014  0.3498  0.2584 -0.3699
   95SAPS   O14 9357   1.016   6.152   6.057 -0.4523 -0.4529  0.7890
   95SAPS   O12 9358   0.822   6.000   6.086 -0.7343  0.4351  0.3252
   95SAPS   O11 9359   1.015   5.992   6.243 -0.2503 -0.2294  0.0576
   95SAPS    C1 9360   0.934   6.066   6.340  0.0681 -0.5222 -0.0221
   95SAPS    HA 9361   0.997   6.146   6.385  0.0360 -0.7082  0.3574
   95SAPS    HB 9362   0.840   6.105   6.295  1.0545  0.0547 -1.6965
   95SAPS    C2 9363   0.891   5.978   6.459  0.1646 -0.4696 -0.4477
   95SAPS    HS 9364   0.827   6.045   6.520 -1.4908 -1.5534 -0.9104
   95SAPS   O21 9365   1.006   5.920   6.520  0.4370  1.2838  0.5462
   95SAPS   C21 9366   1.059   5.999   6.607  0.6293 -0.5697  0.1106
   95SAPS   O22 9367   1.018   6.113   6.635  0.0293  0.5114 -0.1568
   95SAPS   C22 9368   1.187   5.932   6.666  0.1587 -0.0518  0.4817
   95SAPS   H2R 9369   1.154   5.852   6.736 -0.0671 -0.8980 -0.5761
   95SAPS   H2S 9370   1.238   5.879   6.583 -0.0569  1.3670 -0.5960
   95SAPS    C3 9371   0.796   5.856   6.439  0.7745 -0.2215  0.1601
   95SAPS    HX 9372   0.841   5.793   6.359  1.8279  1.1789 -0.3903
   95SAPS    HY 9373   0.712   5.904   6.384  2.0011  0.9158 -0.7816
   95SAPS   O31 9374   0.764   5.780   6.561 -0.1225 -0.4407  0.5116
   95SAPS   C31 9375   0.852   5.692   6.606  0.0619  0.6388  0.0739
   95SAPS   O32 9376   0.949   5.651   6.543  0.6175 -0.1857  0.1768
   95SAPS   C32 9377   0.802   5.638   6.742 -0.6279  0.3401  0.2193
   95SAPS   H2X 9378   0.893   5.603   6.795 -1.4073 -0.1690  1.2481
   95SAPS   H2Y 9379   0.733   5.552   6.728 -1.7175  0.3662  4.1873
   95SAPS   C23 9380   1.292   6.026   6.723 -0.5375  1.0006 -0.0407
   95SAPS   H3R 9381   1.250   6.108   6.784  0.4915  1.2891  0.2952
   95SAPS   H3S 9382   1.333   6.084   6.638 -1.6088  1.6369 -0.1455
   95SAPS   C24 9383   1.396   5.948   6.803  0.7751 -0.4352 -0.9756
   95SAPS   H4R 9384   1.430   5.862   6.742 -2.3327 -1.3352 -1.6120
   95SAPS   H4S 9385   1.355   5.902   6.896  2.0445  1.4438  0.6228
   95SAPS   C25 9386   1.506   6.045   6.843  0.0157  0.3676  0.2544
   95SAPS   H5R 9387   1.573   6.068   6.759  1.1349  2.5883  1.6434
   95SAPS   C26 9388   1.512   6.104   6.966  0.1193  0.3790  0.7070
   95SAPS   H6R 9389   1.600   6.168   6.984  0.9122 -0.5619  0.2665
   95SAPS   C27 9390   1.430   6.081   7.085 -0.3230  0.2010  0.1398
   95SAPS   H7R 9391   1.481   6.002   7.143  2.8419  0.6494 -1.7702
   95SAPS   H7S 9392   1.327   6.045   7.065  0.0196 -0.4893 -0.4363
   95SAPS   C28 9393   1.420   6.208   7.163 -0.9991 -0.8337  0.0612
   95SAPS   H8R 9394   1.362   6.289   7.117 -1.4129 -1.1708 -0.0037
   95SAPS   C29 9395   1.467   6.239   7.286 -0.0270  0.3656  0.3800
   95SAPS   H9R 9396   1.434   6.334   7.333  1.0026  0.6946  0.4575
   95SAPS  C210 9397   1.543   6.151   7.374  0.3902  0.2944  0.2174
   95SAPS  H10R 9398   1.599   6.211   7.450  1.5411 -1.6252  0.9561
   95SAPS  H10S 9399   1.628   6.104   7.321 -1.4799 -1.3469 -1.4433
   95SAPS  C211 9400   1.459   6.045   7.439  0.2115 -0.3331 -0.5810
   95SAPS  H11R 9401   1.439   5.965   7.367  0.5421 -0.6851 -0.2903
   95SAPS  C212 9402   1.405   6.038   7.560 -0.0186  0.0763  0.2667
   95SAPS  H12R 9403   1.336   5.956   7.586 -0.0596 -0.2732 -0.8534
   95SAPS  C213 9404   1.435   6.137   7.667  0.2664  0.1305  0.1102
   95SAPS  H13R 9405   1.347   6.174   7.724  0.0118  1.4251 -1.0678
   95SAPS  H13S 9406   1.460   6.234   7.619  1.4407 -0.4587 -0.5061
   95SAPS  C214 9407   1.554   6.094   7.757 -0.1032  0.3956 -0.3357
   95SAPS  H14R 9408   1.627   6.028   7.709  0.5537 -0.0274  1.2048
   95SAPS  C215 9409   1.576   6.130   7.883 -0.2815 -0.1738 -0.4583
   95SAPS  H15R 9410   1.660   6.091   7.942  0.0661 -0.0987 -0.8956
   95SAPS  C216 9411   1.488   6.229   7.953 -0.1411 -0.4185 -0.9865
   95SAPS  H16R 9412   1.415   6.172   8.014  0.2992 -0.6469 -0.6772
   95SAPS  H16S 9413   1.453   6.306   7.881  3.1172  1.4348 -0.7764
   95SAPS  C217 9414   1.566   6.301   8.067 -0.3749  0.3781  0.0128
   95SAPS  H17R 9415   1.648   6.362   8.023  0.4567 -0.3190  0.5473
   95SAPS  H17S 9416   1.611   6.223   8.132 -0.2325  0.7620  0.3755
   95SAPS  C218 9417   1.478   6.397   8.151  0.1359  0.3205 -0.6454
   95SAPS  H18R 9418   1.399   6.350   8.214  0.1262  2.7938  1.3283
   95SAPS  H18S 9419   1.426   6.457   8.074 -0.0295 -0.0825 -0.8510
   95SAPS  C219 9420   1.564   6.475   8.249  0.1131 -0.1916  0.0300
   95SAPS  H19R 9421   1.628   6.527   8.173  2.6767 -2.1642  0.7064
   95SAPS  H19S 9422   1.620   6.401   8.310 -0.2077  0.0641  0.6440
   95SAPS  C220 9423   1.487   6.571   8.341  0.2350 -0.8915  0.4172
   95SAPS  H20R 9424   1.539   6.605   8.433 -0.3410 -1.8960  1.1354
   95SAPS  H20S 9425   1.388   6.524   8.360 -0.4703  0.3629 -0.0195
   95SAPS  H20T 9426   1.458   6.664   8.288  0.9773 -0.6509  0.4172
   95SAPS   C33 9427   0.756   5.739   6.849  0.4332  0.2163 -0.4310
   95SAPS   H3X 9428   0.680   5.677   6.901 -0.4249  0.5442 -1.2700
   95SAPS   H3Y 9429   0.702   5.825   6.805  1.9524  1.2070 -0.4266
   95SAPS   C34 9430   0.864   5.795   6.929 -0.4820 -0.4792 -1.0122
   95SAPS   H4X 9431   0.940   5.855   6.874 -0.0605  0.7942  0.8599
   95SAPS   H4Y 9432   0.925   5.711   6.971  1.0968  1.6431  1.2307
   95SAPS   C35 9433   0.821   5.884   7.042  0.2503 -0.5663 -0.0327
   95SAPS   H5X 9434   0.778   5.979   7.003  0.7545  0.9450  2.8474
   95SAPS   H5Y 9435   0.916   5.913   7.092 -0.6285  1.1407  0.7207
   95SAPS   C36 9436   0.719   5.815   7.137 -0.5359 -0.1809 -0.0121
   95SAPS   H6X 9437   0.753   5.719   7.181  0.6806  1.3123  2.5046
   95SAPS   H6Y 9438   0.622   5.801   7.083  0.4178 -1.0936 -1.5631
   95SAPS   C37 9439   0.692   5.903   7.254  0.3027  0.2584 -0.2133
   95SAPS   H7X 9440   0.583   5.907   7.275  0.2262 -1.5713 -0.0598
   95SAPS   H7Y 9441   0.718   6.003   7.214  1.6479 -0.2389 -0.6665
   95SAPS   C38 9442   0.775   5.876   7.382  0.1258  0.3212 -0.2686
   95SAPS   H8X 9443   0.876   5.914   7.360 -0.1330  0.2058 -1.7565
   95SAPS   H8Y 9444   0.789   5.767   7.399  1.8325  0.5243 -0.2233
   95SAPS   C39 9445   0.718   5.959   7.492 -0.0751 -0.0809 -0.2797
   95SAPS   H9X 9446   0.629   5.906   7.533 -0.3466  0.1242 -0.6019
   95SAPS   H9Y 9447   0.693   6.059   7.450 -2.6170 -0.3564  0.3890
   95SAPS  C310 9448   0.806   5.957   7.612 -0.5196 -0.1584  0.1476
   95SAPS  H10X 9449   0.806   5.852   7.649  0.1812 -1.0781 -2.2959
   95SAPS  H10Y 9450   0.770   6.027   7.691  3.5979  1.8865  0.5119
   95SAPS  C311 9451   0.961   6.010   7.591  0.6036 -0.0307  0.4304
   95SAPS  H11X 9452   0.955   6.106   7.536 -0.3164 -0.0712  0.4528
   95SAPS  H11Y 9453   1.018   5.929   7.539 -1.3281 -1.6611  0.7393
   95SAPS  C312 9454   1.047   6.023   7.719  0.4943  0.6280 -0.4847
   95SAPS  H12X 9455   1.156   6.003   7.709  0.9011  1.5649  1.6382
   95SAPS  H12Y 9456   1.008   5.943   7.785 -2.5298  0.8502 -1.8208
   95SAPS  C313 9457   1.015   6.154   7.786  0.1172 -0.3251 -0.7399
   95SAPS  H13X 9458   0.910   6.154   7.821  0.4412 -0.6181  0.2659
   95SAPS  H13Y 9459   1.024   6.240   7.716 -2.8607 -1.1276 -2.2849
   95SAPS  C314 9460   1.107   6.183   7.911  0.5161  0.6187  0.1239
   95SAPS  H14X 9461   1.211   6.192   7.873 -0.2914 -0.4358 -2.5628
   95SAPS  H14Y 9462   1.105   6.091   7.973 -2.1985  1.1831  0.9899
   95SAPS  C315 9463   1.076   6.306   7.993 -0.3057  0.1279  0.3629
   95SAPS  H15X 9464   0.967   6.326   7.999 -0.4845 -0.8605  0.5340
   95SAPS  H15Y 9465   1.123   6.391   7.938  0.8253 -0.7091 -0.0236
   95SAPS  C316 9466   1.130   6.301   8.136 -0.0859  0.4646  0.1575
   95SAPS  H16X 9467   1.241   6.306   8.137 -0.0286  0.0111  2.3525
   95SAPS  H16Y 9468   1.103   6.205   8.187  2.5992  0.6159  2.1387
   95SAPS  C317 9469   1.070   6.412   8.224 -0.2393  0.0278  1.4111
   95SAPS  H17X 9470   0.959   6.405   8.223 -0.2797 -0.5150 -2.2536
   95SAPS  H17Y 9471   1.106   6.510   8.185 -0.3334 -0.2554  0.5989
   95SAPS  C318 9472   1.116   6.422   8.366  0.4184 -0.1641 -0.6152
   95SAPS  H18X 9473   1.040   6.462   8.437  3.9747  0.7028  3.0379
   95SAPS  H18Y 9474   1.209   6.482   8.365  0.4499 -0.1986 -1.9064
   95SAPS  H18Z 9475   1.138   6.320   8.405 -0.1754  0.7030  2.1880
   96SAPS     N 9476   1.734   5.950   6.078  0.3698 -0.5066  0.5347
   96SAPS   HN1 9477   1.707   6.017   6.003 -1.0866  0.1881  1.6202
   96SAPS   HN2 9478   1.686   5.960   6.170  2.0095 -2.8029  1.7364
   96SAPS   HN3 9479   1.835   5.962   6.100 -0.1508  0.0418  2.8537
   96SAPS   C12 9480   1.703   5.809   6.043 -0.2690  0.7552  0.5936
   96SAPS  H12A 9481   1.608   5.809   5.992 -0.9231 -0.4034  1.7835
   96SAPS   C13 9482   1.809   5.740   5.951  0.6366  0.4170  0.2822
   96SAPS  O13A 9483   1.910   5.807   5.906  0.4769 -0.1057  0.2259
   96SAPS  O13B 9484   1.799   5.617   5.925 -0.4185  0.3959  0.1029
   96SAPS   C11 9485   1.694   5.729   6.170 -0.0986 -0.2836  0.5654
   96SAPS  H11A 9486   1.791   5.721   6.224 -0.4978 -1.2258  1.1702
   96SAPS  H11B 9487   1.651   5.628   6.154 -1.3370  0.5183 -1.4668
   96SAPS     P 9488   1.538   5.752   6.382 -0.0029 -0.2638  0.0051
   96SAPS   O13 9489   1.421   5.845   6.394 -0.1019  0.4346 -0.1700
   96SAPS   O14 9490   1.505   5.607   6.356  0.5261 -0.3041  0.2317
   96SAPS   O12 9491   1.607   5.801   6.251  0.1824 -0.0110 -0.1277
   96SAPS   O11 9492   1.643   5.766   6.502 -0.2177 -0.1952 -0.1366
   96SAPS    C1 9493   1.720   5.885   6.513  0.7133 -0.8416  0.1236
   96SAPS    HA 9494   1.685   5.966   6.445 -2.2440 -0.3562  2.0230
   96SAPS    HB 9495   1.703   5.932   6.612 -0.3574  0.6098 -0.7041
   96SAPS    C2 9496   1.872   5.865   6.494  0.5174 -0.2026 -1.2122
   96SAPS    HS 9497   1.886   5.794   6.410 -3.6570 -0.8977 -1.5309
   96SAPS   O21 9498   1.912   5.800   6.618 -0.2293 -0.0102  0.3588
   96SAPS   C21 9499   2.033   5.743   6.607  0.2689  0.3081 -0.3386
   96SAPS   O22 9500   2.100   5.739   6.507  0.4645  0.3082  0.2606
   96SAPS   C22 9501   2.076   5.695   6.744  0.1175 -0.2814  0.6638
   96SAPS   H2R 9502   1.987   5.650   6.793  0.8953 -1.6700  0.8456
   96SAPS   H2S 9503   2.135   5.604   6.723  1.2659  0.5594  0.1216
   96SAPS    C3 9504   1.952   5.998   6.457  0.2134 -0.3192  0.2450
   96SAPS    HX 9505   1.909   6.041   6.364  0.6585  0.5027  0.4067
   96SAPS    HY 9506   2.057   5.973   6.427  1.2745  1.8958  1.8428
   96SAPS   O31 9507   1.946   6.097   6.562  0.0392  0.2437 -0.3661
   96SAPS   C31 9508   2.053   6.112   6.641  0.4433  0.3947 -0.3470
   96SAPS   O32 9509   2.165   6.063   6.621  0.0162  0.1849  0.0722
   96SAPS   C32 9510   2.012   6.200   6.759  0.1462  0.3511  0.1509
   96SAPS   H2X 9511   1.923   6.150   6.802  0.0427 -0.7715 -1.3123
   96SAPS   H2Y 9512   1.964   6.289   6.713 -5.2040 -1.9002  0.7295
   96SAPS   C23 9513   2.168   5.804   6.811 -0.2955 -0.8309  0.2662
   96SAPS   H3R 9514   2.116   5.896   6.847 -1.6060 -1.1587 -0.6918
   96SAPS   H3S 9515   2.252   5.830   6.743 -1.6525 -1.1254 -1.6084
   96SAPS   C24 9516   2.227   5.746   6.942 -0.2464  0.3619  0.9311
   96SAPS   H4R 9517   2.292   5.661   6.912  0.9070  1.0629  1.4075
   96SAPS   H4S 9518   2.139   5.713   7.001 -2.0339  0.9729 -1.2421
   96SAPS   C25 9519   2.313   5.852   7.005 -0.0449  0.2229 -0.5114
   96SAPS   H5R 9520   2.391   5.903   6.948 -0.2183 -1.4891 -2.3781
   96SAPS   C26 9521   2.298   5.891   7.137 -0.1233 -0.0367  0.2007
   96SAPS   H6R 9522   2.364   5.970   7.177  0.3173  0.0254 -0.6262
   96SAPS   C27 9523   2.196   5.842   7.242  0.6936 -0.5555  0.7592
   96SAPS   H7R 9524   2.094   5.821   7.203  0.3904  2.3916 -0.3128
   96SAPS   H7S 9525   2.189   5.929   7.311  3.8392 -0.1074  0.6990
   96SAPS   C28 9526   2.247   5.725   7.320  0.2064 -0.2083 -0.2433
   96SAPS   H8R 9527   2.285   5.632   7.274 -0.7904  0.0649 -1.6761
   96SAPS   C29 9528   2.248   5.733   7.453 -0.5799  0.1777  0.1986
   96SAPS   H9R 9529   2.304   5.652   7.503 -0.3705 -0.1748 -0.5845
   96SAPS  C210 9530   2.198   5.846   7.542 -0.0746 -0.1661 -0.2685
   96SAPS  H10R 9531   2.104   5.891   7.506 -1.4287  1.0673  4.1643
   96SAPS  H10S 9532   2.269   5.931   7.535  0.8950 -0.9605 -0.4558
   96SAPS  C211 9533   2.189   5.803   7.688  0.1203 -0.7211  0.3449
   96SAPS  H11R 9534   2.279   5.749   7.723  0.9135  0.4506  0.1821
   96SAPS  C212 9535   2.092   5.842   7.773  0.0973 -0.3662 -0.2586
   96SAPS  H12R 9536   2.097   5.821   7.881  0.8335 -2.2412 -0.6151
   96SAPS  C213 9537   1.969   5.929   7.740  0.4767 -0.6068  0.3494
   96SAPS  H13R 9538   1.959   5.959   7.634 -0.6182  0.7009  0.7907
   96SAPS  H13S 9539   1.985   6.022   7.799  3.3207 -0.3450 -0.6901
   96SAPS  C214 9540   1.842   5.865   7.788 -0.2593  0.1332 -1.0078
   96SAPS  H14R 9541   1.767   5.843   7.711  1.0993 -1.7097 -1.8707
   96SAPS  C215 9542   1.801   5.844   7.923  0.1251  0.6839  0.9401
   96SAPS  H15R 9543   1.698   5.809   7.933 -0.3589  0.6235 -2.7417
   96SAPS  C216 9544   1.878   5.881   8.048  1.0426  0.1116 -0.3780
   96SAPS  H16R 9545   1.839   5.980   8.079 -0.6872 -0.0559 -1.8192
   96SAPS  H16S 9546   1.982   5.903   8.016  0.0321  1.8460 -2.8333
   96SAPS  C217 9547   1.870   5.778   8.157  0.3618  0.6188  0.2791
   96SAPS  H17R 9548   1.952   5.805   8.227  0.9467  1.0627 -0.5606
   96SAPS  H17S 9549   1.896   5.676   8.121  0.2034  0.8741 -0.5859
   96SAPS  C218 9550   1.733   5.772   8.230 -0.1647  0.3863 -0.5780
   96SAPS  H18R 9551   1.662   5.737   8.152  0.5034 -1.1987 -0.5295
   96SAPS  H18S 9552   1.706   5.873   8.265  1.0819  0.8576 -0.9095
   96SAPS  C219 9553   1.722   5.665   8.339 -0.4518 -0.0041 -0.5125
   96SAPS  H19R 9554   1.623   5.678   8.387 -2.7312 -0.8305 -4.5510
   96SAPS  H19S 9555   1.804   5.687   8.410 -0.0299 -1.0698 -0.6409
   96SAPS  C220 9556   1.725   5.518   8.290 -0.3017 -0.0632  0.6418
   96SAPS  H20R 9557   1.679   5.517   8.189  2.9751 -1.0910 -0.9645
   96SAPS  H20S 9558   1.686   5.449   8.368  1.0473  1.1232  2.4444
   96SAPS  H20T 9559   1.829   5.493   8.262 -0.7302  0.4190 -1.5765
   96SAPS   C33 9560   2.115   6.216   6.867 -0.0216 -0.3656  0.1144
   96SAPS   H3X 9561   2.195   6.283   6.827  0.3393  0.4100  2.0376
   96SAPS   H3Y 9562   2.159   6.116   6.887  1.4870  0.5327  1.5577
   96SAPS   C34 9563   2.059   6.257   7.005  0.2409  0.1334 -0.0488
   96SAPS   H4X 9564   1.981   6.182   7.031 -0.4054  0.3329 -1.3549
   96SAPS   H4Y 9565   2.016   6.358   6.989 -0.4521 -0.2091 -0.4186
   96SAPS   C35 9566   2.160   6.262   7.114 -0.6593 -0.2099  0.2270
   96SAPS   H5X 9567   2.214   6.356   7.092 -2.8273  0.8165 -1.0451
   96SAPS   H5Y 9568   2.228   6.175   7.120  1.3017  1.2350 -0.0684
   96SAPS   C36 9569   2.108   6.276   7.257 -0.2052 -0.8133 -0.5455
   96SAPS   H6X 9570   2.051   6.186   7.286  1.7102 -1.9160 -0.0389
   96SAPS   H6Y 9571   2.042   6.365   7.265  0.4075 -0.4967  3.0782
   96SAPS   C37 9572   2.225   6.291   7.354  0.4748  0.5352 -0.1678
   96SAPS   H7X 9573   2.239   6.395   7.392 -1.1574  0.2483  1.3282
   96SAPS   H7Y 9574   2.319   6.252   7.309  1.6050  1.7808  0.9976
   96SAPS   C38 9575   2.200   6.207   7.481  0.3399 -0.2052  0.2606
   96SAPS   H8X 9576   2.211   6.098   7.460 -0.7953 -0.2730 -0.0615
   96SAPS   H8Y 9577   2.098   6.220   7.521  0.4779 -1.6880  1.1783
   96SAPS   C39 9578   2.297   6.250   7.587 -0.2219 -0.3718 -1.0406
   96SAPS   H9X 9579   2.288   6.358   7.611 -0.8638 -0.7647  0.6040
   96SAPS   H9Y 9580   2.397   6.235   7.541 -0.5171  1.0678 -2.2047
   96SAPS  C310 9581   2.269   6.177   7.717  0.2543  0.5049 -0.1554
   96SAPS  H10X 9582   2.269   6.068   7.695 -2.5003  0.2027  1.0090
   96SAPS  H10Y 9583   2.161   6.187   7.740 -0.0553 -3.6195  0.9108
   96SAPS  C311 9584   2.356   6.226   7.833  0.4486  0.0082  0.0638
   96SAPS  H11X 9585   2.308   6.322   7.862 -0.2322 -0.0970 -0.6939
   96SAPS  H11Y 9586   2.458   6.258   7.801  0.8144 -1.1602 -0.0018
   96SAPS  C312 9587   2.375   6.126   7.952  0.2563 -0.8293 -0.6682
   96SAPS  H12X 9588   2.452   6.186   8.006  1.0742 -0.2082 -2.4614
   96SAPS  H12Y 9589   2.414   6.028   7.918  0.5729 -0.7217 -0.6242
   96SAPS  C313 9590   2.254   6.110   8.052 -0.5878  0.3167 -0.0270
   96SAPS  H13X 9591   2.165   6.095   7.987 -0.2985  0.5555 -0.4872
   96SAPS  H13Y 9592   2.237   6.207   8.104 -1.6519 -0.0257  0.2901
   96SAPS  C314 9593   2.274   5.992   8.144 -0.5895  0.2522  0.1696
   96SAPS  H14X 9594   2.292   5.903   8.081  2.1997  0.1587  0.9506
   96SAPS  H14Y 9595   2.181   5.975   8.203 -0.5728 -1.3772 -0.2264
   96SAPS  C315 9596   2.401   5.997   8.225 -0.5792  0.2726 -0.3843
   96SAPS  H15X 9597   2.394   6.085   8.292  0.6922  0.0989  0.0120
   96SAPS  H15Y 9598   2.491   6.006   8.161 -0.5764  1.0355 -0.2831
   96SAPS  C316 9599   2.431   5.870   8.305 -0.2238  0.2706  0.5290
   96SAPS  H16X 9600   2.516   5.883   8.377  0.6891  1.4822 -0.7133
   96SAPS  H16Y 9601   2.467   5.786   8.242  0.4700  1.1789 -0.3145
   96SAPS  C317 9602   2.319   5.832   8.397  0.6389  0.8521  0.4093
   96SAPS  H17X 9603   2.231   5.816   8.332 -0.0269 -1.3025  1.7110
   96SAPS  H17Y 9604   2.303   5.922   8.460  0.8775 -0.4249  2.4140
   96SAPS  C318 9605   2.350   5.710   8.488 -0.4510 -0.3671  0.2790
   96SAPS  H18X 9606   2.356   5.633   8.408 -2.3986  0.0257 -0.2838
   96SAPS  H18Y 9607   2.269   5.692   8.562 -3.5072 -1.3400 -3.0231
   96SAPS  H18Z 9608   2.447   5.723   8.541  0.0639 -1.5360 -0.3280
   97SAPS     N 9609   1.046   4.474   6.415  0.1435 -0.1878  0.4005
   97SAPS   HN1 9610   0.994   4.394   6.374  1.3425 -0.6242 -0.3271
   97SAPS   HN2 9611   0.981   4.550   6.442 -1.0055 -0.5508 -1.2146
   97SAPS   HN3 9612   1.097   4.507   6.330 -1.4102  1.1545 -0.0551
   97SAPS   C12 9613   1.136   4.442   6.534  0.1314 -0.0497  0.2949
   97SAPS  H12A 9614   1.100   4.473   6.631  0.7056 -1.1171  0.8613
   97SAPS   C13 9615   1.153   4.286   6.555  0.2505  0.0221  0.2834
   97SAPS  O13A 9616   1.126   4.209   6.458 -0.6325 -0.0519 -0.3783
   97SAPS  O13B 9617   1.210   4.247   6.655 -0.1151 -0.1201 -0.0391
   97SAPS   C11 9618   1.281   4.500   6.519  0.5727 -0.2857  0.1829
   97SAPS  H11A 9619   1.318   4.469   6.419 -1.3069 -1.8012 -0.1035
   97SAPS  H11B 9620   1.357   4.456   6.588  1.5852 -0.4826 -1.0403
   97SAPS     P 9621   1.289   4.717   6.664 -0.6433  0.2180  0.2866
   97SAPS   O13 9622   1.429   4.711   6.711 -0.3466 -0.5551 -0.4399
   97SAPS   O14 9623   1.233   4.856   6.650  0.2792 -0.0408 -0.4745
   97SAPS   O12 9624   1.280   4.642   6.522 -0.5263 -0.2419 -0.0345
   97SAPS   O11 9625   1.204   4.635   6.767  0.6238  0.0514 -0.4921
   97SAPS    C1 9626   1.078   4.687   6.810 -0.4338 -0.3459 -0.4795
   97SAPS    HA 9627   1.031   4.755   6.736  0.2748  2.3163  1.3474
   97SAPS    HB 9628   1.011   4.600   6.830 -1.7897  0.7556 -0.0233
   97SAPS    C2 9629   1.108   4.779   6.926  0.2938  0.1129 -0.1804
   97SAPS    HS 9630   1.181   4.856   6.894  2.7255 -1.8382  0.3968
   97SAPS   O21 9631   1.150   4.696   7.030  0.5456  0.0659 -0.2113
   97SAPS   C21 9632   1.251   4.739   7.108  0.2091 -0.5833 -0.2769
   97SAPS   O22 9633   1.317   4.841   7.085  0.4721  0.0052  0.0686
   97SAPS   C22 9634   1.256   4.661   7.240 -0.2492 -0.7816 -1.0025
   97SAPS   H2R 9635   1.347   4.598   7.237  1.4459  1.3631  1.2127
   97SAPS   H2S 9636   1.273   4.733   7.323 -2.3209 -1.6323  0.2479
   97SAPS    C3 9637   0.981   4.845   6.985  0.1454 -0.5232  0.1791
   97SAPS    HX 9638   0.922   4.768   7.040  1.4478 -2.2045 -0.6974
   97SAPS    HY 9639   0.925   4.877   6.895  1.2687 -0.3334 -0.4660
   97SAPS   O31 9640   1.009   4.954   7.076 -0.1333  0.1404 -0.0705
   97SAPS   C31 9641   1.037   5.069   7.020  0.1907  0.3883  0.1426
   97SAPS   O32 9642   1.031   5.094   6.899  0.0167 -0.1336  0.0934
   97SAPS   C32 9643   1.107   5.158   7.126  0.1439  0.4614  0.2760
   97SAPS   H2X 9644   1.176   5.099   7.190  2.2356 -0.2510 -2.4556
   97SAPS   H2Y 9645   1.026   5.208   7.182 -0.1029 -2.7861  3.1556
   97SAPS   C23 9646   1.131   4.575   7.273  0.3489 -0.2109 -0.8909
   97SAPS   H3R 9647   1.106   4.504   7.192 -1.7860 -0.6915  0.0990
   97SAPS   H3S 9648   1.040   4.639   7.266 -0.4713 -1.2923 -0.3694
   97SAPS   C24 9649   1.130   4.480   7.395 -0.8732  0.1384 -0.4484
   97SAPS   H4R 9650   1.224   4.426   7.370 -0.3123  0.9555 -0.1786
   97SAPS   H4S 9651   1.044   4.411   7.403 -0.4900 -0.2722  0.1607
   97SAPS   C25 9652   1.146   4.553   7.524 -0.5989 -0.4867 -0.1452
   97SAPS   H5R 9653   1.105   4.655   7.533 -0.0858 -0.2074 -0.8399
   97SAPS   C26 9654   1.211   4.507   7.630  0.0821 -0.5313 -0.5495
   97SAPS   H6R 9655   1.218   4.582   7.710 -2.4928 -1.3877  0.6074
   97SAPS   C27 9656   1.298   4.388   7.649  1.2683 -0.4586  0.8984
   97SAPS   H7R 9657   1.387   4.414   7.711  1.2995 -1.4412  1.2947
   97SAPS   H7S 9658   1.346   4.347   7.557  2.2622  0.3910  1.0130
   97SAPS   C28 9659   1.209   4.290   7.716  0.1518  0.2835  0.1754
   97SAPS   H8R 9660   1.142   4.245   7.642 -0.8263 -0.5666  1.5448
   97SAPS   C29 9661   1.216   4.248   7.839 -0.5080  0.2032 -0.1729
   97SAPS   H9R 9662   1.144   4.175   7.878 -0.0026 -0.2258 -0.0343
   97SAPS  C210 9663   1.309   4.303   7.948  0.0084 -0.1970  0.3755
   97SAPS  H10R 9664   1.272   4.297   8.053 -3.4179  2.7643 -0.4355
   97SAPS  H10S 9665   1.311   4.414   7.936 -1.7301 -0.0818  0.8265
   97SAPS  C211 9666   1.450   4.252   7.946 -0.1704  0.3154 -0.1313
   97SAPS  H11R 9667   1.512   4.279   7.859 -0.8396  0.3463 -0.6092
   97SAPS  C212 9668   1.523   4.178   8.040 -0.3266  0.7969  0.1194
   97SAPS  H12R 9669   1.627   4.146   8.020 -0.1675  0.8617  0.8256
   97SAPS  C213 9670   1.470   4.125   8.176 -0.4738  0.6316  0.1884
   97SAPS  H13R 9671   1.478   4.015   8.170  1.4137  0.7875 -0.7905
   97SAPS  H13S 9672   1.362   4.150   8.187 -0.6565  0.2467 -0.7058
   97SAPS  C214 9673   1.557   4.184   8.283  0.7445 -0.3665  0.0385
   97SAPS  H14R 9674   1.517   4.279   8.321 -0.6190 -0.8138 -0.2412
   97SAPS  C215 9675   1.662   4.129   8.346  0.1689  0.4175  0.0063
   97SAPS  H15R 9676   1.708   4.191   8.425 -0.0755  0.6086  0.0004
   97SAPS  C216 9677   1.722   3.993   8.314  0.5310  0.2794 -0.3138
   97SAPS  H16R 9678   1.652   3.924   8.261  0.8602 -2.2733  2.3143
   97SAPS  H16S 9679   1.744   3.941   8.409  0.0734  1.1565  0.2811
   97SAPS  C217 9680   1.848   4.017   8.233 -0.1618 -0.0880 -0.1733
   97SAPS  H17R 9681   1.832   4.076   8.141  0.5164 -0.2311 -0.3883
   97SAPS  H17S 9682   1.887   3.920   8.195  0.1020  0.2803 -0.8474
   97SAPS  C218 9683   1.966   4.077   8.317  0.7717  0.8674  0.0367
   97SAPS  H18R 9684   2.005   3.994   8.381 -0.9477  0.4139  0.5368
   97SAPS  H18S 9685   1.922   4.155   8.381 -1.0729  1.3457 -1.7244
   97SAPS  C219 9686   2.085   4.119   8.237 -0.7218 -0.7255  0.8949
   97SAPS  H19R 9687   2.066   4.215   8.186  3.0025 -0.7340 -0.8014
   97SAPS  H19S 9688   2.109   4.038   8.166 -1.5685 -0.2846  0.0816
   97SAPS  C220 9689   2.209   4.143   8.322  0.1008 -0.2566 -0.6624
   97SAPS  H20R 9690   2.195   4.236   8.380 -3.2297 -1.2801  0.3752
   97SAPS  H20S 9691   2.293   4.170   8.254  0.8743 -0.4481  0.2063
   97SAPS  H20T 9692   2.241   4.065   8.394 -1.1923 -0.2430 -0.0384
   97SAPS   C33 9693   1.201   5.262   7.055 -0.0140  0.1187  0.8276
   97SAPS   H3X 9694   1.153   5.324   6.976 -1.0674 -1.0228  0.5355
   97SAPS   H3Y 9695   1.268   5.209   6.984 -1.5026  1.6578 -1.9452
   97SAPS   C34 9696   1.281   5.344   7.152 -0.5730 -0.6094 -0.0686
   97SAPS   H4X 9697   1.373   5.382   7.102 -0.2591  0.2942  1.1561
   97SAPS   H4Y 9698   1.320   5.272   7.226  1.1800  0.4551  0.1015
   97SAPS   C35 9699   1.198   5.440   7.237 -0.1095 -0.0821 -0.2202
   97SAPS   H5X 9700   1.153   5.386   7.324 -0.1633  1.2793  0.6223
   97SAPS   H5Y 9701   1.111   5.482   7.182  0.0680  0.1562 -0.3193
   97SAPS   C36 9702   1.282   5.550   7.297 -0.2432  0.2968 -0.2955
   97SAPS   H6X 9703   1.347   5.593   7.217 -0.1734 -0.6670 -0.7673
   97SAPS   H6Y 9704   1.344   5.509   7.380  0.0655  3.6476  1.2974
   97SAPS   C37 9705   1.212   5.667   7.360  0.3090  0.0311 -0.1715
   97SAPS   H7X 9706   1.124   5.685   7.295  0.6637 -0.3616 -0.7710
   97SAPS   H7Y 9707   1.269   5.760   7.341  0.6660 -0.3139 -0.8441
   97SAPS   C38 9708   1.168   5.649   7.510 -0.4264 -0.8543 -0.4213
   97SAPS   H8X 9709   1.115   5.552   7.524  0.2884 -1.4567 -1.7042
   97SAPS   H8Y 9710   1.099   5.736   7.518 -1.6071 -1.4461 -3.0239
   97SAPS   C39 9711   1.288   5.655   7.605 -0.1269 -0.3591 -0.5098
   97SAPS   H9X 9712   1.375   5.715   7.571 -1.4218  2.4742  0.8188
   97SAPS   H9Y 9713   1.332   5.556   7.630  3.2184  1.3517  1.0875
   97SAPS  C310 9714   1.250   5.714   7.746 -0.0335  0.1036 -0.0193
   97SAPS  H10X 9715   1.171   5.652   7.792 -0.8100  1.2897  0.2997
   97SAPS  H10Y 9716   1.203   5.814   7.730 -0.8488  0.0464  1.8246
   97SAPS  C311 9717   1.357   5.729   7.852 -0.4936 -0.3374  0.0968
   97SAPS  H11X 9718   1.436   5.790   7.803 -1.2753 -0.5035 -1.4439
   97SAPS  H11Y 9719   1.397   5.631   7.884 -1.5760 -0.9220 -0.2796
   97SAPS  C312 9720   1.300   5.798   7.977  0.2885 -0.2009 -0.1825
   97SAPS  H12X 9721   1.208   5.749   8.015  0.4750  0.9700  1.9546
   97SAPS  H12Y 9722   1.260   5.898   7.947 -2.7423 -1.3880 -0.4231
   97SAPS  C313 9723   1.396   5.797   8.095  0.3536  0.2136 -0.4893
   97SAPS  H13X 9724   1.499   5.824   8.062  0.2336  1.1322 -0.1337
   97SAPS  H13Y 9725   1.397   5.696   8.141 -0.2590  0.2964 -0.2901
   97SAPS  C314 9726   1.341   5.900   8.199  0.9599  0.1332 -0.7499
   97SAPS  H14X 9727   1.235   5.870   8.219  1.8943 -1.7975  2.0387
   97SAPS  H14Y 9728   1.338   6.006   8.166 -2.0577  0.3266 -0.1502
   97SAPS  C315 9729   1.414   5.899   8.333 -0.0975 -0.2011 -0.0771
   97SAPS  H15X 9730   1.517   5.935   8.315  1.1599 -3.2125  0.5159
   97SAPS  H15Y 9731   1.429   5.793   8.364  2.9204 -0.3666 -1.7703
   97SAPS  C316 9732   1.331   5.964   8.444  0.4977  0.0593  0.3786
   97SAPS  H16X 9733   1.349   5.917   8.543  2.2112 -0.7845 -0.3049
   97SAPS  H16Y 9734   1.226   5.928   8.432  1.0963 -2.2742  1.4712
   97SAPS  C317 9735   1.349   6.113   8.463 -0.1409  0.4836  0.7180
   97SAPS  H17X 9736   1.276   6.141   8.542 -0.3020  0.5411  0.5506
   97SAPS  H17Y 9737   1.311   6.159   8.369  0.1500  0.4870  0.6011
   97SAPS  C318 9738   1.492   6.156   8.502 -0.6835 -0.2886  0.3693
   97SAPS  H18X 9739   1.510   6.131   8.608  1.4189 -0.7198 -0.0332
   97SAPS  H18Y 9740   1.500   6.267   8.491 -0.2944 -0.4027 -0.6859
   97SAPS  H18Z 9741   1.569   6.113   8.434 -0.5742 -0.5285  0.6425
   98SAPS     N 9742   6.577   4.696   6.130  0.2592  0.2342  0.5417
   98SAPS   HN1 9743   6.491   4.643   6.108  0.5615 -0.7689  1.6496
   98SAPS   HN2 9744   6.631   4.649   6.206  1.7172 -2.6691 -2.0495
   98SAPS   HN3 9745   6.556   4.794   6.154  1.2294  0.4909  0.4043
   98SAPS   C12 9746   6.661   4.711   5.997  0.1041  0.3067  0.0531
   98SAPS  H12A 9747   6.742   4.640   5.987 -0.8133 -0.7246 -0.2203
   98SAPS   C13 9748   6.581   4.701   5.862  0.8667 -0.2541 -0.2849
   98SAPS  O13A 9749   6.450   4.704   5.877 -0.8682 -0.1916 -0.1095
   98SAPS  O13B 9750   6.627   4.745   5.757 -0.8511 -0.2941 -0.0615
   98SAPS   C11 9751   6.727   4.850   5.997 -0.1105  0.5294 -0.6940
   98SAPS  H11A 9752   6.649   4.927   6.013  0.2112  1.4344 -3.0846
   98SAPS  H11B 9753   6.769   4.870   5.896 -0.9041 -1.9228 -1.5851
   98SAPS     P 9754   6.930   4.974   6.113 -0.2183 -0.6132 -0.1344
   98SAPS   O13 9755   6.969   5.031   5.985 -0.5935  0.2844  0.3348
   98SAPS   O14 9756   6.875   5.067   6.220 -0.6237 -0.0095 -0.1546
   98SAPS   O12 9757   6.832   4.852   6.092 -0.2334 -0.3013  0.2210
   98SAPS   O11 9758   7.058   4.898   6.177 -0.6045 -0.4503  0.6300
   98SAPS    C1 9759   7.071   4.756   6.198  0.0181  0.5856 -0.5211
   98SAPS    HA 9760   7.045   4.702   6.105 -2.5587 -2.4263  1.7197
   98SAPS    HB 9761   7.178   4.734   6.216 -0.2799 -0.8349 -0.3124
   98SAPS    C2 9762   6.988   4.703   6.320  0.4486 -0.3530  0.0651
   98SAPS    HS 9763   6.883   4.710   6.284  1.0087  0.2586 -1.5605
   98SAPS   O21 9764   7.014   4.785   6.437 -0.3251  0.5972 -0.0757
   98SAPS   C21 9765   6.926   4.772   6.536 -0.5422 -0.4632 -0.1315
   98SAPS   O22 9766   6.818   4.713   6.537 -0.6359  0.2324 -0.3145
   98SAPS   C22 9767   6.975   4.870   6.645  0.1815  1.1212  0.0759
   98SAPS   H2R 9768   7.081   4.847   6.668 -0.4001 -1.3990  0.4694
   98SAPS   H2S 9769   6.963   4.969   6.597  1.0409 -0.6846 -4.3021
   98SAPS    C3 9770   7.008   4.554   6.347  0.3397 -0.6719  0.3918
   98SAPS    HX 9771   6.982   4.495   6.256 -3.1835 -0.8604  1.3731
   98SAPS    HY 9772   6.933   4.517   6.420  1.5449  0.2679  2.1629
   98SAPS   O31 9773   7.137   4.509   6.390 -0.3193 -0.1417  0.6201
   98SAPS   C31 9774   7.159   4.491   6.521 -0.2443  0.0668  0.1030
   98SAPS   O32 9775   7.079   4.497   6.609 -0.6516  0.4577  0.0039
   98SAPS   C32 9776   7.299   4.429   6.528 -0.0652  0.0520 -0.7699
   98SAPS   H2X 9777   7.360   4.470   6.444  0.2913 -1.0135 -1.0469
   98SAPS   H2Y 9778   7.277   4.324   6.502 -0.3613  0.0695 -0.5852
   98SAPS   C23 9779   6.893   4.873   6.771  0.7102  1.1780 -0.0699
   98SAPS   H3R 9780   6.784   4.866   6.751  0.2659  2.1671  1.7284
   98SAPS   H3S 9781   6.903   4.971   6.823 -1.4647  2.0984 -1.2748
   98SAPS   C24 9782   6.936   4.760   6.868  0.3495 -0.3379  0.3093
   98SAPS   H4R 9783   7.044   4.775   6.890  1.0190  0.3727 -2.9487
   98SAPS   H4S 9784   6.921   4.662   6.818 -1.2338  0.2411 -0.4147
   98SAPS   C25 9785   6.847   4.755   6.985 -0.3736  0.2373  0.2211
   98SAPS   H5R 9786   6.743   4.725   6.963 -0.8768  2.8067 -1.2993
   98SAPS   C26 9787   6.884   4.773   7.114  0.1967 -0.1458 -0.0156
   98SAPS   H6R 9788   6.808   4.758   7.192 -2.1098  0.3493 -2.0136
   98SAPS   C27 9789   7.024   4.816   7.155 -0.1883  0.2414 -0.5330
   98SAPS   H7R 9790   7.104   4.789   7.083 -0.4526 -1.8824 -0.0757
   98SAPS   H7S 9791   7.054   4.759   7.245 -2.3521  0.7113  0.5429
   98SAPS   C28 9792   7.042   4.965   7.187 -0.4112  0.6321  0.4559
   98SAPS   H8R 9793   7.084   5.021   7.102  1.9933 -1.7256 -0.0255
   98SAPS   C29 9794   7.012   5.025   7.301 -0.0346 -0.0364  0.1401
   98SAPS   H9R 9795   7.046   5.129   7.303  4.0719 -1.1856 -0.1270
   98SAPS  C210 9796   6.959   4.974   7.429 -0.1992 -0.3575  0.1628
   98SAPS  H10R 9797   6.926   4.868   7.424 -0.6884 -0.2303  0.6484
   98SAPS  H10S 9798   6.869   5.035   7.453  0.9150  2.2622 -1.8004
   98SAPS  C211 9799   7.066   4.958   7.537  0.4093 -0.4598 -0.2513
   98SAPS  H11R 9800   7.120   4.863   7.520  0.7645 -0.0984 -1.2420
   98SAPS  C212 9801   7.084   5.023   7.656  0.2264 -0.6303  0.3202
   98SAPS  H12R 9802   7.174   5.005   7.717  0.6962 -1.0719 -0.4948
   98SAPS  C213 9803   7.004   5.136   7.701 -0.6013 -0.7395  0.0207
   98SAPS  H13R 9804   7.017   5.140   7.812  0.5020 -2.0729 -0.0397
   98SAPS  H13S 9805   6.896   5.115   7.683 -0.6292 -1.5005  0.9466
   98SAPS  C214 9806   7.034   5.269   7.640 -0.7920  0.5309 -0.1741
   98SAPS  H14R 9807   7.040   5.281   7.531  1.7861  0.2402 -0.1350
   98SAPS  C215 9808   7.052   5.388   7.703 -0.2328  0.1573 -0.4924
   98SAPS  H15R 9809   7.089   5.476   7.648 -1.1228  0.1158 -1.1704
   98SAPS  C216 9810   7.047   5.405   7.855  0.1062 -0.4689  0.2257
   98SAPS  H16R 9811   6.991   5.324   7.908 -1.4534 -0.1333 -0.8330
   98SAPS  H16S 9812   6.984   5.494   7.874  3.1042  1.6893  0.6118
   98SAPS  C217 9813   7.182   5.401   7.934  0.0817 -0.3694  0.3423
   98SAPS  H17R 9814   7.238   5.309   7.906  2.6593  1.5894 -1.5643
   98SAPS  H17S 9815   7.164   5.400   8.043  0.0790  1.3358  0.3816
   98SAPS  C218 9816   7.275   5.517   7.910 -0.3916 -0.1443 -0.3081
   98SAPS  H18R 9817   7.294   5.522   7.801 -1.9637 -0.3402 -0.6172
   98SAPS  H18S 9818   7.375   5.493   7.951 -0.6441 -1.9982 -0.6799
   98SAPS  C219 9819   7.213   5.652   7.957 -0.7519 -0.2355  0.3642
   98SAPS  H19R 9820   7.110   5.668   7.918  0.0169  1.5205 -1.1221
   98SAPS  H19S 9821   7.252   5.741   7.902 -0.5407 -0.1154  0.7038
   98SAPS  C220 9822   7.236   5.669   8.101  0.2880 -0.1099  0.3103
   98SAPS  H20R 9823   7.215   5.774   8.128  0.8496  0.4981 -1.4735
   98SAPS  H20S 9824   7.341   5.645   8.127  0.4932  1.3858  0.9671
   98SAPS  H20T 9825   7.166   5.608   8.162  0.7990  0.1894  1.2063
   98SAPS   C33 9826   7.371   4.446   6.663 -0.1140 -0.2136 -0.0988
   98SAPS   H3X 9827   7.304   4.419   6.748 -0.9634  2.0488  0.0201
   98SAPS   H3Y 9828   7.400   4.552   6.677  2.4034 -0.6578 -1.3278
   98SAPS   C34 9829   7.493   4.352   6.680  0.0213  0.0592 -0.1975
   98SAPS   H4X 9830   7.564   4.359   6.594 -0.9083  0.4155 -0.9523
   98SAPS   H4Y 9831   7.448   4.250   6.687 -2.2469  1.0781  1.1550
   98SAPS   C35 9832   7.586   4.374   6.801  0.3392  0.0500 -0.1984
   98SAPS   H5X 9833   7.591   4.484   6.818 -1.1909 -0.0013  0.7968
   98SAPS   H5Y 9834   7.689   4.334   6.784  0.2334 -0.1173 -0.4445
   98SAPS   C36 9835   7.523   4.317   6.923  0.8322  0.2552 -1.1970
   98SAPS   H6X 9836   7.546   4.209   6.935  0.4770  0.4396  1.8284
   98SAPS   H6Y 9837   7.413   4.319   6.930  0.8377  0.5985 -1.2041
   98SAPS   C37 9838   7.570   4.382   7.052  0.0379 -0.3166  0.0401
   98SAPS   H7X 9839   7.528   4.484   7.051 -1.0193 -0.7343 -0.8821
   98SAPS   H7Y 9840   7.681   4.388   7.054  0.0264 -0.0815 -0.0641
   98SAPS   C38 9841   7.510   4.318   7.172  0.5551 -0.3016 -0.2641
   98SAPS   H8X 9842   7.517   4.208   7.158  0.8220 -0.6599  2.1833
   98SAPS   H8Y 9843   7.402   4.345   7.175  1.0347  1.7621  0.3125
   98SAPS   C39 9844   7.574   4.375   7.299 -0.5720  0.3280  0.4104
   98SAPS   H9X 9845   7.591   4.483   7.284 -0.7775  0.3199  0.1133
   98SAPS   H9Y 9846   7.674   4.327   7.296 -0.0683  1.3172  1.0151
   98SAPS  C310 9847   7.489   4.344   7.420 -0.2958 -0.4324  0.6693
   98SAPS  H10X 9848   7.447   4.241   7.424  0.5235 -0.7473  2.8003
   98SAPS  H10Y 9849   7.397   4.405   7.424 -0.1736 -0.0243 -1.6033
   98SAPS  C311 9850   7.566   4.388   7.547  0.2115 -0.4346  0.3116
   98SAPS  H11X 9851   7.580   4.497   7.554  1.6197 -0.4092 -1.9795
   98SAPS  H11Y 9852   7.665   4.339   7.550  2.3256  3.5044  0.2449
   98SAPS  C312 9853   7.489   4.335   7.672  0.1638 -0.0295 -0.3642
   98SAPS  H12X 9854   7.508   4.226   7.676 -2.5400 -0.5460  0.2619
   98SAPS  H12Y 9855   7.380   4.353   7.663  0.2895  0.2978 -1.3743
   98SAPS  C313 9856   7.515   4.417   7.804  0.2836  0.0788  0.3843
   98SAPS  H13X 9857   7.451   4.362   7.875  1.2933 -0.4355  0.9259
   98SAPS  H13Y 9858   7.478   4.522   7.806 -1.6274 -0.5703  1.7046
   98SAPS  C314 9859   7.662   4.406   7.858  0.6179  0.1416  0.1905
   98SAPS  H14X 9860   7.730   4.450   7.782  1.5082  2.8196  2.3590
   98SAPS  H14Y 9861   7.678   4.297   7.866  0.7952  0.1922  0.5229
   98SAPS  C315 9862   7.686   4.481   7.988 -0.2754  0.1181 -0.6278
   98SAPS  H15X 9863   7.616   4.439   8.063  0.6415  2.5261  1.7452
   98SAPS  H15Y 9864   7.652   4.587   7.984 -0.3249  0.1052 -0.5310
   98SAPS  C316 9865   7.832   4.475   8.035 -0.4666  0.6296  1.1368
   98SAPS  H16X 9866   7.891   4.509   7.947 -2.3242  1.1945  0.0473
   98SAPS  H16Y 9867   7.872   4.382   8.081 -0.1574  0.8779  1.3677
   98SAPS  C317 9868   7.873   4.593   8.131  1.0293  0.1411 -0.0854
   98SAPS  H17X 9869   7.844   4.690   8.084  4.1147  1.4603  0.5151
   98SAPS  H17Y 9870   7.984   4.586   8.136  1.0311  0.2070 -0.0155
   98SAPS  C318 9871   7.813   4.575   8.267  0.1178 -1.0026  0.1057
   98SAPS  H18X 9872   7.824   4.666   8.330  2.2798 -0.9150 -0.3273
   98SAPS  H18Y 9873   7.858   4.489   8.321  0.9834 -0.6124  0.0107
   98SAPS  H18Z 9874   7.701   4.578   8.265  0.1188  0.0717  0.5713
   99SAPS     N 9875   4.531   1.793   6.241  0.2364  0.5168  1.0364
   99SAPS   HN1 9876   4.476   1.878   6.267 -1.5587 -0.2381 -0.0700
   99SAPS   HN2 9877   4.515   1.713   6.306  1.4287 -0.4962  0.1148
   99SAPS   HN3 9878   4.634   1.804   6.243  0.1385  2.1325 -0.3704
   99SAPS   C12 9879   4.499   1.760   6.100 -0.9186  0.0539 -0.4160
   99SAPS  H12A 9880   4.395   1.734   6.096 -0.1770 -3.9067  1.2594
   99SAPS   C13 9881   4.508   1.877   6.007 -0.2972  0.2503 -0.0162
   99SAPS  O13A 9882   4.525   1.992   6.051 -0.2708 -0.0817  0.6519
   99SAPS  O13B 9883   4.512   1.842   5.888 -0.2874  0.5348  0.8172
   99SAPS   C11 9884   4.596   1.643   6.048  0.3466  0.0310 -1.0454
   99SAPS  H11A 9885   4.702   1.673   6.051  0.8483 -1.4799  2.9298
   99SAPS  H11B 9886   4.563   1.616   5.945 -0.8656 -0.7163 -0.4919
   99SAPS     P 9887   4.642   1.391   6.077 -0.1813  0.0735 -0.0879
   99SAPS   O13 9888   4.594   1.366   5.941  0.7971 -0.3331 -0.0398
   99SAPS   O14 9889   4.787   1.369   6.098 -0.4367 -0.1499 -0.2437
   99SAPS   O12 9890   4.592   1.525   6.131 -0.3298  0.5850 -0.5663
   99SAPS   O11 9891   4.561   1.287   6.160  0.0108  0.2941  0.3072
   99SAPS    C1 9892   4.450   1.322   6.249  0.6331  0.5752 -0.6482
   99SAPS    HA 9893   4.400   1.419   6.231  3.2349  1.8596 -1.5256
   99SAPS    HB 9894   4.376   1.241   6.237  1.7939 -0.6090 -0.1339
   99SAPS    C2 9895   4.499   1.302   6.396 -0.1209  0.1965 -0.9534
   99SAPS    HS 9896   4.410   1.311   6.463  0.0168 -0.2149 -0.7092
   99SAPS   O21 9897   4.614   1.390   6.421 -0.9913  0.1805  0.4955
   99SAPS   C21 9898   4.596   1.519   6.430  0.0429 -0.3022  0.2344
   99SAPS   O22 9899   4.492   1.580   6.405 -0.1068 -0.0224  0.4532
   99SAPS   C22 9900   4.724   1.588   6.485  0.4598 -0.9675 -0.1069
   99SAPS   H2R 9901   4.795   1.600   6.400 -0.3059  1.1123 -0.5095
   99SAPS   H2S 9902   4.703   1.688   6.527  0.7681 -0.2447 -1.5831
   99SAPS    C3 9903   4.558   1.158   6.417  0.2376  0.4218 -0.6945
   99SAPS    HX 9904   4.627   1.142   6.332 -1.0620  0.0734 -1.7273
   99SAPS    HY 9905   4.463   1.105   6.393  0.5853  0.2786 -1.8332
   99SAPS   O31 9906   4.603   1.123   6.550  0.8299  0.0645 -0.0410
   99SAPS   C31 9907   4.734   1.104   6.557 -0.6443 -0.7247  0.3067
   99SAPS   O32 9908   4.814   1.116   6.464 -0.1153  0.1529 -0.1545
   99SAPS   C32 9909   4.777   1.054   6.695 -0.5586  0.2257 -0.1602
   99SAPS   H2X 9910   4.863   0.990   6.669 -0.0594  0.9622 -0.3471
   99SAPS   H2Y 9911   4.695   0.987   6.732 -0.2460 -0.2630 -0.3477
   99SAPS   C23 9912   4.800   1.504   6.594 -0.2669 -0.2177  0.0096
   99SAPS   H3R 9913   4.907   1.530   6.580  0.2552 -1.3618  1.5965
   99SAPS   H3S 9914   4.800   1.395   6.574  1.3952 -1.0214  3.5700
   99SAPS   C24 9915   4.756   1.523   6.741 -0.2167 -0.5519 -0.6078
   99SAPS   H4R 9916   4.782   1.624   6.777 -1.0262 -0.4724 -0.2388
   99SAPS   H4S 9917   4.810   1.449   6.804 -0.1345  0.5114  0.6169
   99SAPS   C25 9918   4.602   1.502   6.759 -0.0578 -0.0030 -0.0084
   99SAPS   H5R 9919   4.564   1.439   6.678  1.2499  0.2715 -0.8758
   99SAPS   C26 9920   4.533   1.562   6.862  0.3614 -0.1691 -0.5648
   99SAPS   H6R 9921   4.424   1.553   6.875  0.3467  2.3737  1.7171
   99SAPS   C27 9922   4.597   1.653   6.962 -0.0227 -0.5150  0.0890
   99SAPS   H7R 9923   4.683   1.708   6.918 -0.6237 -0.8669 -1.5817
   99SAPS   H7S 9924   4.640   1.584   7.038 -2.0188 -2.2922 -0.3205
   99SAPS   C28 9925   4.494   1.747   7.015  0.4113  0.4115  0.7137
   99SAPS   H8R 9926   4.457   1.820   6.941  0.8094 -0.1686 -0.0869
   99SAPS   C29 9927   4.450   1.763   7.138  0.1565  0.1392 -0.1825
   99SAPS   H9R 9928   4.375   1.840   7.162 -1.9938 -1.9478  0.2097
   99SAPS  C210 9929   4.499   1.678   7.254  1.1923 -0.6422  0.2201
   99SAPS  H10R 9930   4.508   1.573   7.219  2.3694 -0.2877 -0.5920
   99SAPS  H10S 9931   4.428   1.682   7.339  0.9327  1.0299 -0.0360
   99SAPS  C211 9932   4.642   1.722   7.292  0.7134  0.2757 -0.2740
   99SAPS  H11R 9933   4.713   1.730   7.209  1.1413 -0.9535 -0.0569
   99SAPS  C212 9934   4.686   1.711   7.414  0.8393 -0.3326 -0.9725
   99SAPS  H12R 9935   4.788   1.747   7.430  0.6886  0.9995 -2.7385
   99SAPS  C213 9936   4.611   1.668   7.540  0.5502  0.0994 -0.0983
   99SAPS  H13R 9937   4.672   1.585   7.581  4.2870  1.9575 -1.4220
   99SAPS  H13S 9938   4.510   1.629   7.516  0.3455  1.5403 -1.8514
   99SAPS  C214 9939   4.592   1.770   7.646 -0.3213  0.1977 -0.5718
   99SAPS  H14R 9940   4.615   1.873   7.619  0.2391 -0.6423 -3.6073
   99SAPS  C215 9941   4.546   1.739   7.766  0.3831 -0.0264  0.1429
   99SAPS  H15R 9942   4.543   1.816   7.845  1.2385 -0.2633  0.4176
   99SAPS  C216 9943   4.490   1.605   7.812 -0.4759 -0.4820  0.3682
   99SAPS  H16R 9944   4.521   1.522   7.745  0.7458 -0.7904  1.2817
   99SAPS  H16S 9945   4.379   1.608   7.806 -0.6145 -1.2892  2.0669
   99SAPS  C217 9946   4.555   1.571   7.947  0.1381  0.5652  0.6630
   99SAPS  H17R 9947   4.663   1.557   7.926 -0.1038 -0.3706 -0.0142
   99SAPS  H17S 9948   4.534   1.464   7.970  0.7017  0.6035  1.4160
   99SAPS  C218 9949   4.500   1.647   8.072 -0.1210 -0.6758  0.2810
   99SAPS  H18R 9950   4.500   1.757   8.059 -0.3451 -0.9148 -2.3241
   99SAPS  H18S 9951   4.569   1.617   8.154  0.8558 -0.8222 -0.5688
   99SAPS  C219 9952   4.359   1.614   8.123 -0.8313  0.9089  0.2585
   99SAPS  H19R 9953   4.334   1.510   8.094  0.5827  0.6626 -0.1650
   99SAPS  H19S 9954   4.290   1.673   8.059  0.6279  0.1496 -2.1599
   99SAPS  C220 9955   4.351   1.631   8.274 -0.7549 -0.2893  1.2176
   99SAPS  H20R 9956   4.411   1.550   8.321  3.0109  1.1182 -0.8102
   99SAPS  H20S 9957   4.243   1.614   8.296 -1.4268  1.8167 -0.2371
   99SAPS  H20T 9958   4.382   1.736   8.288 -0.8420  0.0447 -0.8525
   99SAPS   C33 9959   4.798   1.162   6.797  0.7407  0.0435  0.2931
   99SAPS   H3X 9960   4.710   1.228   6.812  1.1436  0.6650 -0.0321
   99SAPS   H3Y 9961   4.878   1.232   6.764  1.3254 -0.7013  0.1159
   99SAPS   C34 9962   4.826   1.109   6.935 -0.2709  0.0578 -0.6088
   99SAPS   H4X 9963   4.892   1.020   6.923 -0.7080 -0.6790  1.8410
   99SAPS   H4Y 9964   4.738   1.057   6.979 -2.1103  2.5442 -1.1251
   99SAPS   C35 9965   4.898   1.208   7.034 -0.3260 -0.0649  0.0836
   99SAPS   H5X 9966   4.829   1.296   7.040 -3.1956 -2.2780  2.5272
   99SAPS   H5Y 9967   5.000   1.237   7.001 -0.8087  2.5330  0.5994
   99SAPS   C36 9968   4.898   1.144   7.175  0.3859 -0.2785 -0.2524
   99SAPS   H6X 9969   4.975   1.063   7.174 -1.4493 -2.1268  0.2375
   99SAPS   H6Y 9970   4.793   1.116   7.194 -0.4871  2.1722 -1.1264
   99SAPS   C37 9971   4.934   1.252   7.287 -0.5662 -0.3868  0.3137
   99SAPS   H7X 9972   4.865   1.334   7.256 -0.6124 -1.3801 -2.3992
   99SAPS   H7Y 9973   5.038   1.289   7.276 -1.6373  2.4756 -1.3892
   99SAPS   C38 9974   4.913   1.196   7.431 -0.3827  0.5342  0.0357
   99SAPS   H8X 9975   4.980   1.112   7.459 -1.5649 -0.6320 -0.5324
   99SAPS   H8Y 9976   4.814   1.147   7.430  0.3973 -1.2341 -2.9817
   99SAPS   C39 9977   4.930   1.297   7.542  0.7444  0.0769  0.0095
   99SAPS   H9X 9978   4.875   1.388   7.512 -2.8257 -2.4607 -1.9850
   99SAPS   H9Y 9979   5.039   1.308   7.561  1.2290 -3.7606  0.2765
   99SAPS  C310 9980   4.875   1.237   7.671  0.2197 -0.1802 -0.3162
   99SAPS  H10X 9981   4.913   1.134   7.685  0.5643  0.0614  0.5665
   99SAPS  H10Y 9982   4.764   1.235   7.666  0.2259 -0.5346 -0.3639
   99SAPS  C311 9983   4.920   1.321   7.792  0.3787 -0.0634  0.2692
   99SAPS  H11X 9984   4.918   1.425   7.752 -1.7191 -0.5904 -1.1325
   99SAPS  H11Y 9985   5.014   1.291   7.842  0.9689 -2.8406 -2.2453
   99SAPS  C312 9986   4.824   1.321   7.912 -0.5683  0.7915  0.0404
   99SAPS  H12X 9987   4.724   1.360   7.884 -0.3161  1.8719  0.5772
   99SAPS  H12Y 9988   4.858   1.392   7.990 -2.2724  0.1593  1.4146
   99SAPS  C313 9989   4.817   1.182   7.971 -0.3064  0.3876  0.1885
   99SAPS  H13X 9990   4.916   1.131   7.971 -0.7010 -0.4811  2.0672
   99SAPS  H13Y 9991   4.753   1.121   7.904  0.0996 -0.6062  0.6832
   99SAPS  C314 9992   4.775   1.181   8.118  0.6167  0.3601 -0.8068
   99SAPS  H14X 9993   4.670   1.214   8.127  0.6225  0.1838 -0.0437
   99SAPS  H14Y 9994   4.839   1.245   8.182 -0.9808 -0.3146  1.5985
   99SAPS  C315 9995   4.765   1.040   8.185  0.1783  0.4199 -1.1544
   99SAPS  H15X 9996   4.690   0.981   8.128 -1.4830  1.1235  0.2368
   99SAPS  H15Y 9997   4.729   1.052   8.289  0.2013 -0.2550 -1.0644
   99SAPS  C316 9998   4.895   0.964   8.178  0.6167  0.1166 -0.6918
   99SAPS  H16X 9999   4.974   1.027   8.225 -0.5386  0.2794  1.1510
   99SAPS  H16Y10000   4.929   0.955   8.073  1.0070 -2.3153 -0.4113
   99SAPS  C31710001   4.898   0.817   8.217  0.2651  0.1008  0.0532
   99SAPS  H17X10002   4.987   0.773   8.166 -0.1855 -0.9054  0.1124
   99SAPS  H17Y10003   4.806   0.772   8.174 -0.0345  0.9460 -0.2177
   99SAPS  C31810004   4.895   0.792   8.364  0.0482 -0.1412  0.7433
   99SAPS  H18X10005   4.806   0.839   8.413 -0.5032 -2.3265  1.9986
   99SAPS  H18Y10006   4.987   0.824   8.418  2.0049 -0.1221 -2.3963
   99SAPS  H18Z10007   4.889   0.683   8.382 -2.7755  0.3980  4.5074
  100SAPS     N10008   1.274   2.181   6.210 -0.5051  0.0585  0.1919
  100SAPS   HN110009   1.252   2.109   6.138 -0.5049 -0.6751  0.9053
  100SAPS   HN210010   1.376   2.198   6.222 -0.1443 -1.2904 -0.8141
  100SAPS   HN310011   1.233   2.147   6.300  0.4665 -1.6434  0.0358
  100SAPS   C1210012   1.201   2.292   6.151 -0.0662  0.4078 -0.4263
  100SAPS  H12A10013   1.261   2.330   6.070 -3.4153  0.5825 -3.0430
  100SAPS   C1310014   1.073   2.240   6.092  0.4557 -0.4429  0.3341
  100SAPS  O13A10015   1.050   2.119   6.088  0.0679 -0.4923 -0.3198
  100SAPS  O13B10016   1.000   2.323   6.028 -0.1850 -0.4760 -0.4642
  100SAPS   C1110017   1.185   2.397   6.270  0.0946 -0.3825 -1.3142
  100SAPS  H11A10018   1.135   2.485   6.223  0.5228  1.3107  1.2385
  100SAPS  H11B10019   1.283   2.436   6.304 -0.6326  1.0762 -0.8231
  100SAPS     P10020   0.992   2.430   6.442 -0.2149 -0.3901 -0.1602
  100SAPS   O1310021   0.949   2.533   6.345 -0.2785  0.2591 -0.1849
  100SAPS   O1410022   0.891   2.346   6.512 -0.6360  0.3409  0.4824
  100SAPS   O1210023   1.101   2.337   6.370  0.3457  0.0396 -0.2916
  100SAPS   O1110024   1.083   2.495   6.550  0.3404  0.1707 -0.5984
  100SAPS    C110025   1.202   2.424   6.600 -0.5739 -0.0255  0.2023
  100SAPS    HA10026   1.181   2.316   6.613  1.7888 -1.3823 -4.8786
  100SAPS    HB10027   1.287   2.429   6.528 -0.8887 -2.2659 -0.3877
  100SAPS    C210028   1.235   2.482   6.743 -0.4355  0.0368  0.2216
  100SAPS    HS10029   1.252   2.592   6.739  0.1426 -0.0446  0.4230
  100SAPS   O2110030   1.354   2.424   6.800 -0.4282 -0.1263  0.3395
  100SAPS   C2110031   1.468   2.471   6.751  0.1422  0.0604  0.2786
  100SAPS   O2210032   1.477   2.561   6.671  0.5549 -0.0191  0.1022
  100SAPS   C2210033   1.586   2.407   6.811  1.0576 -0.2705  0.9590
  100SAPS   H2R10034   1.589   2.297   6.795  2.1009 -0.2564  1.0189
  100SAPS   H2S10035   1.676   2.454   6.768 -0.4286  1.3394 -0.5374
  100SAPS    C310036   1.118   2.464   6.840  0.3599  0.1293 -0.1911
  100SAPS    HX10037   1.074   2.362   6.833  1.4088 -0.5428  1.8791
  100SAPS    HY10038   1.035   2.527   6.802 -0.4927  0.1743  1.6178
  100SAPS   O3110039   1.155   2.495   6.977  0.6632  0.2975 -0.3895
  100SAPS   C3110040   1.173   2.617   7.013 -0.3218 -0.2540  0.1075
  100SAPS   O3210041   1.162   2.717   6.945 -0.1341 -0.3923 -0.2899
  100SAPS   C3210042   1.215   2.618   7.162 -0.1848  0.5049  0.6055
  100SAPS   H2X10043   1.283   2.531   7.173 -0.9485 -0.2671 -0.4936
  100SAPS   H2Y10044   1.118   2.598   7.213 -0.6565  0.0061 -0.4327
  100SAPS   C2310045   1.583   2.417   6.973  0.1495 -0.0039  0.1631
  100SAPS   H3R10046   1.658   2.349   7.019  1.4658  1.5238  0.3774
  100SAPS   H3S10047   1.483   2.388   7.012 -0.8081  4.3467  1.5979
  100SAPS   C2410048   1.608   2.563   7.028 -0.2843 -0.5351 -0.5463
  100SAPS   H4R10049   1.616   2.547   7.138 -0.4129 -1.7530 -0.7069
  100SAPS   H4S10050   1.522   2.633   7.031 -0.5393 -0.7380  3.8603
  100SAPS   C2510051   1.729   2.637   6.977 -0.0818  0.6496  0.0954
  100SAPS   H5R10052   1.720   2.645   6.867  2.0865  0.8949 -0.1050
  100SAPS   C2610053   1.840   2.674   7.037  0.1153 -0.8044 -0.6885
  100SAPS   H6R10054   1.921   2.731   6.990 -0.8500  1.2290 -0.0021
  100SAPS   C2710055   1.865   2.667   7.184  0.2915  0.0861  0.1244
  100SAPS   H7R10056   1.973   2.679   7.207  0.5011  0.2287 -0.8845
  100SAPS   H7S10057   1.860   2.565   7.228  0.6382  0.6818  1.6134
  100SAPS   C2810058   1.784   2.760   7.278 -0.0822  0.3014 -0.1126
  100SAPS   H8R10059   1.701   2.817   7.233 -1.0059 -1.1153 -0.2802
  100SAPS   C2910060   1.812   2.767   7.409  0.4539  0.2626  0.2807
  100SAPS   H9R10061   1.752   2.826   7.479  0.7573  0.6545  0.2167
  100SAPS  C21010062   1.922   2.693   7.480  0.4603 -0.3738 -0.0790
  100SAPS  H10R10063   1.939   2.738   7.580  0.9095 -2.5714  0.8961
  100SAPS  H10S10064   2.021   2.710   7.433  0.6104  0.2614  0.4618
  100SAPS  C21110065   1.896   2.548   7.493 -0.5018  0.2545 -0.7334
  100SAPS  H11R10066   1.856   2.500   7.403  2.9247  0.3049 -2.4639
  100SAPS  C21210067   1.898   2.473   7.606  0.6167 -0.0293 -0.0107
  100SAPS  H12R10068   1.876   2.368   7.586 -2.1129  0.9306 -2.7088
  100SAPS  C21310069   1.927   2.519   7.750  0.0642 -0.2145 -0.0182
  100SAPS  H13R10070   2.010   2.590   7.733  0.8329 -1.7248 -3.5865
  100SAPS  H13S10071   1.970   2.434   7.808  0.7521  0.0368 -0.1496
  100SAPS  C21410072   1.797   2.577   7.819  0.2097 -0.0915 -0.2909
  100SAPS  H14R10073   1.713   2.563   7.749  2.0602  1.6494 -3.0860
  100SAPS  C21510074   1.783   2.623   7.944 -0.3908 -0.3915 -0.2418
  100SAPS  H15R10075   1.685   2.655   7.982 -0.4442  0.3503 -0.9804
  100SAPS  C21610076   1.911   2.634   8.036  0.5010  0.6147  0.3133
  100SAPS  H16R10077   1.925   2.744   8.045 -2.7314  1.1974 -0.5062
  100SAPS  H16S10078   2.004   2.594   7.992  0.4011  2.1348 -1.3924
  100SAPS  C21710079   1.879   2.567   8.171  0.0616 -0.1266 -0.0175
  100SAPS  H17R10080   1.850   2.464   8.141  0.9456 -0.1919 -0.7010
  100SAPS  H17S10081   1.803   2.616   8.235  2.0280  2.6851  0.3303
  100SAPS  C21810082   2.007   2.547   8.250 -0.3345 -0.9132  0.2906
  100SAPS  H18R10083   2.085   2.504   8.182  0.3970  0.4510  0.2213
  100SAPS  H18S10084   1.991   2.482   8.339  2.1064 -1.5032  0.3748
  100SAPS  C21910085   2.059   2.676   8.309  0.3708 -0.4376 -0.2482
  100SAPS  H19R10086   1.979   2.732   8.362 -0.8001  0.2021 -2.5509
  100SAPS  H19S10087   2.087   2.752   8.233  0.5754  0.3758  0.6165
  100SAPS  C22010088   2.184   2.645   8.395  0.2638  0.5505  0.7564
  100SAPS  H20R10089   2.276   2.648   8.332  0.3375 -1.6393  0.6786
  100SAPS  H20S10090   2.172   2.545   8.442  0.5446 -1.2498 -2.6793
  100SAPS  H20T10091   2.198   2.713   8.481 -0.1921  1.5644  0.0489
  100SAPS   C3310092   1.285   2.752   7.200  0.6378  0.4277  0.3528
  100SAPS   H3X10093   1.209   2.831   7.182  1.0031  0.5034 -0.9773
  100SAPS   H3Y10094   1.369   2.779   7.132  1.1183 -1.2681  0.2391
  100SAPS   C3410095   1.308   2.779   7.349 -0.0997  0.1546  0.1308
  100SAPS   H4X10096   1.210   2.800   7.395  0.2270  0.4726  0.6896
  100SAPS   H4Y10097   1.370   2.872   7.353  0.3203 -0.1128 -0.0548
  100SAPS   C3510098   1.383   2.671   7.428  0.4794  0.0329 -0.0768
  100SAPS   H5X10099   1.472   2.640   7.369  2.0026  3.0629  0.4220
  100SAPS   H5Y10100   1.314   2.584   7.433  0.5816 -0.1728 -1.6633
  100SAPS   C3610101   1.426   2.711   7.568  0.0615 -0.2558  0.3879
  100SAPS   H6X10102   1.488   2.803   7.563 -1.3754  0.7443  0.4130
  100SAPS   H6Y10103   1.491   2.627   7.600 -1.4400 -2.0248 -0.9582
  100SAPS   C3710104   1.322   2.723   7.678  0.1116  0.8507 -0.1656
  100SAPS   H7X10105   1.267   2.628   7.694 -0.7489  1.0652 -1.6993
  100SAPS   H7Y10106   1.251   2.807   7.665 -0.0902  0.5502 -1.0381
  100SAPS   C3810107   1.394   2.747   7.813 -0.3490  0.2972 -0.0705
  100SAPS   H8X10108   1.440   2.847   7.830 -1.0731  0.2995  2.3336
  100SAPS   H8Y10109   1.477   2.675   7.833 -1.3545 -0.3684  1.9706
  100SAPS   C3910110   1.291   2.722   7.925 -0.7758 -0.5162 -1.0429
  100SAPS   H9X10111   1.231   2.630   7.904 -0.2890 -1.5605  1.7310
  100SAPS   H9Y10112   1.226   2.812   7.922  0.7049  0.6251  0.0612
  100SAPS  C31010113   1.361   2.707   8.056  0.1711  0.5725 -0.3592
  100SAPS  H10X10114   1.424   2.798   8.064 -0.6696  1.1926 -0.7137
  100SAPS  H10Y10115   1.440   2.628   8.059  0.9748  1.3855  1.4760
  100SAPS  C31110116   1.263   2.685   8.172  0.2101  0.1744 -0.4318
  100SAPS  H11X10117   1.184   2.611   8.149 -0.5580  1.3515 -1.7286
  100SAPS  H11Y10118   1.220   2.786   8.187  1.0653  0.3539  1.0724
  100SAPS  C31210119   1.331   2.633   8.301 -0.3672  0.5189  0.7833
  100SAPS  H12X10120   1.250   2.615   8.375 -2.4208  2.8219 -0.7501
  100SAPS  H12Y10121   1.395   2.712   8.345 -2.9691  2.4099  1.3840
  100SAPS  C31310122   1.402   2.502   8.287  0.5720  0.0214  0.5656
  100SAPS  H13X10123   1.450   2.495   8.387 -0.9165  0.2209  1.3279
  100SAPS  H13Y10124   1.484   2.510   8.212 -2.1627 -0.7190 -2.7395
  100SAPS  C31410125   1.332   2.378   8.250  0.5271  0.0008  0.0333
  100SAPS  H14X10126   1.309   2.378   8.142  1.5929 -2.3563 -0.2677
  100SAPS  H14Y10127   1.249   2.359   8.322  1.2192 -2.3000  0.3028
  100SAPS  C31510128   1.429   2.253   8.254 -0.2555  0.2820 -0.0305
  100SAPS  H15X10129   1.466   2.242   8.359 -1.0945 -1.6376  0.0946
  100SAPS  H15Y10130   1.511   2.286   8.187 -0.8765  0.7768 -0.5610
  100SAPS  C31610131   1.371   2.118   8.213 -0.0000 -0.6668 -0.7683
  100SAPS  H16X10132   1.341   2.129   8.107  1.2757 -0.8682 -1.1646
  100SAPS  H16Y10133   1.289   2.117   8.287  0.6378  3.0139  0.2127
  100SAPS  C31710134   1.462   2.001   8.243 -0.0606  0.1048  0.0340
  100SAPS  H17X10135   1.459   1.992   8.353 -0.4608  0.3481  0.0445
  100SAPS  H17Y10136   1.572   2.013   8.237  0.2373 -2.3918 -0.6504
  100SAPS  C31810137   1.415   1.871   8.181 -0.5533 -0.4184 -0.4570
  100SAPS  H18X10138   1.304   1.862   8.190 -0.3457 -1.9682  1.0190
  100SAPS  H18Y10139   1.456   1.778   8.225 -1.7303 -0.4280  0.6823
  100SAPS  H18Z10140   1.439   1.876   8.073 -0.4280 -2.4302 -0.5572
  101OSM      N10141   3.341   2.076  11.205 -0.2106 -0.2769 -0.4168
  101OSM    C1510142   3.228   2.055  11.306  0.4870 -0.5761 -0.0734
  101OSM   H15A10143   3.278   1.998  11.384  0.0648 -1.1835 -0.2391
  101OSM   H15B10144   3.145   2.003  11.261 -0.0579 -0.8078  1.1843
  101OSM   H15C10145   3.174   2.142  11.339 -2.8150 -2.8717  1.0343
  101OSM    C1410146   3.448   2.155  11.268 -0.1638 -0.5415 -0.0271
  101OSM   H14A10147   3.535   2.159  11.204  0.9318  1.6681  1.4818
  101OSM   H14B10148   3.483   2.102  11.355  1.5574  0.2375 -0.2050
  101OSM   H14C10149   3.428   2.256  11.300 -1.9565 -1.5704  2.3533
  101OSM    C1310150   3.390   1.934  11.181 -0.2513  0.0347 -0.0793
  101OSM   H13A10151   3.305   1.883  11.138 -2.1782  1.2993  2.0026
  101OSM   H13B10152   3.404   1.874  11.270 -1.1962 -0.3304 -0.1657
  101OSM   H13C10153   3.479   1.925  11.119  0.0975 -0.2463  0.4587
  101OSM    C1210154   3.293   2.142  11.079  0.0144 -0.0242 -0.0060
  101OSM   H12A10155   3.373   2.169  11.011 -1.1597  0.8829 -1.0988
  101OSM   H12B10156   3.243   2.233  11.109  1.4437  1.1102 -0.9293
  101OSM    C1110157   3.189   2.060  10.994  0.7400  0.3176  0.2565
  101OSM   H11A10158   3.235   1.961  10.972  0.4337  0.1732  0.2523
  101OSM   H11B10159   3.174   2.122  10.903 -0.0945 -1.2688 -0.7341
  101OSM      P10160   2.985   1.918  11.068 -0.2816  0.0998 -0.0452
  101OSM    O1310161   3.075   1.834  11.142 -0.2400  0.3001 -0.5525
  101OSM    O1410162   2.861   1.941  11.146 -0.2894  0.3706 -0.6741
  101OSM    O1110163   2.960   1.879  10.916  0.3479 -0.3273  0.3599
  101OSM    O1210164   3.064   2.054  11.061 -0.0387 -0.6319 -0.5346
  101OSM    C1S10165   2.899   1.954  10.813  0.3742 -0.6750 -0.1537
  101OSM    H1S10166   2.877   2.058  10.844 -2.8458 -0.0193 -3.8960
  101OSM    H1T10167   2.808   1.905  10.773  0.1038  0.4936 -1.0319
  101OSM     NF10168   2.948   2.044  10.583  0.1293  0.4278  0.0903
  101OSM    HNF10169   2.907   1.992  10.508 -0.4248  2.4320 -1.0773
  101OSM    C2S10170   3.001   1.968  10.695  0.0233  0.1696 -0.4344
  101OSM    H2S10171   3.096   2.018  10.722  0.6582 -1.0661 -0.3090
  101OSM    C3S10172   3.046   1.826  10.651 -0.4990  0.2138  0.8562
  101OSM    H3S10173   2.945   1.783  10.634 -1.7754  3.1029  0.5849
  101OSM     O310174   3.103   1.747  10.751 -0.3736 -0.0447  0.2542
  101OSM    HO310175   3.031   1.752  10.814  0.1899  0.6856  0.8570
  101OSM    C4S10176   3.133   1.834  10.526  0.0929  0.6437 -0.1383
  101OSM    H4S10177   3.080   1.817  10.432 -0.1530  2.5548 -0.3857
  101OSM    C5S10178   3.266   1.857  10.518 -0.1162  0.3635 -0.0706
  101OSM    H5S10179   3.321   1.887  10.608 -0.6625 -0.6978  0.6360
  101OSM    C6S10180   3.347   1.856  10.389  0.5001  0.3452 -0.3422
  101OSM    H6S10181   3.448   1.816  10.413  1.7431  3.6236  0.4713
  101OSM    H6T10182   3.367   1.961  10.360 -1.0552  1.6414  2.7762
  101OSM    C7S10183   3.282   1.791  10.262  0.0399 -0.1187  0.0167
  101OSM    H7S10184   3.184   1.838  10.238  0.2499  0.7616  0.8147
  101OSM    H7T10185   3.274   1.681  10.279  0.6317 -0.3501 -1.1141
  101OSM    C8S10186   3.363   1.818  10.138 -0.8835 -0.2848  0.0141
  101OSM    H8S10187   3.452   1.752  10.139 -1.7662 -1.4858  0.8331
  101OSM    H8T10188   3.396   1.925  10.134  3.6939 -1.4713 -0.0621
  101OSM    C9S10189   3.289   1.808  10.010 -0.3856 -0.1744 -0.3097
  101OSM    H9S10190   3.217   1.893  10.009 -1.1837 -0.8418 -1.5229
  101OSM    H9T10191   3.240   1.709   9.997  2.8472 -2.0265  0.3831
  101OSM   C10S10192   3.379   1.827   9.891 -0.6100  0.4919 -0.9840
  101OSM   H10S10193   3.470   1.765   9.904 -2.1655 -1.6015  0.5943
  101OSM   H10T10194   3.413   1.933   9.897  0.3080  0.1243  2.3566
  101OSM   C11S10195   3.312   1.793   9.760  0.2977 -0.5227  0.6223
  101OSM   H11S10196   3.222   1.859   9.753  0.5139 -0.2666  0.1740
  101OSM   H11T10197   3.272   1.689   9.754  0.7866 -0.6509 -0.8661
  101OSM   C12S10198   3.416   1.785   9.641 -0.1829 -0.0060 -0.0699
  101OSM   H12S10199   3.486   1.699   9.650  1.3254  1.2022  0.1509
  101OSM   H12T10200   3.484   1.873   9.645 -0.7550  0.4096  0.8083
  101OSM   C13S10201   3.346   1.780   9.501  0.0163 -0.5844  0.4651
  101OSM   H13S10202   3.285   1.873   9.494  1.6648  0.4056 -1.6392
  101OSM   H13T10203   3.276   1.694   9.495 -1.2721  0.3423  1.4957
  101OSM   C14S10204   3.440   1.774   9.380  0.1006 -0.4032 -0.3541
  101OSM   H14S10205   3.506   1.685   9.384 -1.0189 -1.2028  3.1955
  101OSM   H14T10206   3.505   1.864   9.387 -0.1461 -0.1880 -0.7499
  101OSM   C15S10207   3.361   1.767   9.250  0.0756  0.4962  0.3962
  101OSM   H15S10208   3.271   1.831   9.246 -0.5547 -0.3829  0.0987
  101OSM   H15T10209   3.319   1.664   9.243 -0.7661  0.8286  0.4151
  101OSM   C16S10210   3.452   1.797   9.127 -0.3464 -0.0275 -0.1003
  101OSM   H16S10211   3.522   1.880   9.150 -1.9094  1.4701 -0.4607
  101OSM   H16T10212   3.391   1.839   9.043 -0.2044 -1.6154 -1.0321
  101OSM   C17S10213   3.541   1.683   9.078  0.3457 -0.3345  0.1670
  101OSM   H17S10214   3.569   1.629   9.171 -0.3906 -0.5352  0.2768
  101OSM   H17T10215   3.632   1.731   9.033 -0.6731  2.2669  0.6971
  101OSM   C18S10216   3.471   1.588   8.984 -0.6539  0.2483 -0.2033
  101OSM   H18S10217   3.473   1.619   8.878 -0.5047  2.1857  0.3283
  101OSM   H18T10218   3.366   1.573   9.017  0.1665 -2.0599  1.6327
  101OSM   H18U10219   3.520   1.489   9.001  1.3361  1.3183  0.6996
  101OSM    C1F10220   2.918   2.174  10.588  0.7505  0.5460 -0.2645
  101OSM     OF10221   2.927   2.230  10.697  0.0864 -0.6382  0.0142
  101OSM    C2F10222   2.876   2.233  10.455 -1.1381  0.6232 -0.6702
  101OSM    H2F10223   2.797   2.165  10.418 -1.2565  0.8814 -0.8997
  101OSM    H2G10224   2.963   2.239  10.387  1.5254  1.4035  2.5752
  101OSM    C3F10225   2.816   2.373  10.479  0.3759 -0.0167 -0.0191
  101OSM    H3F10226   2.888   2.439  10.531  1.2627  0.9587 -2.3589
  101OSM    H3G10227   2.725   2.380  10.542  0.3277  1.8889 -0.2583
  101OSM    C4F10228   2.772   2.442  10.354  0.2720 -0.1103 -0.0103
  101OSM    H4F10229   2.767   2.552  10.370 -1.0514 -0.0711 -0.5734
  101OSM    H4G10230   2.681   2.397  10.310  1.7467 -1.3144 -2.0280
  101OSM    C5F10231   2.881   2.430  10.241 -0.6177  0.7463  0.8642
  101OSM    H5F10232   2.866   2.328  10.200  0.7822  1.3579 -1.3881
  101OSM    H5G10233   2.978   2.439  10.294 -0.4139  1.0222  0.4533
  101OSM    C6F10234   2.875   2.539  10.139  0.1024 -0.1607 -0.4318
  101OSM    H6F10235   2.978   2.545  10.099  0.6822  1.0573  1.1833
  101OSM    H6G10236   2.850   2.636  10.187  0.8293 -0.2452  0.1311
  101OSM    C7F10237   2.783   2.506  10.020 -0.1018 -0.4169  0.3741
  101OSM    H7F10238   2.746   2.600   9.973  0.7223  0.1311  0.7935
  101OSM    H7G10239   2.692   2.453  10.055  1.3906 -2.8993  0.7434
  101OSM    C8F10240   2.855   2.416   9.910 -1.0973  0.1001  0.2535
  101OSM    H8F10241   2.872   2.317   9.958  0.8172 -0.3391 -1.2237
  101OSM    H8G10242   2.954   2.460   9.889 -1.1355  1.6252  2.7928
  101OSM    C9F10243   2.758   2.411   9.789 -0.2757 -0.3574 -0.3267
  101OSM    H9F10244   2.678   2.339   9.810 -0.7620  1.2037  4.5119
  101OSM   C10F10245   2.769   2.483   9.679 -0.0109  0.2609  0.7123
  101OSM   H10F10246   2.691   2.464   9.604 -1.9058  1.8382  2.1667
  101OSM   C11F10247   2.877   2.581   9.642  0.1195  0.4029 -0.6036
  101OSM   H11F10248   2.952   2.593   9.723 -0.1397  1.5614 -0.5102
  101OSM   H11G10249   2.827   2.681   9.641 -0.3183  0.1848 -1.2531
  101OSM   C12F10250   2.947   2.556   9.505 -0.8753  0.1296  0.0325
  101OSM   H12F10251   2.973   2.448   9.513  1.1442  0.5029 -0.7893
  101OSM   H12G10252   3.044   2.611   9.505 -0.6433 -0.1720 -1.9560
  101OSM   C13F10253   2.859   2.591   9.382 -0.0156 -0.8935  0.0328
  101OSM   H13F10254   2.820   2.692   9.404  0.1293 -0.5692 -1.1126
  101OSM   H13G10255   2.777   2.516   9.379 -0.8516 -0.0453 -3.4464
  101OSM   C14F10256   2.938   2.579   9.250  0.1263  0.3327 -0.5987
  101OSM   H14F10257   3.028   2.644   9.262 -1.4639  2.2610  1.8282
  101OSM   H14G10258   2.881   2.623   9.166 -0.0013  1.2653 -0.0362
  101OSM   C15F10259   2.956   2.429   9.200 -0.1475  0.2761  0.4589
  101OSM   H15F10260   2.851   2.394   9.211  0.1688 -0.6533  0.5333
  101OSM   H15G10261   3.029   2.377   9.264  1.3868 -1.6403 -2.6033
  101OSM   C16F10262   2.994   2.421   9.051  0.4470  0.1939 -0.8690
  101OSM   H16F10263   3.011   2.311   9.051 -1.5465 -0.2681  2.4766
  101OSM   H16G10264   3.082   2.485   9.028  0.4220  1.7723  2.7109
  101OSM   C17F10265   2.889   2.447   8.948  0.3197  0.1702  0.5212
  101OSM   H17F10266   2.860   2.553   8.967 -0.1059 -0.1797  1.9392
  101OSM   H17G10267   2.807   2.378   8.977 -0.7489  2.3291  3.1214
  101OSM   C18F10268   2.925   2.437   8.807 -0.0782 -0.0363 -0.2990
  101OSM   H18F10269   2.836   2.442   8.740 -0.5593  0.2360  0.3478
  101OSM   H18G10270   2.970   2.337   8.786 -1.6691 -0.6780 -0.8886
  101OSM   H18H10271   2.992   2.514   8.766 -0.9407  0.4157 -0.8966
  102OSM      N10272   0.780   2.581  11.019 -0.5826 -0.1336  0.5715
  102OSM    C1510273   0.650   2.567  11.089 -0.2156  0.2726 -0.2074
  102OSM   H15A10274   0.588   2.652  11.068  0.5290  0.8579 -0.0709
  102OSM   H15B10275   0.674   2.564  11.195 -0.4790  0.7148 -0.1347
  102OSM   H15C10276   0.600   2.476  11.058 -1.7267  0.9270  0.2231
  102OSM    C1410277   0.826   2.722  11.027 -0.7273  0.1365  0.2544
  102OSM   H14A10278   0.746   2.793  11.010 -0.6709 -0.3350 -2.3598
  102OSM   H14B10279   0.902   2.741  10.952 -3.3134  1.3986 -2.2173
  102OSM   H14C10280   0.862   2.747  11.126 -0.6527  0.8009  0.0635
  102OSM    C1310281   0.881   2.502  11.089  0.1140  0.4709 -0.7772
  102OSM   H13A10282   0.893   2.536  11.191 -0.2004 -1.2250 -0.1447
  102OSM   H13B10283   0.978   2.493  11.042  0.6279 -1.0769  0.4817
  102OSM   H13C10284   0.843   2.401  11.092  1.1152  0.0507 -1.6426
  102OSM    C1210285   0.769   2.536  10.872  0.3281 -0.5166 -0.4528
  102OSM   H12A10286   0.705   2.602  10.816  0.6213  1.2388  1.1813
  102OSM   H12B10287   0.713   2.444  10.866 -1.6888  0.4725  1.7078
  102OSM    C1110288   0.902   2.533  10.786  0.8276 -0.7463 -0.6798
  102OSM   H11A10289   0.940   2.637  10.795 -2.3134  0.3287  2.4535
  102OSM   H11B10290   0.860   2.512  10.686 -2.6594  0.6490  0.3329
  102OSM      P10291   1.025   2.304  10.748  0.0603 -0.1262  0.0839
  102OSM    O1310292   1.157   2.257  10.799  0.5257 -0.3815  0.1015
  102OSM    O1410293   0.914   2.209  10.774 -0.9753  0.0386  0.0423
  102OSM    O1110294   1.027   2.347  10.597 -0.1103  0.1805 -0.2533
  102OSM    O1210295   1.002   2.436  10.834 -0.1334 -0.0492 -0.5479
  102OSM    C1S10296   1.121   2.442  10.560 -0.4217 -0.6251  0.6322
  102OSM    H1S10297   1.225   2.426  10.593 -0.7543  1.1150  2.7225
  102OSM    H1T10298   1.084   2.543  10.590  2.1309  0.5654 -0.0020
  102OSM     NF10299   1.258   2.490  10.354 -0.0530 -0.2278 -0.5481
  102OSM    HNF10300   1.258   2.581  10.314 -0.9578  0.3835  0.7857
  102OSM    C2S10301   1.129   2.435  10.398  0.4657  0.0982  0.6990
  102OSM    H2S10302   1.121   2.328  10.368 -0.5951  0.6510 -1.0737
  102OSM    C3S10303   1.010   2.509  10.334 -0.8642  0.0969  0.8259
  102OSM    H3S10304   1.019   2.617  10.359 -2.4412  0.3394  0.4555
  102OSM     O310305   0.889   2.480  10.401 -0.2527  0.7889 -0.6388
  102OSM    HO310306   0.922   2.419  10.468 -0.0664  0.2699 -1.2006
  102OSM    C4S10307   1.002   2.483  10.179  0.2827 -0.4223  0.1659
  102OSM    H4S10308   1.025   2.562  10.106  0.7092 -1.0071 -0.3449
  102OSM    C5S10309   0.968   2.365  10.123 -0.3166  0.6701 -0.5581
  102OSM    H5S10310   0.947   2.284  10.195  0.0709  0.9913 -0.0806
  102OSM    C6S10311   0.955   2.325   9.978  0.6531  0.1585 -0.4474
  102OSM    H6S10312   0.868   2.258   9.964 -0.0993  0.8531  0.6704
  102OSM    H6T10313   1.046   2.266   9.954  1.2650  1.0140 -0.2958
  102OSM    C7S10314   0.948   2.442   9.877 -0.0098 -0.2853  0.0398
  102OSM    H7S10315   1.048   2.491   9.875 -0.1059 -0.0342  0.9232
  102OSM    H7T10316   0.884   2.526   9.913  1.5071  0.8223  0.2325
  102OSM    C8S10317   0.915   2.401   9.735 -0.9106  0.5052 -0.4052
  102OSM    H8S10318   0.810   2.366   9.746 -0.5010 -0.2866  1.3274
  102OSM    H8T10319   0.969   2.309   9.705  0.2465  0.5877  1.2304
  102OSM    C9S10320   0.928   2.506   9.630  0.0301  0.0881 -0.5817
  102OSM    H9S10321   1.032   2.546   9.639  0.7276 -1.5111 -1.2155
  102OSM    H9T10322   0.866   2.592   9.664  0.1983 -0.8307  2.3123
  102OSM   C10S10323   0.880   2.476   9.489 -0.4168 -0.0847 -0.2666
  102OSM   H10S10324   0.770   2.463   9.481 -0.5334  0.4402  0.3656
  102OSM   H10T10325   0.924   2.381   9.453  0.3972  0.5149 -0.9061
  102OSM   C11S10326   0.916   2.584   9.387  0.1974  0.2092 -0.4039
  102OSM   H11S10327   1.026   2.591   9.388  0.1979  0.4310  1.3880
  102OSM   H11T10328   0.872   2.681   9.417 -1.7902 -0.5787 -0.5962
  102OSM   C12S10329   0.875   2.549   9.245  0.0631  0.5574 -0.0989
  102OSM   H12S10330   0.768   2.521   9.257  0.1162  0.1406 -0.5702
  102OSM   H12T10331   0.941   2.471   9.202  0.2097  1.1361 -0.9574
  102OSM   C13S10332   0.871   2.670   9.159  0.5629 -0.3643  0.7948
  102OSM   H13S10333   0.975   2.709   9.148  1.2940 -1.9853  1.5214
  102OSM   H13T10334   0.813   2.748   9.212 -2.9476 -0.0196 -3.0733
  102OSM   C14S10335   0.816   2.639   9.018 -0.1022 -0.4459  0.1348
  102OSM   H14S10336   0.709   2.609   9.017 -0.3695  0.4651 -1.6045
  102OSM   H14T10337   0.866   2.552   8.969  0.3347  0.5455 -1.2558
  102OSM   C15S10338   0.827   2.762   8.929  0.0638  0.7800  0.5833
  102OSM   H15S10339   0.927   2.752   8.880  0.1011  1.2281  0.5632
  102OSM   H15T10340   0.842   2.853   8.991 -4.2264  2.0313  0.0740
  102OSM   C16S10341   0.725   2.773   8.816 -0.5568  0.0962 -0.6499
  102OSM   H16S10342   0.766   2.858   8.757  0.5417  0.8749  1.1390
  102OSM   H16T10343   0.622   2.792   8.853  0.2439 -1.0192  2.4383
  102OSM   C17S10344   0.720   2.654   8.712 -0.3096 -0.0126  0.4607
  102OSM   H17S10345   0.671   2.566   8.759  0.2548 -0.5122  0.1342
  102OSM   H17T10346   0.822   2.620   8.684 -0.1500  0.2344  0.7479
  102OSM   C18S10347   0.640   2.684   8.583  0.4000  0.0375  0.1734
  102OSM   H18S10348   0.665   2.608   8.506 -0.3162 -0.0800  0.0496
  102OSM   H18T10349   0.668   2.784   8.543 -2.0134 -0.0796 -2.0321
  102OSM   H18U10350   0.531   2.673   8.602  0.6967 -0.4328  1.7792
  102OSM    C1F10351   1.366   2.417  10.381 -0.5115  0.3912 -0.6117
  102OSM     OF10352   1.352   2.303  10.418 -0.1504  0.6994  0.2144
  102OSM    C2F10353   1.498   2.484  10.352  0.3442 -0.5913  0.1079
  102OSM    H2F10354   1.468   2.589  10.334 -2.0953 -1.2389  0.0246
  102OSM    H2G10355   1.538   2.434  10.262  0.8571  0.3734 -0.2122
  102OSM    C3F10356   1.607   2.464  10.465 -0.3015 -0.7110 -0.0925
  102OSM    H3F10357   1.559   2.488  10.563 -1.9669  1.8364 -1.4324
  102OSM    H3G10358   1.687   2.541  10.452  1.2959 -2.0009  1.4810
  102OSM    C4F10359   1.672   2.323  10.464  0.9688  0.6714 -0.0165
  102OSM    H4F10360   1.715   2.296  10.365  1.2482  1.2831 -0.0668
  102OSM    H4G10361   1.590   2.249  10.480  1.9296 -0.1173  1.5324
  102OSM    C5F10362   1.777   2.268  10.570  0.2510  0.1883 -0.2356
  102OSM    H5F10363   1.789   2.158  10.560 -2.4880 -0.4870  2.5788
  102OSM    H5G10364   1.740   2.290  10.672  1.2606  0.2771  0.1272
  102OSM    C6F10365   1.911   2.338  10.558 -1.1208  0.0703  0.4125
  102OSM    H6F10366   1.978   2.297  10.638  0.4498 -0.3298 -1.0407
  102OSM    H6G10367   1.897   2.447  10.573 -2.5553 -0.3906  3.1155
  102OSM    C7F10368   1.984   2.323  10.421  0.0053 -0.5990 -0.5542
  102OSM    H7F10369   1.926   2.377  10.344 -0.2441 -0.4296 -0.2480
  102OSM    H7G10370   1.971   2.219  10.384  2.1786 -1.7311  1.5864
  102OSM    C8F10371   2.132   2.364  10.415  0.6592 -0.1621  0.2088
  102OSM    H8F10372   2.172   2.323  10.320  0.2186  1.1846 -0.5767
  102OSM    H8G10373   2.202   2.320  10.489  2.6580 -0.2262 -1.6086
  102OSM    C9F10374   2.139   2.516  10.427 -0.3861 -0.1530 -0.5499
  102OSM    H9F10375   2.063   2.561  10.492 -0.3722  0.4714 -0.9634
  102OSM   C10F10376   2.244   2.586  10.388  0.8332 -0.1759 -0.2340
  102OSM   H10F10377   2.239   2.694  10.405  1.0712 -0.1242 -0.4865
  102OSM   C11F10378   2.372   2.535  10.318  0.0055 -0.3781 -0.4591
  102OSM   H11F10379   2.406   2.434  10.348  1.1268  0.1324  0.0584
  102OSM   H11G10380   2.459   2.595  10.351 -0.2634 -0.6820  0.8946
  102OSM   C12F10381   2.378   2.531  10.167 -0.3128  0.1224  0.2388
  102OSM   H12F10382   2.295   2.469  10.126  0.3381  0.5697 -1.8941
  102OSM   H12G10383   2.472   2.478  10.142 -0.4555 -0.9641  1.8838
  102OSM   C13F10384   2.364   2.670  10.109  0.5032 -0.0978  0.2528
  102OSM   H13F10385   2.458   2.728  10.124  0.0574  0.1166  2.5810
  102OSM   H13G10386   2.285   2.727  10.163  1.1800  0.6261  0.5140
  102OSM   C14F10387   2.322   2.654   9.961  1.2325 -0.0123  0.0933
  102OSM   H14F10388   2.230   2.593   9.975  1.1958  0.2760  1.2032
  102OSM   H14G10389   2.392   2.585   9.910 -0.2154 -1.1865 -0.3899
  102OSM   C15F10390   2.286   2.782   9.890 -0.9037 -0.8861  0.6426
  102OSM   H15F10391   2.379   2.841   9.887  0.4499 -2.9637 -1.4139
  102OSM   H15G10392   2.207   2.847   9.934  0.0060  0.5173  0.2398
  102OSM   C16F10393   2.263   2.749   9.736  0.0982  0.2329 -0.3250
  102OSM   H16F10394   2.164   2.697   9.734  0.7228 -1.0837  0.9161
  102OSM   H16G10395   2.338   2.675   9.702 -0.5591 -1.5562  1.8613
  102OSM   C17F10396   2.260   2.868   9.653 -0.8157  0.3602  0.0045
  102OSM   H17F10397   2.168   2.922   9.684 -1.2002 -0.1227 -0.2736
  102OSM   H17G10398   2.248   2.839   9.546  1.0075  2.8339 -0.9885
  102OSM   C18F10399   2.376   2.970   9.660 -0.0991 -0.0209  0.4075
  102OSM   H18F10400   2.350   3.066   9.610  0.3617  0.5537  1.2498
  102OSM   H18G10401   2.466   2.930   9.608  0.0094  1.8269 -0.9414
  102OSM   H18H10402   2.389   2.997   9.767  0.0157 -0.0548  0.4017
  103OSM      N10403   2.649   5.960  11.362 -0.3626  0.8482  0.0371
  103OSM    C1510404   2.759   6.058  11.396  0.0165  0.1072 -0.8504
  103OSM   H15A10405   2.738   6.161  11.369  0.1551  0.4289  0.2166
  103OSM   H15B10406   2.858   6.036  11.359  0.8877  4.4024 -1.6912
  103OSM   H15C10407   2.754   6.055  11.504 -1.6283  0.2863 -0.8916
  103OSM    C1410408   2.686   5.833  11.449 -0.4935  0.6214  0.7261
  103OSM   H14A10409   2.633   5.749  11.405  1.3606 -0.5704  0.6397
  103OSM   H14B10410   2.645   5.840  11.548 -0.4812 -0.1062  0.7860
  103OSM   H14C10411   2.785   5.801  11.422 -1.3040 -0.9582 -0.5798
  103OSM    C1310412   2.511   6.003  11.415  0.1860  0.2665  0.2328
  103OSM   H13A10413   2.473   6.081  11.351 -1.1702 -0.1785  0.4574
  103OSM   H13B10414   2.514   6.051  11.512  0.7076 -1.2046  0.9759
  103OSM   H13C10415   2.440   5.922  11.407  1.5690 -0.7999 -3.3144
  103OSM    C1210416   2.657   5.933  11.208  0.4806  0.7111 -0.7912
  103OSM   H12A10417   2.632   6.029  11.167 -0.4784  1.4037  1.2886
  103OSM   H12B10418   2.586   5.854  11.187  0.8499 -0.0630  0.7099
  103OSM    C1110419   2.799   5.907  11.156  0.9694 -0.1924  0.0381
  103OSM   H11A10420   2.867   5.990  11.183 -2.3836  2.7317  0.2516
  103OSM   H11B10421   2.796   5.907  11.045  2.0075  0.1989  0.0026
  103OSM      P10422   2.990   5.741  11.208  0.7441  0.2499 -0.0707
  103OSM    O1310423   3.070   5.861  11.240  0.4480 -0.1548  0.3814
  103OSM    O1410424   3.008   5.623  11.296 -0.0861 -0.5289 -0.0899
  103OSM    O1110425   3.015   5.709  11.057  0.3154  0.9094  0.2957
  103OSM    O1210426   2.840   5.781  11.206 -0.3677  0.0061 -0.3088
  103OSM    C1S10427   2.923   5.626  10.985  1.1844  0.0419  0.0885
  103OSM    H1S10428   2.824   5.675  10.981  0.5251 -1.0696  1.6303
  103OSM    H1T10429   2.912   5.529  11.039  0.8004  0.0298 -0.0099
  103OSM     NF10430   2.831   5.523  10.773  0.2193 -0.9576 -0.0179
  103OSM    HNF10431   2.834   5.426  10.751 -0.7600 -0.7199 -1.3159
  103OSM    C2S10432   2.952   5.584  10.836  0.2257  0.0652 -0.2488
  103OSM    H2S10433   2.978   5.682  10.789 -2.3060  0.6875 -0.5178
  103OSM    C3S10434   3.084   5.495  10.835  0.4568 -0.3537 -0.5508
  103OSM    H3S10435   3.064   5.391  10.870  2.4695 -0.2615  1.0827
  103OSM     O310436   3.190   5.519  10.928 -0.1446 -0.7864  0.0279
  103OSM    HO310437   3.163   5.598  10.974  0.0669 -0.2044 -0.8311
  103OSM    C4S10438   3.121   5.491  10.685  0.0125  0.1664  0.0969
  103OSM    H4S10439   3.053   5.425  10.628  0.6153 -0.1122 -0.3141
  103OSM    C5S10440   3.216   5.561  10.622 -0.3818  0.3641  0.3027
  103OSM    H5S10441   3.283   5.622  10.685 -0.6684 -0.4246  1.3973
  103OSM    C6S10442   3.252   5.546  10.475 -0.0706  0.0103 -0.2463
  103OSM    H6S10443   3.362   5.542  10.464 -0.1839 -1.3683 -1.1893
  103OSM    H6T10444   3.226   5.640  10.422 -1.6550 -0.7354 -0.8880
  103OSM    C7S10445   3.180   5.442  10.386  0.3286  0.6370  0.4038
  103OSM    H7S10446   3.073   5.464  10.367  0.4979  0.6851 -0.5473
  103OSM    H7T10447   3.191   5.341  10.430  1.0665 -0.4696 -2.1619
  103OSM    C8S10448   3.237   5.448  10.245 -0.0030 -0.4255 -0.7124
  103OSM    H8S10449   3.347   5.453  10.261 -0.2675  1.2500  1.0214
  103OSM    H8T10450   3.212   5.538  10.186  0.5582  0.2707  0.0859
  103OSM    C9S10451   3.203   5.327  10.154  0.3109  0.3153 -0.3485
  103OSM    H9S10452   3.217   5.229  10.202  1.4654 -0.1152 -1.5246
  103OSM    H9T10453   3.270   5.328  10.066  3.5145  2.1772  1.9196
  103OSM   C10S10454   3.050   5.344  10.106  0.0583  0.0838 -0.3333
  103OSM   H10S10455   3.048   5.423  10.028  1.1824  0.2860 -0.1703
  103OSM   H10T10456   2.995   5.376  10.196 -1.8797  0.6527 -1.6506
  103OSM   C11S10457   2.984   5.209  10.062 -0.5042 -1.1731 -0.2332
  103OSM   H11S10458   2.873   5.217  10.059 -0.5255 -1.7650 -1.7463
  103OSM   H11T10459   3.008   5.133  10.140  0.7358  0.0074  0.5868
  103OSM   C12S10460   3.030   5.156   9.924 -0.4415  0.5076  0.2779
  103OSM   H12S10461   3.138   5.179   9.907 -0.6702  1.0386 -0.5397
  103OSM   H12T10462   2.983   5.216   9.843 -1.9849 -0.1828  0.6338
  103OSM   C13S10463   2.997   5.007   9.909 -0.0478 -0.1563 -0.1347
  103OSM   H13S10464   2.889   5.006   9.885 -0.0159  0.1986 -0.3081
  103OSM   H13T10465   3.023   4.953  10.002  1.7456 -2.6252 -1.9326
  103OSM   C14S10466   3.075   4.934   9.806  0.4950  0.2907  0.5631
  103OSM   H14S10467   3.040   4.828   9.806 -0.1943  0.5137  1.6778
  103OSM   H14T10468   3.184   4.930   9.830  0.9563 -1.2207 -1.4055
  103OSM   C15S10469   3.058   4.986   9.669  0.2643 -0.3279  0.0933
  103OSM   H15S10470   3.107   5.086   9.668 -0.9784  0.3081 -0.3352
  103OSM   H15T10471   2.953   5.002   9.635  0.9892  0.6050 -1.8985
  103OSM   C16S10472   3.143   4.894   9.571  0.1205 -0.7313 -0.6114
  103OSM   H16S10473   3.101   4.792   9.587  1.2988 -1.0962  0.2665
  103OSM   H16T10474   3.246   4.873   9.606  1.2886 -1.9371 -4.2449
  103OSM   C17S10475   3.140   4.935   9.427  0.0811  0.0513 -0.0055
  103OSM   H17S10476   3.187   5.036   9.423 -0.4650  0.2759 -1.5190
  103OSM   H17T10477   3.034   4.946   9.396  0.1920  0.0902 -0.3793
  103OSM   C18S10478   3.202   4.827   9.334  0.1834 -0.0436 -0.2624
  103OSM   H18S10479   3.211   4.866   9.231 -2.2553  0.5517 -0.2919
  103OSM   H18T10480   3.145   4.732   9.338 -0.9701  0.6271 -0.4277
  103OSM   H18U10481   3.306   4.813   9.372  0.5294  1.0132 -0.7874
  103OSM    C1F10482   2.715   5.589  10.753  0.2924 -0.2977  0.4848
  103OSM     OF10483   2.704   5.707  10.784  0.5852  0.0006 -0.3674
  103OSM    C2F10484   2.600   5.520  10.686  0.1047  0.4221  0.1177
  103OSM    H2F10485   2.513   5.520  10.756  0.3804  3.3505  0.5846
  103OSM    H2G10486   2.625   5.412  10.673 -0.9762  0.1009  0.5738
  103OSM    C3F10487   2.562   5.593  10.555  0.6393 -0.2477  0.0384
  103OSM    H3F10488   2.536   5.699  10.576  0.3174  0.1598 -2.2000
  103OSM    H3G10489   2.473   5.541  10.513  0.6936  0.8390 -1.4800
  103OSM    C4F10490   2.670   5.586  10.449 -0.0204  0.8593 -0.6537
  103OSM    H4F10491   2.764   5.631  10.486 -1.0657  1.5082  1.3611
  103OSM    H4G10492   2.639   5.650  10.364  0.4767  0.8619 -0.8372
  103OSM    C5F10493   2.703   5.445  10.392  0.2852  0.1005 -0.8244
  103OSM    H5F10494   2.756   5.394  10.475  1.7508  1.5209 -0.8267
  103OSM    H5G10495   2.785   5.462  10.319  1.1174  2.6634  0.5834
  103OSM    C6F10496   2.592   5.362  10.342  0.4764 -0.6955 -0.0375
  103OSM    H6F10497   2.519   5.420  10.281  1.2454 -0.2105 -0.5147
  103OSM    H6G10498   2.541   5.314  10.428 -0.4786 -0.0351 -0.2237
  103OSM    C7F10499   2.652   5.248  10.259  0.3226  0.3950  0.0792
  103OSM    H7F10500   2.699   5.188  10.339  0.3143  1.7682  1.1392
  103OSM    H7G10501   2.716   5.291  10.179 -1.7316 -0.7273 -2.3052
  103OSM    C8F10502   2.538   5.157  10.197 -0.7079  0.2421 -0.2180
  103OSM    H8F10503   2.479   5.215  10.123  0.2458 -0.2985 -1.4310
  103OSM    H8G10504   2.470   5.127  10.279  0.2218  2.3038  1.3992
  103OSM    C9F10505   2.583   5.032  10.133 -0.6248  0.1226 -0.6234
  103OSM    H9F10506   2.595   4.950  10.205  0.7718  0.6678 -0.2088
  103OSM   C10F10507   2.618   5.011  10.004  0.6898 -0.8029  0.6643
  103OSM   H10F10508   2.658   4.913   9.972  1.2130  0.0251 -1.4053
  103OSM   C11F10509   2.602   5.128   9.907 -0.3969  0.0580  0.1376
  103OSM   H11F10510   2.661   5.215   9.941 -2.3038  1.2853  0.4344
  103OSM   H11G10511   2.495   5.155   9.906 -1.4515 -3.2478  2.9765
  103OSM   C12F10512   2.645   5.098   9.761 -0.6522  0.7324  0.1051
  103OSM   H12F10513   2.750   5.062   9.754 -0.3831  1.3393  0.7992
  103OSM   H12G10514   2.644   5.198   9.712  0.3578  0.3934 -0.6229
  103OSM   C13F10515   2.546   5.012   9.684 -0.3768 -0.0761  0.1419
  103OSM   H13F10516   2.521   4.919   9.739 -0.5257 -0.3699 -0.4192
  103OSM   H13G10517   2.454   5.074   9.681 -0.7970 -0.7192 -2.4240
  103OSM   C14F10518   2.597   4.987   9.544  0.1687 -0.5825  0.5748
  103OSM   H14F10519   2.675   4.908   9.541  1.0667  0.3270 -1.2557
  103OSM   H14G10520   2.639   5.084   9.512 -1.0472  0.2189  1.3095
  103OSM   C15F10521   2.502   4.938   9.443 -0.9429  1.0254  0.2540
  103OSM   H15F10522   2.416   5.008   9.444 -1.9157 -0.1368  0.4871
  103OSM   H15G10523   2.474   4.834   9.471  3.6311 -0.2423  0.9178
  103OSM   C16F10524   2.568   4.944   9.305 -0.1742  0.2655  0.1202
  103OSM   H16F10525   2.655   4.876   9.316 -1.8508 -1.9450  0.6252
  103OSM   H16G10526   2.602   5.046   9.277  0.7244  0.2053  0.9459
  103OSM   C17F10527   2.471   4.892   9.195 -0.1281 -0.7137 -0.3329
  103OSM   H17F10528   2.413   4.981   9.165 -0.4492 -0.4695  0.9561
  103OSM   H17G10529   2.404   4.818   9.243  1.5282 -1.0294  1.6660
  103OSM   C18F10530   2.552   4.829   9.080  0.0959  0.2325 -0.5572
  103OSM   H18F10531   2.595   4.734   9.117 -1.0501 -0.1223 -0.1029
  103OSM   H18G10532   2.638   4.892   9.047  1.2063 -1.0284 -0.1706
  103OSM   H18H10533   2.487   4.812   8.991  0.0219 -1.2735 -0.2275
  104OSM      N10534   6.670   2.991  10.978 -0.1203 -0.9466 -0.1242
  104OSM    C1510535   6.752   2.883  10.906  0.3364  0.0153  0.0401
  104OSM   H15A10536   6.807   2.929  10.825 -0.0213  2.3761  1.0430
  104OSM   H15B10537   6.693   2.799  10.872  0.0219 -0.0037  0.6284
  104OSM   H15C10538   6.825   2.833  10.968  1.0040 -0.6719 -1.2528
  104OSM    C1410539   6.588   3.072  10.882  0.1814 -0.3645 -0.5569
  104OSM   H14A10540   6.645   3.128  10.809 -1.2602 -0.1833 -1.5985
  104OSM   H14B10541   6.514   3.132  10.933 -0.1971 -1.1510 -0.1618
  104OSM   H14C10542   6.540   2.998  10.819 -1.6391 -0.9373  1.3688
  104OSM    C1310543   6.574   2.936  11.071  0.6308  0.1845 -0.5566
  104OSM   H13A10544   6.512   3.018  11.102  1.0102 -0.5928  2.6324
  104OSM   H13B10545   6.618   2.895  11.161 -0.0478 -0.2110 -0.4028
  104OSM   H13C10546   6.516   2.857  11.028 -0.5650  0.5940  0.2571
  104OSM    C1210547   6.769   3.079  11.064 -0.5814  0.1592  0.5678
  104OSM   H12A10548   6.694   3.140  11.112 -0.6642 -0.4888  1.2796
  104OSM   H12B10549   6.843   3.117  10.996 -0.2234  2.1710  2.0055
  104OSM    C1110550   6.855   3.001  11.169 -0.4278  0.5833  0.4253
  104OSM   H11A10551   6.786   2.946  11.236 -0.7432  2.1553  1.4609
  104OSM   H11B10552   6.898   3.077  11.238 -1.6387  0.9732  0.7720
  104OSM      P10553   7.086   2.974  11.054 -0.0547  0.3799  0.1453
  104OSM    O1310554   7.159   3.018  11.171  0.1411  0.7531 -0.2537
  104OSM    O1410555   7.154   2.886  10.960 -0.4530 -0.2204  0.1830
  104OSM    O1110556   7.040   3.096  10.976  0.3761 -0.0940  0.3226
  104OSM    O1210557   6.949   2.909  11.109 -0.5990  0.2914  1.1698
  104OSM    C1S10558   7.139   3.178  10.916  0.1230 -0.2342  0.5845
  104OSM    H1S10559   7.240   3.185  10.962  1.5810 -1.2603 -2.1830
  104OSM    H1T10560   7.100   3.281  10.902  0.9354  0.1383  1.0122
  104OSM     NF10561   7.249   3.257  10.702  0.2992  0.4682 -0.2901
  104OSM    HNF10562   7.201   3.331  10.654  0.2906 -0.5003 -1.8642
  104OSM    C2S10563   7.156   3.154  10.761  0.7711 -0.1470  0.2872
  104OSM    H2S10564   7.209   3.056  10.758 -1.1514 -1.3207  2.0382
  104OSM    C3S10565   7.018   3.142  10.683  0.5277  0.1930  0.6397
  104OSM    H3S10566   6.968   3.240  10.699 -1.2248 -0.1211 -2.2177
  104OSM     O310567   6.923   3.052  10.743 -0.1341  0.2294 -0.3630
  104OSM    HO310568   6.961   3.044  10.830 -3.1837 -1.1818  0.9926
  104OSM    C4S10569   7.025   3.126  10.535 -0.5365  0.0907 -0.1655
  104OSM    H4S10570   7.017   3.219  10.476  2.1374  0.3263 -0.2602
  104OSM    C5S10571   7.051   3.010  10.469  0.5291  0.1700 -0.6044
  104OSM    H5S10572   7.062   2.923  10.535  0.4699  0.1534 -0.6158
  104OSM    C6S10573   7.068   2.996  10.321  0.6445 -0.2819 -0.1080
  104OSM    H6S10574   6.989   2.928  10.281  0.0857 -0.3177  1.0270
  104OSM    H6T10575   7.163   2.949  10.291  0.5376 -0.0598 -0.8239
  104OSM    C7S10576   7.053   3.127  10.237 -0.5652 -0.1693 -0.6825
  104OSM    H7S10577   7.120   3.211  10.264  0.6634 -1.5815  0.8284
  104OSM    H7T10578   6.952   3.170  10.254  1.3583  4.3544  0.7251
  104OSM    C8S10579   7.089   3.100  10.094 -0.5194 -0.2650  0.2848
  104OSM    H8S10580   7.059   3.002  10.053 -2.2892  0.3721 -0.0629
  104OSM    H8T10581   7.198   3.108  10.075 -0.6065  0.5095  0.0506
  104OSM    C9S10582   7.022   3.213  10.003  0.0381  0.4806  0.4500
  104OSM    H9S10583   7.059   3.316  10.024  0.7182  0.7446 -1.7468
  104OSM    H9T10584   6.912   3.210  10.019  0.0365 -0.3588  0.3019
  104OSM   C10S10585   7.031   3.181   9.852  0.8338  0.1531  0.1279
  104OSM   H10S10586   6.993   3.080   9.827  2.9580  0.1117 -3.6038
  104OSM   H10T10587   7.138   3.183   9.822  0.3234 -1.8575 -2.1044
  104OSM   C11S10588   6.973   3.288   9.762  0.2433 -0.7842  0.0198
  104OSM   H11S10589   7.033   3.379   9.782  1.7647 -2.2042  2.5190
  104OSM   H11T10590   6.868   3.315   9.786 -0.2132 -1.5790 -0.9862
  104OSM   C12S10591   6.995   3.258   9.619  0.1399  0.7141  0.2451
  104OSM   H12S10592   6.951   3.160   9.590 -0.5858  0.7600  1.1693
  104OSM   H12T10593   7.104   3.242   9.604  0.2793 -0.6128  2.3727
  104OSM   C13S10594   6.938   3.350   9.510  0.1529  0.0744 -0.6070
  104OSM   H13S10595   6.998   3.443   9.518  0.8482 -0.5236  4.8489
  104OSM   H13T10596   6.835   3.381   9.536 -0.5020 -0.7597 -2.0611
  104OSM   C14S10597   6.936   3.287   9.368  0.4281 -0.4580  0.1744
  104OSM   H14S10598   6.897   3.184   9.358  2.4519 -1.1244 -1.8062
  104OSM   H14T10599   7.044   3.279   9.343  0.4498  1.0678 -0.3742
  104OSM   C15S10600   6.863   3.376   9.256 -0.0239 -0.0484 -1.2692
  104OSM   H15S10601   6.897   3.478   9.284 -1.2983 -0.2601  1.3049
  104OSM   H15T10602   6.753   3.366   9.261  0.0087  0.3624  0.9957
  104OSM   C16S10603   6.927   3.321   9.119 -0.2361 -0.7074  0.1774
  104OSM   H16S10604   6.903   3.217   9.090  0.8816  0.0004 -4.0138
  104OSM   H16T10605   7.039   3.325   9.120 -0.2731  1.0213  0.6521
  104OSM   C17S10606   6.877   3.401   8.997 -0.2997 -0.5996 -0.3311
  104OSM   H17S10607   6.908   3.508   8.996  1.1821 -0.9447  1.7598
  104OSM   H17T10608   6.770   3.424   9.017  0.0622  0.4600  0.4394
  104OSM   C18S10609   6.907   3.334   8.865  0.7442  0.0150  0.0740
  104OSM   H18S10610   7.012   3.317   8.835  0.2996 -0.6032 -1.2263
  104OSM   H18T10611   6.863   3.390   8.779 -1.4250 -2.4991 -0.6205
  104OSM   H18U10612   6.859   3.234   8.864  0.6087  0.0496 -1.9468
  104OSM    C1F10613   7.380   3.268  10.723  0.3586  0.2811  0.3891
  104OSM     OF10614   7.442   3.190  10.794  0.4029 -0.2832  0.9115
  104OSM    C2F10615   7.448   3.392  10.658 -0.2332 -0.6667 -0.5607
  104OSM    H2F10616   7.478   3.460  10.741 -1.5069 -0.6200 -0.1135
  104OSM    H2G10617   7.378   3.443  10.589  2.9563  1.3990 -2.5069
  104OSM    C3F10618   7.572   3.351  10.579  0.5907 -0.6740 -0.3279
  104OSM    H3F10619   7.651   3.313  10.648  0.8811 -0.5654 -0.5997
  104OSM    H3G10620   7.627   3.438  10.539 -1.0609 -0.0311 -1.2821
  104OSM    C4F10621   7.533   3.268  10.457 -0.1720  0.5939 -0.0734
  104OSM    H4F10622   7.493   3.173  10.499  1.3664 -1.0210 -2.0885
  104OSM    H4G10623   7.624   3.237  10.403 -0.7871  0.2870 -0.9612
  104OSM    C5F10624   7.449   3.343  10.348  0.2682  0.3194 -0.0910
  104OSM    H5F10625   7.503   3.433  10.311 -1.2876  0.6713 -1.6002
  104OSM    H5G10626   7.354   3.383  10.389 -0.7786 -0.3597 -1.7579
  104OSM    C6F10627   7.402   3.263  10.232  0.2246  0.2915  0.3963
  104OSM    H6F10628   7.301   3.302  10.205 -0.9676 -0.7319  3.0978
  104OSM    H6G10629   7.389   3.157  10.260 -0.0154  0.1574 -0.2106
  104OSM    C7F10630   7.514   3.275  10.122 -0.4177  0.6104 -0.5929
  104OSM    H7F10631   7.603   3.226  10.168 -1.0620  0.6397  0.7335
  104OSM    H7G10632   7.561   3.374  10.105  2.4424 -0.8013 -1.5328
  104OSM    C8F10633   7.487   3.207   9.990 -0.5694  0.5493 -0.4454
  104OSM    H8F10634   7.454   3.102  10.000 -2.3606  0.9373 -1.7578
  104OSM    H8G10635   7.585   3.196   9.939  0.4039 -0.4330  1.5394
  104OSM    C9F10636   7.395   3.290   9.908 -0.3521 -0.2516  0.6464
  104OSM    H9F10637   7.314   3.342   9.961  1.9423  4.1020  0.3465
  104OSM   C10F10638   7.395   3.323   9.776 -0.0973 -0.2258 -0.0395
  104OSM   H10F10639   7.314   3.383   9.731  1.6672  2.4585  0.1224
  104OSM   C11F10640   7.493   3.272   9.675  0.2102 -0.1109  0.0983
  104OSM   H11F10641   7.597   3.278   9.714  0.5022  0.0596 -0.6930
  104OSM   H11G10642   7.491   3.340   9.588  0.0094  0.5151  0.5848
  104OSM   C12F10643   7.460   3.127   9.635  0.9141  0.5681  0.4301
  104OSM   H12F10644   7.354   3.119   9.604  0.6868 -0.5568  1.4575
  104OSM   H12G10645   7.459   3.054   9.719 -0.6817 -0.3354 -0.3462
  104OSM   C13F10646   7.547   3.073   9.520 -0.6655 -0.2972  0.5311
  104OSM   H13F10647   7.546   3.136   9.428  1.8565 -0.4823  0.3129
  104OSM   H13G10648   7.522   2.972   9.482  0.6610 -0.8102  0.9536
  104OSM   C14F10649   7.698   3.059   9.555 -0.1160 -0.3345 -0.1083
  104OSM   H14F10650   7.735   3.156   9.597  1.5274 -0.4170 -1.2610
  104OSM   H14G10651   7.761   3.042   9.465  0.6868 -1.4957  0.6556
  104OSM   C15F10652   7.714   2.967   9.670  0.0738  0.4592  0.1019
  104OSM   H15F10653   7.656   2.877   9.640  0.8015  0.2869 -0.8365
  104OSM   H15G10654   7.671   3.012   9.762  0.7595 -1.6023  1.4947
  104OSM   C16F10655   7.855   2.927   9.697 -0.0189  0.7184  0.9601
  104OSM   H16F10656   7.930   3.009   9.703 -0.9002  2.0671 -3.1669
  104OSM   H16G10657   7.880   2.877   9.600 -1.7112 -0.4665  1.1004
  104OSM   C17F10658   7.870   2.825   9.809 -0.0859 -0.0066 -0.2630
  104OSM   H17F10659   7.974   2.787   9.805 -0.0587 -0.6411  3.1965
  104OSM   H17G10660   7.799   2.742   9.794 -0.7013  0.1077  1.7338
  104OSM   C18F10661   7.838   2.891   9.947 -0.2696  0.9512 -0.4370
  104OSM   H18F10662   7.864   2.824  10.032  0.7779  1.1173 -0.6052
  104OSM   H18G10663   7.732   2.924   9.946 -0.5706  0.0206 -0.3571
  104OSM   H18H10664   7.895   2.986   9.953  1.4280 -0.1001  1.8746
  105OSM      N10665   1.420   2.422  10.989  0.2385  0.0634  0.4078
  105OSM    C1510666   1.511   2.515  11.061 -0.3186  0.3460  1.2660
  105OSM   H15A10667   1.475   2.585  11.134  0.9360  1.4968  0.8371
  105OSM   H15B10668   1.566   2.566  10.983 -0.8788  0.6255  1.0480
  105OSM   H15C10669   1.591   2.462  11.112 -0.8808 -2.4798 -0.5544
  105OSM    C1410670   1.477   2.320  10.901 -0.3325 -0.4133 -0.5771
  105OSM   H14A10671   1.535   2.363  10.821 -0.3912 -0.0869 -0.4478
  105OSM   H14B10672   1.397   2.277  10.843 -1.3014  1.2279 -0.5087
  105OSM   H14C10673   1.525   2.241  10.957  0.0913  0.0752 -0.2452
  105OSM    C1310674   1.342   2.351  11.096 -0.1259  0.0770  0.8212
  105OSM   H13A10675   1.404   2.288  11.157  0.5850 -0.3292 -0.2880
  105OSM   H13B10676   1.271   2.281  11.053  0.2571  1.0541 -1.5894
  105OSM   H13C10677   1.293   2.424  11.159 -1.6368  0.0217 -0.2284
  105OSM    C1210678   1.318   2.506  10.910  0.3688 -0.0415 -0.3825
  105OSM   H12A10679   1.282   2.589  10.969 -0.7860  0.4102 -1.6464
  105OSM   H12B10680   1.239   2.436  10.885 -0.9115  0.7468  1.2934
  105OSM    C1110681   1.357   2.567  10.778 -0.1523 -0.2309 -0.5695
  105OSM   H11A10682   1.271   2.620  10.731  0.3090  1.0125 -0.0495
  105OSM   H11B10683   1.384   2.493  10.700 -0.4338  0.9122 -1.7897
  105OSM      P10684   1.450   2.809  10.830 -0.3210  0.2692 -0.4437
  105OSM    O1310685   1.416   2.826  10.976 -0.3783 -0.0834 -0.0105
  105OSM    O1410686   1.568   2.874  10.788  0.1074  0.3255 -0.1540
  105OSM    O1110687   1.317   2.847  10.743 -0.4008  0.1929 -0.1107
  105OSM    O1210688   1.466   2.657  10.798 -0.5367 -0.9366  0.4726
  105OSM    C1S10689   1.337   2.884  10.608 -0.5893 -0.0623  0.4393
  105OSM    H1S10690   1.411   2.825  10.551 -1.1668  1.2311 -1.7687
  105OSM    H1T10691   1.375   2.989  10.607 -0.6112 -0.0367  1.6010
  105OSM     NF10692   1.241   2.944  10.398 -0.2521 -0.0652 -0.0951
  105OSM    HNF10693   1.250   3.043  10.400  0.8907 -0.1648  0.7276
  105OSM    C2S10694   1.207   2.880  10.520  0.2469 -0.1737 -0.2064
  105OSM    H2S10695   1.188   2.772  10.504 -1.4261 -0.1706  1.4282
  105OSM    C3S10696   1.080   2.937  10.579  0.4248  0.1127  0.0702
  105OSM    H3S10697   1.103   3.045  10.593  2.9314 -0.5798  2.0459
  105OSM     O310698   1.045   2.877  10.706  0.7522 -0.0083  0.8327
  105OSM    HO310699   1.124   2.825  10.727  0.1952 -1.5642 -0.7338
  105OSM    C4S10700   0.957   2.935  10.483 -0.0278 -0.8914 -0.3664
  105OSM    H4S10701   0.969   3.010  10.403  1.9868 -0.4609  0.2790
  105OSM    C5S10702   0.858   2.846  10.471 -0.0915  0.3776 -0.6492
  105OSM    H5S10703   0.853   2.759  10.538  0.2268 -0.1719 -1.3174
  105OSM    C6S10704   0.744   2.854  10.375  0.2139  0.4564 -0.2089
  105OSM    H6S10705   0.726   2.960  10.343 -1.9283  0.6917  1.5285
  105OSM    H6T10706   0.646   2.833  10.424 -0.8467  1.3520 -1.8113
  105OSM    C7S10707   0.739   2.756  10.251  0.0293  0.0582 -0.0809
  105OSM    H7S10708   0.733   2.650  10.283 -3.0143  0.4508  1.0221
  105OSM    H7T10709   0.837   2.768  10.200  0.9928  0.5079  1.7901
  105OSM    C8S10710   0.628   2.783  10.154  0.2527  0.3422  0.6842
  105OSM    H8S10711   0.648   2.891  10.137 -2.5810  0.8660  0.2700
  105OSM    H8T10712   0.521   2.773  10.180 -0.4257  1.0641 -1.5993
  105OSM    C9S10713   0.639   2.713  10.022  0.1755 -0.0693  0.4797
  105OSM    H9S10714   0.646   2.603  10.041  0.1514 -0.2971 -0.7658
  105OSM    H9T10715   0.738   2.737   9.979 -0.2949  2.1207  0.5013
  105OSM   C10S10716   0.529   2.762   9.926 -0.2797 -0.5952  0.0396
  105OSM   H10S10717   0.543   2.872   9.925 -2.6440 -0.2426 -0.4396
  105OSM   H10T10718   0.428   2.746   9.971  0.5480 -1.9674  1.5333
  105OSM   C11S10719   0.548   2.710   9.788 -0.4227  0.4943  0.2450
  105OSM   H11S10720   0.527   2.601   9.790  0.5181  0.2572 -1.1320
  105OSM   H11T10721   0.654   2.733   9.761 -0.3796 -0.7517 -0.7145
  105OSM   C12S10722   0.467   2.786   9.682  0.0015  0.3638  0.2790
  105OSM   H12S10723   0.494   2.892   9.699  0.7050  0.3298 -0.5638
  105OSM   H12T10724   0.358   2.767   9.692 -0.0731 -0.2773 -1.3769
  105OSM   C13S10725   0.517   2.741   9.541  0.7104  0.0956 -0.3501
  105OSM   H13S10726   0.519   2.630   9.530 -1.8850 -0.2047  1.2225
  105OSM   H13T10727   0.622   2.777   9.536  0.6808  0.2882  0.3363
  105OSM   C14S10728   0.436   2.800   9.423 -0.1537  0.0424  0.3497
  105OSM   H14S10729   0.440   2.911   9.435 -1.0473  0.1318 -0.0537
  105OSM   H14T10730   0.332   2.768   9.443  0.2149 -1.2771  0.2272
  105OSM   C15S10731   0.486   2.759   9.285  0.5189 -0.0163 -0.5490
  105OSM   H15S10732   0.475   2.648   9.279 -0.8681  0.0478  0.3892
  105OSM   H15T10733   0.593   2.786   9.272  0.6073  1.0790  1.8540
  105OSM   C16S10734   0.403   2.821   9.167 -0.0560 -0.3630 -0.5574
  105OSM   H16S10735   0.298   2.817   9.201  0.1960  0.7938  0.4526
  105OSM   H16T10736   0.431   2.760   9.079  1.4681  0.1588 -0.4641
  105OSM   C17S10737   0.443   2.970   9.133 -0.9077 -0.5542 -0.0297
  105OSM   H17S10738   0.544   2.978   9.088 -0.4422 -0.3917  1.0259
  105OSM   H17T10739   0.444   3.025   9.230  1.6278  0.6090 -0.6165
  105OSM   C18S10740   0.343   3.042   9.046 -0.4688  0.3397 -0.8504
  105OSM   H18S10741   0.376   3.148   9.050  1.8078 -0.2943 -1.7269
  105OSM   H18T10742   0.238   3.033   9.083  0.6691  0.6478  2.8295
  105OSM   H18U10743   0.356   2.999   8.945 -1.4339 -2.8813  0.2495
  105OSM    C1F10744   1.292   2.872  10.298  0.1257  0.6050 -0.4562
  105OSM     OF10745   1.284   2.752  10.301 -0.1430 -0.1721  0.2052
  105OSM    C2F10746   1.368   2.945  10.187  0.3504 -0.4549  0.4593
  105OSM    H2F10747   1.450   3.005  10.232 -0.8573  0.6731  1.2179
  105OSM    H2G10748   1.292   3.013  10.143 -0.0640  0.1734  2.0788
  105OSM    C3F10749   1.430   2.845  10.087  0.5740 -0.0527  0.7276
  105OSM    H3F10750   1.365   2.759  10.060 -0.5552  1.4102 -1.4621
  105OSM    H3G10751   1.523   2.811  10.137  0.5270  0.8402  1.4642
  105OSM    C4F10752   1.478   2.916   9.958 -0.2346  0.4407  0.1933
  105OSM    H4F10753   1.521   3.016   9.980 -0.3496  0.6394 -0.4664
  105OSM    H4G10754   1.392   2.942   9.893  0.6418  3.2275  0.0199
  105OSM    C5F10755   1.588   2.836   9.889 -0.3092  0.3274  0.1476
  105OSM    H5F10756   1.538   2.747   9.845 -0.0526  0.9892 -1.5919
  105OSM    H5G10757   1.657   2.813   9.973 -0.9818  0.6617  0.7948
  105OSM    C6F10758   1.657   2.918   9.779  0.1746 -0.3981  0.0594
  105OSM    H6F10759   1.757   2.946   9.819  0.2684 -0.5356 -0.0808
  105OSM    H6G10760   1.602   3.013   9.766  0.2605 -0.2615  0.6301
  105OSM    C7F10761   1.674   2.853   9.644  0.0557  0.1211  0.4286
  105OSM    H7F10762   1.576   2.835   9.594  0.0393  0.6553  0.2571
  105OSM    H7G10763   1.713   2.752   9.667  0.2919  0.1804  0.2861
  105OSM    C8F10764   1.782   2.920   9.560 -0.1689  0.2693 -0.3778
  105OSM    H8F10765   1.882   2.923   9.608  0.5138  0.1553 -1.7596
  105OSM    H8G10766   1.750   3.024   9.537  0.6096  1.3237  2.7519
  105OSM    C9F10767   1.804   2.846   9.434 -0.2598  0.0213  0.4784
  105OSM    H9F10768   1.888   2.777   9.449  0.2219  0.2630 -0.9706
  105OSM   C10F10769   1.740   2.854   9.316  0.2508  0.2847 -0.3513
  105OSM   H10F10770   1.762   2.782   9.236 -0.3240  0.8168 -0.9970
  105OSM   C11F10771   1.618   2.935   9.289  0.4971 -0.2666 -0.4173
  105OSM   H11F10772   1.597   3.003   9.374 -0.4389  0.7669 -1.4404
  105OSM   H11G10773   1.529   2.869   9.290  0.6804 -0.5448 -1.4130
  105OSM   C12F10774   1.616   3.016   9.156 -0.2302  0.1957  0.0056
  105OSM   H12F10775   1.716   3.058   9.135 -1.0419  0.9607 -2.7117
  105OSM   H12G10776   1.549   3.105   9.158  2.7107  2.5533 -0.3498
  105OSM   C13F10777   1.571   2.921   9.043  0.0386 -0.3020  0.7159
  105OSM   H13F10778   1.463   2.897   9.055 -0.3660  1.9352  1.9907
  105OSM   H13G10779   1.626   2.825   9.039  1.8720  0.6253  2.1903
  105OSM   C14F10780   1.582   2.988   8.910  0.5439 -0.1463  0.8347
  105OSM   H14F10781   1.689   3.014   8.897  0.9263 -2.1145 -0.4704
  105OSM   H14G10782   1.517   3.078   8.913 -1.5579 -1.5894  0.2106
  105OSM   C15F10783   1.556   2.888   8.789  0.8574 -0.6461 -0.5520
  105OSM   H15F10784   1.625   2.801   8.802  1.2818 -0.1223  0.8693
  105OSM   H15G10785   1.577   2.947   8.697 -1.0176  1.4534  0.3066
  105OSM   C16F10786   1.411   2.835   8.794 -0.2489 -0.4140  0.6214
  105OSM   H16F10787   1.341   2.919   8.814  0.4445  1.2237 -2.9751
  105OSM   H16G10788   1.400   2.749   8.863 -0.5751 -0.7454  0.1521
  105OSM   C17F10789   1.357   2.783   8.658  0.2718  0.6454  0.8545
  105OSM   H17F10790   1.431   2.710   8.618 -1.4608 -0.1310 -1.1630
  105OSM   H17G10791   1.336   2.860   8.580  0.5115 -1.7046 -1.6680
  105OSM   C18F10792   1.217   2.716   8.677 -0.4115  0.0204  0.2323
  105OSM   H18F10793   1.191   2.645   8.596 -0.7092  1.7887 -1.2739
  105OSM   H18G10794   1.136   2.792   8.679  1.2141  1.8190  0.8777
  105OSM   H18H10795   1.210   2.649   8.766 -1.8290 -1.9150 -1.2541
  106OSM      N10796   6.172   2.596  11.135 -0.4019 -0.1974 -0.1055
  106OSM    C1510797   6.288   2.580  11.228  0.1400 -0.5652  0.1160
  106OSM   H15A10798   6.377   2.573  11.167 -1.0465  1.0076 -1.9582
  106OSM   H15B10799   6.280   2.494  11.292 -2.2745  1.3770  2.6433
  106OSM   H15C10800   6.301   2.665  11.293  1.5378 -0.1050 -0.7055
  106OSM    C1410801   6.153   2.472  11.047 -0.1859  0.1426 -0.2812
  106OSM   H14A10802   6.064   2.475  10.985 -2.3957 -2.8500  2.4163
  106OSM   H14B10803   6.146   2.381  11.104 -0.9163  0.3971  0.0482
  106OSM   H14C10804   6.237   2.467  10.980 -0.2341  3.8459 -0.8114
  106OSM    C1310805   6.046   2.603  11.211 -0.0958  0.2765 -0.4883
  106OSM   H13A10806   6.033   2.697  11.262  0.7335  0.0285  0.2063
  106OSM   H13B10807   6.052   2.526  11.286  1.1627  1.9824  1.2534
  106OSM   H13C10808   5.962   2.584  11.146 -0.3249 -2.1511  0.4254
  106OSM    C1210809   6.192   2.719  11.048  0.3917  0.0506 -0.3886
  106OSM   H12A10810   6.204   2.809  11.106 -1.5705  0.9704 -1.3262
  106OSM   H12B10811   6.103   2.734  10.990  1.0775 -0.7873 -1.7138
  106OSM    C1110812   6.306   2.712  10.940 -0.0245 -0.2402 -0.2037
  106OSM   H11A10813   6.337   2.808  10.895  0.4251 -0.8282 -1.1780
  106OSM   H11B10814   6.267   2.649  10.857 -2.0989 -0.3531  0.7835
  106OSM      P10815   6.516   2.549  10.915 -0.0570 -0.3119 -0.4316
  106OSM    O1310816   6.658   2.586  10.941 -0.1514 -0.5936 -0.1568
  106OSM    O1410817   6.467   2.408  10.937  0.1482 -0.7267 -0.2738
  106OSM    O1110818   6.468   2.583  10.768 -0.2689 -0.0091  0.6854
  106OSM    O1210819   6.422   2.646  10.994 -0.7259 -0.1561 -0.1100
  106OSM    C1S10820   6.540   2.671  10.684 -0.2734  0.2652  0.1510
  106OSM    H1S10821   6.639   2.694  10.730 -0.4422 -0.4558  0.8853
  106OSM    H1T10822   6.490   2.769  10.672  2.0090  1.6068  0.8538
  106OSM     NF10823   6.664   2.654  10.474 -0.2352  0.2227 -0.0184
  106OSM    HNF10824   6.651   2.743  10.430 -1.3764 -0.2786 -0.7341
  106OSM    C2S10825   6.548   2.610  10.538  0.3760 -0.6945 -0.2632
  106OSM    H2S10826   6.555   2.499  10.540  3.0645 -0.5717  1.6346
  106OSM    C3S10827   6.409   2.654  10.476  0.5128 -0.6404 -0.0986
  106OSM    H3S10828   6.405   2.764  10.483  2.3373 -0.6229  1.2915
  106OSM     O310829   6.301   2.589  10.545  0.1213 -0.2042 -0.3970
  106OSM    HO310830   6.349   2.544  10.614  0.3631  0.1405 -0.3385
  106OSM    C4S10831   6.413   2.612  10.333 -0.7131  0.1421 -0.2601
  106OSM    H4S10832   6.443   2.699  10.274  1.3185  0.8431  1.6495
  106OSM    C5S10833   6.381   2.495  10.272  0.3519 -0.5398 -0.0792
  106OSM    H5S10834   6.365   2.413  10.345  0.2999  0.2948  0.8727
  106OSM    C6S10835   6.385   2.460  10.130 -0.9277  0.6062  0.1771
  106OSM    H6S10836   6.279   2.443  10.101 -0.7364 -2.2895  0.8765
  106OSM    H6T10837   6.440   2.364  10.118 -0.1393  1.0850 -0.1363
  106OSM    C7S10838   6.428   2.561  10.025 -0.1505 -0.2363 -0.4258
  106OSM    H7S10839   6.537   2.579  10.044 -0.1695  1.0517 -1.4098
  106OSM    H7T10840   6.379   2.660  10.037  0.0014  0.1982 -2.9607
  106OSM    C8S10841   6.433   2.509   9.881  0.8274 -0.1217 -0.3689
  106OSM    H8S10842   6.458   2.401   9.871 -0.4969 -0.8762  3.1538
  106OSM    H8T10843   6.511   2.575   9.838 -0.6156  1.5552 -0.5379
  106OSM    C9S10844   6.294   2.541   9.817  0.3455 -0.2632  0.2524
  106OSM    H9S10845   6.242   2.623   9.870 -0.2296 -0.8903  0.6720
  106OSM    H9T10846   6.218   2.460   9.823 -0.6580  0.3830 -2.2132
  106OSM   C10S10847   6.309   2.581   9.664 -0.0817 -0.0617  0.0366
  106OSM   H10S10848   6.347   2.685   9.667  1.2182 -0.5060 -0.5049
  106OSM   H10T10849   6.203   2.587   9.630 -0.4916 -0.1679  1.2228
  106OSM   C11S10850   6.411   2.494   9.592  0.7668  0.0283  0.7528
  106OSM   H11S10851   6.401   2.387   9.617  2.1524 -0.4789 -0.7256
  106OSM   H11T10852   6.515   2.516   9.623  1.6132 -2.3427 -0.2489
  106OSM   C12S10853   6.380   2.494   9.441  0.9518 -0.6899  0.2526
  106OSM   H12S10854   6.274   2.462   9.426  0.6836  0.2090  0.1482
  106OSM   H12T10855   6.442   2.410   9.403  0.1287 -0.2845 -2.1480
  106OSM   C13S10856   6.411   2.626   9.371 -0.1526  0.9917  0.2605
  106OSM   H13S10857   6.510   2.651   9.413  0.9591 -0.3681 -1.4219
  106OSM   H13T10858   6.327   2.697   9.391 -1.1093  0.3430 -1.2337
  106OSM   C14S10859   6.413   2.607   9.212 -0.2887 -0.0155 -0.7238
  106OSM   H14S10860   6.491   2.529   9.197  1.4867  1.3633  0.8085
  106OSM   H14T10861   6.451   2.706   9.181  2.1717 -0.5431  0.3198
  106OSM   C15S10862   6.272   2.571   9.159 -0.3202  0.2213 -0.3345
  106OSM   H15S10863   6.204   2.653   9.189  0.8232  0.5467  1.4767
  106OSM   H15T10864   6.238   2.474   9.199 -0.4885  0.4114 -0.0149
  106OSM   C16S10865   6.252   2.570   9.004 -0.9398 -0.2751  0.0059
  106OSM   H16S10866   6.346   2.539   8.954 -1.7331 -1.9284 -0.5352
  106OSM   H16T10867   6.229   2.674   8.974  0.2785 -0.4399 -1.6253
  106OSM   C17S10868   6.137   2.481   8.955  0.5976  0.0134 -0.1527
  106OSM   H17S10869   6.113   2.497   8.847  3.7070  2.5862 -0.6326
  106OSM   H17T10870   6.054   2.512   9.021  0.4594  0.8247 -0.6906
  106OSM   C18S10871   6.181   2.335   8.965 -0.2087 -0.2474 -0.4824
  106OSM   H18S10872   6.283   2.317   8.925  0.1418  0.7210 -0.0424
  106OSM   H18T10873   6.120   2.276   8.894 -0.8216 -0.9294  0.5893
  106OSM   H18U10874   6.166   2.279   9.059  2.0467 -0.5049 -0.2186
  106OSM    C1F10875   6.784   2.608  10.508  0.2587 -0.1168 -0.4600
  106OSM     OF10876   6.804   2.520  10.588  0.2162 -0.4493 -0.3610
  106OSM    C2F10877   6.892   2.693  10.447 -0.9042 -0.0283  0.1215
  106OSM    H2F10878   6.948   2.733  10.534 -0.6314  1.7881 -0.8488
  106OSM    H2G10879   6.859   2.781  10.389 -2.3656 -0.6932 -0.0936
  106OSM    C3F10880   6.987   2.619  10.352 -0.3316  1.0403 -0.1962
  106OSM    H3F10881   7.039   2.536  10.404 -2.5204 -0.0715  0.3475
  106OSM    H3G10882   7.071   2.683  10.319 -1.7136  2.3131 -1.3610
  106OSM    C4F10883   6.928   2.558  10.231 -0.4301  0.0786  0.7199
  106OSM    H4F10884   6.828   2.603  10.221 -0.5683 -0.4921 -0.6546
  106OSM    H4G10885   6.924   2.447  10.241 -1.8630 -0.1285 -1.6006
  106OSM    C5F10886   7.005   2.597  10.104 -0.6464 -0.2693  0.0130
  106OSM    H5F10887   7.109   2.563  10.120 -1.1859 -0.9450  2.4987
  106OSM    H5G10888   7.016   2.708  10.097  0.7097 -0.3303  0.8106
  106OSM    C6F10889   6.933   2.537   9.983 -0.2979 -0.0634 -0.4399
  106OSM    H6F10890   6.836   2.593   9.975 -0.6674 -0.6454 -0.0883
  106OSM    H6G10891   6.904   2.435  10.016 -0.9414  0.2971  0.1406
  106OSM    C7F10892   7.015   2.523   9.853  0.1879 -0.1848  0.8703
  106OSM    H7F10893   7.120   2.498   9.880 -0.4022 -1.8816  1.7650
  106OSM    H7G10894   7.028   2.624   9.810 -0.1864  0.2135  1.6614
  106OSM    C8F10895   6.966   2.417   9.751 -0.0686  0.2574  0.4824
  106OSM    H8F10896   6.957   2.323   9.810  1.0286 -0.7123 -0.8288
  106OSM    H8G10897   7.048   2.396   9.679 -0.5363  1.2273 -0.3629
  106OSM    C9F10898   6.841   2.462   9.676  0.2954  0.1773 -0.0663
  106OSM    H9F10899   6.761   2.496   9.743 -0.7084 -0.3398 -0.9863
  106OSM   C10F10900   6.820   2.443   9.541  0.4739  0.4662  0.0802
  106OSM   H10F10901   6.728   2.485   9.499 -0.5406 -1.5894  0.1341
  106OSM   C11F10902   6.911   2.383   9.445  0.9335 -0.3219 -0.8007
  106OSM   H11F10903   6.970   2.302   9.493  1.7082  1.7363  2.0304
  106OSM   H11G10904   6.984   2.453   9.400  0.3210 -0.2340 -1.6878
  106OSM   C12F10905   6.821   2.329   9.333 -0.0369 -0.3697 -0.1179
  106OSM   H12F10906   6.896   2.280   9.268  1.1282  1.1646  0.0229
  106OSM   H12G10907   6.768   2.404   9.270 -1.8317 -2.3525 -1.0790
  106OSM   C13F10908   6.718   2.223   9.371  0.2532  0.7485 -0.1008
  106OSM   H13F10909   6.669   2.180   9.280 -0.6393 -0.3703  0.8750
  106OSM   H13G10910   6.634   2.277   9.419 -0.1521 -1.0853  1.3588
  106OSM   C14F10911   6.764   2.098   9.454  0.2351 -0.1734 -0.6165
  106OSM   H14F10912   6.675   2.034   9.471  0.0270  0.7079  1.9690
  106OSM   H14G10913   6.801   2.142   9.549  0.2385 -1.4310 -0.0228
  106OSM   C15F10914   6.872   2.024   9.390 -0.1756 -0.3945 -0.5639
  106OSM   H15F10915   6.906   1.945   9.460 -1.9506 -2.2239 -1.6650
  106OSM   H15G10916   6.957   2.091   9.366 -0.5290 -0.0372 -0.8367
  106OSM   C16F10917   6.840   1.970   9.256 -0.3915  1.2163 -0.0379
  106OSM   H16F10918   6.843   2.052   9.182  2.1887  1.2409  0.0092
  106OSM   H16G10919   6.743   1.915   9.265  0.9658 -1.4677 -0.6551
  106OSM   C17F10920   6.934   1.853   9.208  0.1971  0.3048 -0.1849
  106OSM   H17F10921   6.920   1.772   9.283  0.2780  1.3101  0.9437
  106OSM   H17G10922   7.039   1.890   9.206 -0.3821  1.9995 -0.1914
  106OSM   C18F10923   6.891   1.790   9.072 -0.2536  0.6217  0.7071
  106OSM   H18F10924   6.982   1.744   9.029 -0.6496  0.3005  0.1982
  106OSM   H18G10925   6.847   1.858   8.996  0.7534  1.0273  0.4667
  106OSM   H18H10926   6.825   1.702   9.088  1.5168 -0.8939 -0.0202
  107OSM      N10927   1.000   5.752  10.965 -0.3907  0.0239  0.1170
  107OSM    C1510928   1.056   5.873  11.034  0.0686 -0.4907 -0.2821
  107OSM   H15A10929   1.080   5.954  10.967 -2.1660  1.0414  0.6313
  107OSM   H15B10930   1.151   5.849  11.080  0.5151 -1.0683 -1.4665
  107OSM   H15C10931   0.975   5.910  11.095  0.3338  1.8628 -1.2501
  107OSM    C1410932   0.961   5.651  11.071 -1.1654  0.0150 -0.3737
  107OSM   H14A10933   0.893   5.581  11.023 -1.2034  2.1224 -3.6956
  107OSM   H14B10934   0.910   5.695  11.156  0.4541 -1.4525  1.4549
  107OSM   H14C10935   1.048   5.611  11.121 -0.7809  0.5225 -0.6302
  107OSM    C1310936   0.871   5.798  10.899  0.1311 -0.6250  0.3352
  107OSM   H13A10937   0.882   5.892  10.847 -0.8792  0.1305  1.4219
  107OSM   H13B10938   0.794   5.808  10.975 -0.0581 -1.6884  0.3052
  107OSM   H13C10939   0.825   5.721  10.838  0.2212  1.0476 -1.9655
  107OSM    C1210940   1.088   5.690  10.858 -0.0264 -0.0650 -1.0208
  107OSM   H12A10941   1.124   5.762  10.786 -0.5756  0.1756 -1.0613
  107OSM   H12B10942   1.032   5.618  10.800 -1.2108  1.8863 -2.4214
  107OSM    C1110943   1.219   5.625  10.915  0.3246  0.0919  0.3761
  107OSM   H11A10944   1.216   5.548  10.995  0.6778 -2.2235 -1.7004
  107OSM   H11B10945   1.285   5.705  10.955  0.2796 -0.9614  2.6582
  107OSM      P10946   1.401   5.466  10.818  0.1958  0.1856  0.1227
  107OSM    O1310947   1.531   5.539  10.817  0.0157 -0.0859  0.2644
  107OSM    O1410948   1.364   5.366  10.919  0.6997  0.3537  0.1789
  107OSM    O1110949   1.394   5.386  10.683 -0.0831 -0.2792  0.1789
  107OSM    O1210950   1.285   5.573  10.803  0.2464 -0.1523  0.5522
  107OSM    C1S10951   1.295   5.402  10.583  0.1811 -0.1066  0.6120
  107OSM    H1S10952   1.277   5.510  10.564  0.6911 -0.2734 -0.9073
  107OSM    H1T10953   1.200   5.355  10.615 -1.8167  2.8975 -0.4603
  107OSM     NF10954   1.253   5.373  10.332  0.5110 -0.2690  0.1283
  107OSM    HNF10955   1.175   5.313  10.317 -0.5410  1.2073 -0.6792
  107OSM    C2S10956   1.340   5.338  10.450 -0.3922  0.3433  0.0307
  107OSM    H2S10957   1.442   5.375  10.426  0.6196  0.0699  3.4786
  107OSM    C3S10958   1.358   5.178  10.459  0.0293 -0.1870  0.6497
  107OSM    H3S10959   1.257   5.135  10.441  0.0197 -0.0148  0.2874
  107OSM     O310960   1.406   5.134  10.588  0.0936  0.3750 -0.3010
  107OSM    HO310961   1.412   5.215  10.640 -0.4370 -0.4821  1.1463
  107OSM    C4S10962   1.437   5.130  10.339  0.3089 -0.6291  0.1079
  107OSM    H4S10963   1.546   5.123  10.355  0.7065  1.5573 -1.1536
  107OSM    C5S10964   1.386   5.100  10.222 -0.2849 -0.4366  0.2342
  107OSM    H5S10965   1.277   5.093  10.211 -0.2000 -0.0785 -0.9119
  107OSM    C6S10966   1.458   5.044  10.104  0.2187  0.9208 -0.4134
  107OSM    H6S10967   1.463   4.933  10.102 -0.1049  0.9062 -1.9472
  107OSM    H6T10968   1.563   5.078  10.099  1.6231 -3.0900 -2.5493
  107OSM    C7S10969   1.394   5.105   9.975  0.0956 -0.3690  0.6454
  107OSM    H7S10970   1.387   5.215   9.985  1.3841 -0.0502 -1.3856
  107OSM    H7T10971   1.300   5.053   9.948  0.4747 -0.9511  0.4255
  107OSM    C8S10972   1.491   5.087   9.859 -0.9568  0.3435  0.5575
  107OSM    H8S10973   1.510   4.978   9.842  2.8068  1.0752 -1.1042
  107OSM    H8T10974   1.593   5.122   9.886 -1.9793  2.7736  1.5199
  107OSM    C9S10975   1.446   5.174   9.736 -0.6259  0.6954  0.7597
  107OSM    H9S10976   1.417   5.277   9.765 -0.6138  0.9075  0.0387
  107OSM    H9T10977   1.352   5.133   9.694  0.0119  1.2132 -1.3022
  107OSM   C10S10978   1.547   5.177   9.623  0.0982  0.0142  0.0849
  107OSM   H10S10979   1.568   5.076   9.583  0.7134 -0.0454  0.5549
  107OSM   H10T10980   1.638   5.223   9.667 -1.4527  2.1964  1.2129
  107OSM   C11S10981   1.499   5.258   9.500 -0.0498  0.3299 -0.3448
  107OSM   H11S10982   1.460   5.361   9.512 -2.2959 -0.5941  0.7304
  107OSM   H11T10983   1.404   5.213   9.465  0.7336 -0.4361 -1.6000
  107OSM   C12S10984   1.587   5.254   9.373 -0.1112 -0.1634  0.4669
  107OSM   H12S10985   1.625   5.152   9.351 -0.0250 -0.1884  0.7304
  107OSM   H12T10986   1.671   5.324   9.385  0.1045 -0.6208  1.8151
  107OSM   C13S10987   1.508   5.289   9.246  0.4616 -0.3416  0.2134
  107OSM   H13S10988   1.463   5.389   9.268 -1.5698 -1.3054  0.6845
  107OSM   H13T10989   1.423   5.220   9.227  0.3977 -0.5556  1.2310
  107OSM   C14S10990   1.592   5.305   9.117  0.4875 -0.0685 -0.8557
  107OSM   H14S10991   1.638   5.209   9.088 -1.0861 -1.4009  0.7988
  107OSM   H14T10992   1.681   5.368   9.136 -0.6049  1.2154  0.3081
  107OSM   C15S10993   1.508   5.355   9.004 -0.3898  0.0897  0.1270
  107OSM   H15S10994   1.463   5.452   9.034  1.7727  1.2268 -0.0504
  107OSM   H15T10995   1.438   5.280   8.961 -0.6247 -0.3108  1.1917
  107OSM   C16S10996   1.600   5.389   8.880  0.7471 -0.0515  0.8709
  107OSM   H16S10997   1.676   5.310   8.859  0.6984 -0.1170  0.9375
  107OSM   H16T10998   1.649   5.485   8.903  1.2682  0.6154 -2.4451
  107OSM   C17S10999   1.519   5.415   8.754 -0.0056  0.3344 -0.7802
  107OSM   H17S11000   1.448   5.494   8.789  0.7895 -0.3522  2.8212
  107OSM   H17T11001   1.464   5.322   8.728  1.0557 -0.5916  0.1878
  107OSM   C18S11002   1.604   5.449   8.634 -1.0216  0.1560  0.0918
  107OSM   H18S11003   1.668   5.362   8.608 -2.1072 -0.3243 -1.0812
  107OSM   H18T11004   1.663   5.543   8.643 -3.4014  1.8751 -0.9778
  107OSM   H18U11005   1.546   5.462   8.540  1.9188  1.4354 -1.6664
  107OSM    C1F11006   1.254   5.496  10.282  0.3684  0.6481  0.2262
  107OSM     OF11007   1.322   5.586  10.334 -0.0321 -0.3374  0.3016
  107OSM    C2F11008   1.152   5.525  10.171  0.1357  0.5383  0.8760
  107OSM    H2F11009   1.143   5.635  10.157 -2.4632  0.2181 -0.7351
  107OSM    H2G11010   1.059   5.475  10.205  0.0538 -0.7477 -1.0602
  107OSM    C3F11011   1.202   5.458  10.039 -0.4427  0.0248  0.0219
  107OSM    H3F11012   1.204   5.347  10.038  3.0469 -0.0320  0.6787
  107OSM    H3G11013   1.307   5.489  10.023 -0.1993 -1.3973 -1.3046
  107OSM    C4F11014   1.127   5.511   9.919  0.2617 -0.2710 -0.1398
  107OSM    H4F11015   1.133   5.621   9.916 -0.7171 -0.0747  2.2861
  107OSM    H4G11016   1.021   5.484   9.940 -0.2843  1.0825 -1.0666
  107OSM    C5F11017   1.176   5.444   9.789 -0.4493  0.3876  0.3465
  107OSM    H5F11018   1.176   5.333   9.786  1.7672  0.3391 -1.9319
  107OSM    H5G11019   1.282   5.473   9.774 -0.3761 -0.2433 -0.4525
  107OSM    C6F11020   1.106   5.489   9.660 -0.0776 -0.6606  0.3366
  107OSM    H6F11021   1.118   5.597   9.638  2.1018 -0.6703  1.2157
  107OSM    H6G11022   0.998   5.461   9.660 -0.3635  0.3769  1.0014
  107OSM    C7F11023   1.169   5.418   9.543 -0.4221 -0.2196 -0.3150
  107OSM    H7F11024   1.151   5.309   9.554 -1.2223  0.0904  1.9900
  107OSM    H7G11025   1.276   5.435   9.567 -0.3991 -0.2382 -0.4017
  107OSM    C8F11026   1.133   5.481   9.405 -0.2474 -0.4896 -0.2674
  107OSM    H8F11027   1.171   5.585   9.394 -2.2649  0.2728 -0.4968
  107OSM    H8G11028   1.022   5.487   9.398 -0.4927 -0.8066  2.4260
  107OSM    C9F11029   1.182   5.393   9.296 -0.1168 -0.1003 -0.5827
  107OSM    H9F11030   1.238   5.310   9.342 -0.0124  0.2645 -0.0343
  107OSM   C10F11031   1.201   5.410   9.167  0.6334  1.0551  0.4524
  107OSM   H10F11032   1.259   5.333   9.113 -0.4642  0.7842 -0.3833
  107OSM   C11F11033   1.158   5.527   9.076  0.1287  0.1915 -0.6308
  107OSM   H11F11034   1.251   5.571   9.034  0.1940 -0.9367 -1.6837
  107OSM   H11G11035   1.088   5.598   9.126 -0.1368 -2.1717  2.6234
  107OSM   C12F11036   1.083   5.470   8.957  0.5893  0.4944 -0.5206
  107OSM   H12F11037   0.979   5.441   8.984  0.2226  0.5503 -1.8137
  107OSM   H12G11038   1.139   5.381   8.921 -0.0025  0.1151 -0.5262
  107OSM   C13F11039   1.082   5.557   8.830 -0.7663  0.3678  0.0496
  107OSM   H13F11040   1.178   5.613   8.830 -1.0216  0.8396  1.4975
  107OSM   H13G11041   0.993   5.623   8.827 -0.5815  0.5872 -1.8820
  107OSM   C14F11042   1.074   5.460   8.702  0.2805 -0.6661  0.1118
  107OSM   H14F11043   1.016   5.367   8.720  1.2754 -1.0835  1.3031
  107OSM   H14G11044   1.175   5.423   8.676  0.5096 -0.6721  0.9855
  107OSM   C15F11045   1.019   5.546   8.589 -0.4460  0.6659 -0.1286
  107OSM   H15F11046   1.088   5.629   8.563 -0.1967  0.7799  0.8643
  107OSM   H15G11047   0.925   5.598   8.618 -1.2846  1.3749 -3.6111
  107OSM   C16F11048   0.984   5.469   8.463  0.0100  0.2352  0.4038
  107OSM   H16F11049   0.935   5.537   8.391 -1.8459 -0.3203  1.1016
  107OSM   H16G11050   0.913   5.391   8.495 -1.0739  1.1212  0.2025
  107OSM   C17F11051   1.108   5.412   8.387  0.7206 -0.1827 -0.3622
  107OSM   H17F11052   1.070   5.359   8.297 -0.8475  1.1375 -0.5217
  107OSM   H17G11053   1.159   5.336   8.450 -0.0733 -0.4003  0.0380
  107OSM   C18F11054   1.206   5.512   8.324  0.0886 -0.4451 -0.6714
  107OSM   H18F11055   1.149   5.576   8.253  0.4930  0.5735 -0.0927
  107OSM   H18G11056   1.291   5.464   8.272  0.2199 -1.0498  0.0888
  107OSM   H18H11057   1.257   5.579   8.396 -0.9788 -0.7886  0.4375
  108OSM      N11058   5.264   4.303  11.305 -0.7283  0.4460 -0.3066
  108OSM    C1511059   5.190   4.347  11.419  0.0688 -0.6622 -1.0789
  108OSM   H15A11060   5.189   4.276  11.500  0.2821 -0.0877 -0.5696
  108OSM   H15B11061   5.088   4.378  11.402  0.6294  2.0045 -0.0853
  108OSM   H15C11062   5.237   4.436  11.459  0.9399 -1.3294 -0.5947
  108OSM    C1411063   5.416   4.309  11.331  0.2001  0.5431  0.4600
  108OSM   H14A11064   5.442   4.221  11.388  0.1356  0.9418  1.1178
  108OSM   H14B11065   5.440   4.391  11.397 -0.3789  0.6489  0.5481
  108OSM   H14C11066   5.474   4.316  11.241 -1.8484 -0.3534 -1.0259
  108OSM    C1311067   5.219   4.163  11.273  0.4375 -0.2228 -0.0044
  108OSM   H13A11068   5.268   4.125  11.184  0.2475 -1.0970  0.2598
  108OSM   H13B11069   5.115   4.176  11.249  0.2211  0.4224  1.1964
  108OSM   H13C11070   5.229   4.085  11.347 -1.9380 -0.7302 -0.1649
  108OSM    C1211071   5.232   4.396  11.183 -0.2056  0.4740  0.7617
  108OSM   H12A11072   5.287   4.356  11.099  0.2780  1.6489  0.5095
  108OSM   H12B11073   5.269   4.495  11.203 -0.1239  0.3856  1.0590
  108OSM    C1111074   5.091   4.409  11.136  0.0693 -0.5046  0.3908
  108OSM   H11A11075   5.088   4.495  11.065 -3.3792 -1.4749 -0.8074
  108OSM   H11B11076   5.040   4.434  11.231 -2.3526  0.2658 -1.0377
  108OSM      P11077   5.094   4.254  10.936  0.2420  0.0999 -0.1275
  108OSM    O1311078   5.201   4.350  10.904  0.2204  0.3774  0.3324
  108OSM    O1411079   5.117   4.107  10.930  0.2152  0.5393 -1.4631
  108OSM    O1111080   4.978   4.289  10.835  0.5568 -0.1608  0.0966
  108OSM    O1211081   5.039   4.287  11.081 -1.3697  0.5860  0.2865
  108OSM    C1S11082   4.946   4.421  10.793 -0.1924 -0.6382 -0.3532
  108OSM    H1S11083   5.026   4.496  10.812  0.5150 -0.5450 -3.2477
  108OSM    H1T11084   4.851   4.452  10.842  0.1659 -0.2692  0.1204
  108OSM     NF11085   4.909   4.573  10.601  0.3654 -0.2937 -0.5458
  108OSM    HNF11086   4.816   4.600  10.577  0.1447  0.1971  0.7940
  108OSM    C2S11087   4.920   4.432  10.644  0.4282  0.4520 -0.0210
  108OSM    H2S11088   5.011   4.396  10.592  0.1769  0.6875 -0.6400
  108OSM    C3S11089   4.793   4.345  10.603  0.8318  0.0438  0.2899
  108OSM    H3S11090   4.705   4.390  10.654 -0.2874 -0.9032 -0.7509
  108OSM     O311091   4.788   4.211  10.646 -0.5357 -0.1083  0.1163
  108OSM    HO311092   4.856   4.197  10.711  0.6188 -0.0319 -1.0315
  108OSM    C4S11093   4.789   4.344  10.448 -0.3740  0.5514 -0.3638
  108OSM    H4S11094   4.883   4.308  10.405  0.6773  2.0240  0.6148
  108OSM    C5S11095   4.682   4.368  10.374  0.6715  0.8386 -0.1905
  108OSM    H5S11096   4.596   4.397  10.436  0.3017 -1.1163  0.2810
  108OSM    C6S11097   4.663   4.372  10.228 -0.0513  0.0863  0.0473
  108OSM    H6S11098   4.637   4.471  10.185 -1.7346 -0.3609 -0.0472
  108OSM    H6T11099   4.575   4.307  10.208  1.0612 -0.6910 -2.7071
  108OSM    C7S11100   4.775   4.311  10.135  0.1474  0.7137  0.0592
  108OSM    H7S11101   4.803   4.207  10.159 -0.3556  0.4310 -0.5630
  108OSM    H7T11102   4.867   4.374  10.132  0.8979 -0.3940 -2.2383
  108OSM    C8S11103   4.730   4.300   9.990 -0.2812 -0.0838 -0.1311
  108OSM    H8S11104   4.691   4.400   9.963 -1.7822 -0.7788 -0.6337
  108OSM    H8T11105   4.645   4.229   9.984 -0.1810 -0.2987  0.8251
  108OSM    C9S11106   4.837   4.262   9.886  0.1378 -0.0201 -0.3702
  108OSM    H9S11107   4.880   4.168   9.926 -1.2468 -0.4980  0.0787
  108OSM    H9T11108   4.917   4.338   9.890 -2.4599  2.8448  1.4572
  108OSM   C10S11109   4.781   4.247   9.745 -0.1999 -0.0717  0.5109
  108OSM   H10S11110   4.735   4.336   9.699  0.4036  0.1078  0.2418
  108OSM   H10T11111   4.689   4.185   9.759  0.0139 -0.2243  1.3167
  108OSM   C11S11112   4.888   4.179   9.654 -0.0568  0.7201  0.4974
  108OSM   H11S11113   4.920   4.081   9.695 -0.7976 -0.6021 -1.8995
  108OSM   H11T11114   4.972   4.252   9.660 -1.8427  2.8043  4.8200
  108OSM   C12S11115   4.827   4.154   9.518 -0.5623 -0.2049 -0.1464
  108OSM   H12S11116   4.807   4.256   9.480 -0.7415 -0.3249 -0.3727
  108OSM   H12T11117   4.731   4.098   9.522 -0.6260 -0.0687  0.2748
  108OSM   C13S11118   4.912   4.086   9.406 -0.4969  0.3592  0.3655
  108OSM   H13S11119   4.925   3.976   9.416 -1.9007  0.0006 -1.2087
  108OSM   H13T11120   5.011   4.137   9.402 -0.1926 -0.2827 -0.9416
  108OSM   C14S11121   4.864   4.111   9.262  0.2689  0.4782  0.6747
  108OSM   H14S11122   4.839   4.217   9.240 -1.1609 -0.2868 -1.7961
  108OSM   H14T11123   4.762   4.067   9.253 -0.7257  2.7278  0.0908
  108OSM   C15S11124   4.963   4.067   9.155 -0.2106  0.7547  0.0098
  108OSM   H15S11125   5.001   3.971   9.195 -1.0480  0.6621  0.5997
  108OSM   H15T11126   5.049   4.137   9.151 -0.0069  0.5576  0.7883
  108OSM   C16S11127   4.907   4.032   9.023  0.1290 -0.2179  0.1961
  108OSM   H16S11128   4.868   4.126   8.977  0.7582  0.0528  0.2046
  108OSM   H16T11129   4.837   3.949   9.046 -0.7314 -0.0964 -1.7498
  108OSM   C17S11130   4.996   3.974   8.908 -0.6047  0.6002 -0.0888
  108OSM   H17S11131   5.058   4.063   8.884 -0.0037  1.2018  3.2210
  108OSM   H17T11132   4.919   3.942   8.834 -0.2677 -2.1057  0.6141
  108OSM   C18S11133   5.071   3.846   8.945 -0.2923 -0.2429  1.0029
  108OSM   H18S11134   5.144   3.879   9.022  0.7638  1.8354 -0.7879
  108OSM   H18T11135   5.128   3.805   8.859  1.0741  0.0164  1.7642
  108OSM   H18U11136   4.993   3.775   8.982 -1.6835  1.3913  1.3184
  108OSM    C1F11137   5.009   4.655  10.592 -0.5910  0.1624 -0.8298
  108OSM     OF11138   5.120   4.622  10.627 -0.1471 -0.6619 -0.2505
  108OSM    C2F11139   4.984   4.797  10.551 -0.0216  0.0056 -0.5419
  108OSM    H2F11140   5.079   4.833  10.508 -0.8194  1.2406 -1.3329
  108OSM    H2G11141   4.959   4.855  10.643  0.4061 -0.7476  0.0599
  108OSM    C3F11142   4.870   4.817  10.451 -0.3522  0.2776 -0.2472
  108OSM    H3F11143   4.876   4.926  10.428  0.0367  0.8876  2.4335
  108OSM    H3G11144   4.771   4.803  10.500 -0.2063 -0.5953 -0.1841
  108OSM    C4F11145   4.877   4.737  10.316 -0.0005 -0.0267  0.5953
  108OSM    H4F11146   4.783   4.756  10.262  0.7940  0.4910 -0.6466
  108OSM    H4G11147   4.881   4.627  10.333  1.7411  0.0173  0.7544
  108OSM    C5F11148   4.995   4.774  10.227 -0.4589 -0.3403 -0.2050
  108OSM    H5F11149   5.084   4.763  10.292 -0.6243 -0.0403  0.0768
  108OSM    H5G11150   4.997   4.884  10.208 -0.6910 -0.3124 -0.0618
  108OSM    C6F11151   5.010   4.684  10.107 -0.0338  0.7475  0.3533
  108OSM    H6F11152   4.913   4.699  10.055 -0.9180 -0.1270  1.6921
  108OSM    H6G11153   5.019   4.578  10.138  0.1101  0.4091 -0.7733
  108OSM    C7F11154   5.135   4.722  10.023 -0.7011  0.4288 -0.0268
  108OSM    H7F11155   5.226   4.728  10.086 -1.6875 -0.0208  1.4758
  108OSM    H7G11156   5.134   4.815   9.962  0.2539 -0.5568 -1.6413
  108OSM    C8F11157   5.160   4.617   9.911 -0.9226 -0.7119 -0.0418
  108OSM    H8F11158   5.190   4.520   9.955 -1.0104 -0.7864 -0.1448
  108OSM    H8G11159   5.244   4.661   9.854  0.1618  0.2474  2.1654
  108OSM    C9F11160   5.041   4.595   9.824  0.5845  0.7407  0.6088
  108OSM    H9F11161   4.953   4.561   9.880  0.9655 -0.1715  0.6725
  108OSM   C10F11162   5.022   4.611   9.690 -0.7912 -0.9313 -0.1497
  108OSM   H10F11163   4.923   4.589   9.648 -1.3570 -1.3842  1.3604
  108OSM   C11F11164   5.134   4.652   9.595 -0.9223  0.3024 -0.3484
  108OSM   H11F11165   5.228   4.685   9.645 -2.1548 -1.6385  3.5978
  108OSM   H11G11166   5.100   4.746   9.546 -1.2535  1.0293  1.2277
  108OSM   C12F11167   5.153   4.555   9.474 -0.2713  0.0426  0.4200
  108OSM   H12F11168   5.141   4.448   9.500  1.3917 -0.9300 -2.3828
  108OSM   H12G11169   5.258   4.566   9.441 -1.1937  2.1878 -2.1396
  108OSM   C13F11170   5.060   4.592   9.358 -0.1100 -0.6665 -0.2368
  108OSM   H13F11171   5.088   4.686   9.304  3.6335  0.0039  2.4715
  108OSM   H13G11172   4.958   4.607   9.398  0.5287 -1.2875  1.7549
  108OSM   C14F11173   5.043   4.503   9.234 -0.4191  0.5900  0.0910
  108OSM   H14F11174   5.018   4.407   9.283 -0.0411 -0.1271 -1.1081
  108OSM   H14G11175   5.136   4.491   9.175 -1.8497 -1.2599 -1.9459
  108OSM   C15F11176   4.949   4.558   9.127 -0.4494 -0.5849 -0.4858
  108OSM   H15F11177   4.980   4.660   9.093 -2.2030 -0.3048 -1.3318
  108OSM   H15G11178   4.847   4.570   9.169  0.1505  0.3917  0.7727
  108OSM   C16F11179   4.936   4.458   9.006 -0.3282 -0.2792 -1.0131
  108OSM   H16F11180   4.904   4.359   9.043 -1.2009 -0.1120 -1.2951
  108OSM   H16G11181   5.037   4.440   8.962  0.0886  1.0868 -0.6860
  108OSM   C17F11182   4.840   4.509   8.901  0.1615  0.3142 -0.5547
  108OSM   H17F11183   4.865   4.614   8.875 -0.3721  1.5171  3.0880
  108OSM   H17G11184   4.743   4.520   8.954  0.5934  1.1851  0.0888
  108OSM   C18F11185   4.830   4.430   8.770 -0.5552 -0.5309 -0.4643
  108OSM   H18F11186   4.922   4.451   8.711 -1.7669  1.3907 -1.8016
  108OSM   H18G11187   4.736   4.451   8.715 -0.7997  0.3307  0.2540
  108OSM   H18H11188   4.849   4.325   8.800  2.7326 -0.0023 -0.2977
  109OSM      N11189   6.456   5.886  10.537 -0.1244  0.2654  0.2012
  109OSM    C1511190   6.593   5.945  10.517 -0.7226 -0.3570  0.7992
  109OSM   H15A11191   6.599   6.050  10.538  1.8689 -0.2346 -0.1465
  109OSM   H15B11192   6.623   5.936  10.413  1.5023  0.5056  1.3069
  109OSM   H15C11193   6.667   5.897  10.579  0.9179 -1.3658 -1.7483
  109OSM    C1411194   6.416   5.921  10.676 -0.8115  0.2465  0.2809
  109OSM   H14A11195   6.322   5.874  10.701  0.4900 -2.6155  0.2164
  109OSM   H14B11196   6.403   6.027  10.689  0.0817  0.5031 -0.8653
  109OSM   H14C11197   6.488   5.873  10.740  1.1551  0.1178 -1.9132
  109OSM    C1311198   6.364   5.955  10.447  0.0357  0.4771  0.1379
  109OSM   H13A11199   6.268   5.905  10.449 -0.3942  1.2682 -0.1423
  109OSM   H13B11200   6.407   5.958  10.348  0.6823 -0.8337  0.3676
  109OSM   H13C11201   6.354   6.054  10.489 -1.9729 -0.2918  1.6231
  109OSM    C1211202   6.455   5.738  10.522  0.2146 -0.1826 -0.1213
  109OSM   H12A11203   6.494   5.718  10.424  1.3239  0.5637  0.1496
  109OSM   H12B11204   6.357   5.693  10.531  1.8670 -4.2865 -0.6402
  109OSM    C1111205   6.539   5.657  10.629  0.6152 -0.0889  0.5219
  109OSM   H11A11206   6.500   5.553  10.618 -0.7427  0.1786  2.3492
  109OSM   H11B11207   6.513   5.692  10.731  0.9297  0.8422  0.2936
  109OSM      P11208   6.782   5.700  10.723 -0.1908 -0.0678 -0.0796
  109OSM    O1311209   6.731   5.823  10.793  0.6564  0.2125  0.7471
  109OSM    O1411210   6.807   5.579  10.806  0.0896 -0.5659 -0.4563
  109OSM    O1111211   6.913   5.732  10.640 -0.1246  0.1088  0.1586
  109OSM    O1211212   6.677   5.659  10.612 -0.1196 -0.2000  0.4186
  109OSM    C1S11213   6.970   5.630  10.567 -0.5162  1.4117 -0.1062
  109OSM    H1S11214   6.893   5.601  10.492 -1.5676  1.9466  0.7510
  109OSM    H1T11215   6.983   5.534  10.622 -2.7391  0.8989 -0.3762
  109OSM     NF11216   7.129   5.576  10.383 -0.2692  0.3542  0.3796
  109OSM    HNF11217   7.203   5.522  10.422 -1.1978 -1.7615 -0.6058
  109OSM    C2S11218   7.084   5.679  10.476 -0.1577 -0.2409  0.1492
  109OSM    H2S11219   7.049   5.771  10.423 -0.8304 -0.6908 -0.1999
  109OSM    C3S11220   7.195   5.730  10.570 -0.2959  0.1709  0.0248
  109OSM    H3S11221   7.260   5.643  10.594  1.1595  0.7922 -1.4027
  109OSM     O311222   7.158   5.806  10.681  0.2108 -0.4958 -0.0614
  109OSM    HO311223   7.062   5.803  10.675  0.1130 -0.7549  1.4504
  109OSM    C4S11224   7.301   5.800  10.487  0.4932 -0.3609  0.0024
  109OSM    H4S11225   7.376   5.728  10.451  0.1654 -1.3683  1.2875
  109OSM    C5S11226   7.316   5.933  10.463  0.2866  0.0342 -0.1081
  109OSM    H5S11227   7.252   6.011  10.505  0.5884  1.3022 -1.8709
  109OSM    C6S11228   7.420   5.997  10.374  0.5820 -0.1442 -0.0683
  109OSM    H6S11229   7.497   5.923  10.347 -0.4564 -1.4112  0.3605
  109OSM    H6T11230   7.478   6.081  10.419  0.9034  0.0901 -0.9140
  109OSM    C7S11231   7.356   6.058  10.245 -0.6679 -0.3539 -0.3695
  109OSM    H7S11232   7.293   6.145  10.272 -1.4306 -0.9378 -0.2614
  109OSM    H7T11233   7.289   5.981  10.202 -1.5463 -0.4982  1.1794
  109OSM    C8S11234   7.456   6.115  10.137 -0.0544  0.3736  0.4188
  109OSM    H8S11235   7.516   6.026  10.107  2.6068  2.4802 -0.8899
  109OSM    H8T11236   7.525   6.191  10.178 -0.2875  1.5877 -1.3078
  109OSM    C9S11237   7.379   6.170  10.004 -0.4455  0.0591 -0.2172
  109OSM    H9S11238   7.314   6.259  10.021 -0.5227 -0.0157 -0.1216
  109OSM    H9T11239   7.313   6.090   9.965  1.3900 -0.8388 -1.6214
  109OSM   C10S11240   7.476   6.201   9.888 -0.1782  0.8948 -0.6315
  109OSM   H10S11241   7.519   6.110   9.842 -0.0937  0.7455 -0.2542
  109OSM   H10T11242   7.559   6.253   9.940 -0.7350  0.9421  0.2323
  109OSM   C11S11243   7.413   6.292   9.781 -0.0401 -0.1453 -0.0589
  109OSM   H11S11244   7.409   6.398   9.812  0.3891  0.2238 -1.2384
  109OSM   H11T11245   7.309   6.258   9.762 -1.2858  2.8704  0.8758
  109OSM   C12S11246   7.484   6.284   9.643 -0.4194  0.2920 -0.0348
  109OSM   H12S11247   7.589   6.307   9.672 -0.2664  0.0679 -0.4033
  109OSM   H12T11248   7.449   6.366   9.576 -0.6977  0.8983  0.8301
  109OSM   C13S11249   7.476   6.150   9.576 -0.0875 -0.7682 -0.3937
  109OSM   H13S11250   7.423   6.073   9.636 -1.0250 -1.9096 -2.6070
  109OSM   H13T11251   7.574   6.105   9.555  0.4658  0.7174 -1.1525
  109OSM   C14S11252   7.404   6.151   9.440 -0.4181  0.2072  0.3789
  109OSM   H14S11253   7.308   6.203   9.463  0.5633  2.3751 -0.1547
  109OSM   H14T11254   7.380   6.047   9.411 -2.1905  1.0881 -1.6072
  109OSM   C15S11255   7.491   6.227   9.335 -0.2225  0.6609  0.1964
  109OSM   H15S11256   7.576   6.167   9.296  0.1178 -0.0097  1.8522
  109OSM   H15T11257   7.532   6.317   9.385 -0.4136  0.6646  0.3493
  109OSM   C16S11258   7.411   6.268   9.209  0.1116  0.0910  0.5489
  109OSM   H16S11259   7.451   6.358   9.157  1.5158 -0.8856 -0.1517
  109OSM   H16T11260   7.307   6.290   9.238 -0.1391 -2.5285  1.9938
  109OSM   C17S11261   7.441   6.166   9.097  0.0501  0.1217  0.3655
  109OSM   H17S11262   7.434   6.066   9.145 -0.9052 -0.1100 -0.2310
  109OSM   H17T11263   7.547   6.184   9.066 -0.2097  2.4362  0.6478
  109OSM   C18S11264   7.325   6.173   8.986 -0.5434 -0.4179  0.2832
  109OSM   H18S11265   7.224   6.161   9.031 -1.6285  1.0369 -1.5794
  109OSM   H18T11266   7.333   6.097   8.905  0.1799 -1.0660  0.9559
  109OSM   H18U11267   7.330   6.270   8.932  1.1377 -0.2616  0.6789
  109OSM    C1F11268   7.062   5.542  10.276  0.2002 -0.4912 -0.5454
  109OSM     OF11269   6.979   5.618  10.230  0.1170 -0.0769 -0.2818
  109OSM    C2F11270   7.074   5.395  10.227 -0.1378 -0.3043 -0.3764
  109OSM    H2F11271   7.043   5.324  10.307  1.1537  1.1012  1.4717
  109OSM    H2G11272   7.183   5.373  10.226 -0.2751 -1.0051 -1.1858
  109OSM    C3F11273   7.014   5.364  10.090 -0.0148  0.0408  0.5644
  109OSM    H3F11274   6.908   5.395  10.082 -0.1499 -0.9232 -3.0023
  109OSM    H3G11275   7.014   5.254  10.076 -2.8369 -0.1586  1.5909
  109OSM    C4F11276   7.099   5.432   9.973  0.8295 -0.5723  0.4816
  109OSM    H4F11277   7.198   5.384   9.985  0.9933 -0.1518  0.8602
  109OSM    H4G11278   7.104   5.540   9.999 -0.1528 -0.4060  0.0311
  109OSM    C5F11279   7.052   5.410   9.833  0.6532 -0.1119 -0.3374
  109OSM    H5F11280   6.949   5.451   9.825  0.1433 -0.8988  1.5914
  109OSM    H5G11281   7.046   5.302   9.806 -0.5022 -0.0228 -0.4834
  109OSM    C6F11282   7.151   5.468   9.730 -0.3341 -0.5956 -0.0388
  109OSM    H6F11283   7.234   5.397   9.710 -0.0603 -0.6762  1.2846
  109OSM    H6G11284   7.197   5.559   9.772  0.7217  0.2802 -2.8353
  109OSM    C7F11285   7.089   5.513   9.596 -0.1360  0.6110  0.4271
  109OSM    H7F11286   7.170   5.544   9.526  2.3303 -2.1547  1.8152
  109OSM    H7G11287   7.021   5.600   9.610 -2.4654 -1.3069  1.5826
  109OSM    C8F11288   7.011   5.409   9.509  0.1315 -0.1175 -0.0268
  109OSM    H8F11289   6.961   5.466   9.427  0.2168  1.1433  0.7728
  109OSM    H8G11290   6.934   5.371   9.579  0.3499 -0.5980 -0.0412
  109OSM    C9F11291   7.097   5.291   9.461 -0.2684  0.0561  0.2298
  109OSM    H9F11292   7.140   5.230   9.541 -0.4513  0.3246  0.5387
  109OSM   C10F11293   7.124   5.256   9.339 -0.3192 -0.8842 -0.4691
  109OSM   H10F11294   7.185   5.166   9.324 -1.2803 -1.6469  0.0142
  109OSM   C11F11295   7.078   5.332   9.203 -0.4572  0.5631 -0.3772
  109OSM   H11F11296   7.168   5.357   9.143 -0.7845  0.5743 -0.8714
  109OSM   H11G11297   7.027   5.426   9.231  0.1403  1.1002 -1.0707
  109OSM   C12F11298   6.985   5.239   9.123  0.1423 -0.1950 -0.3647
  109OSM   H12F11299   6.889   5.219   9.176  0.0556 -0.0828 -0.4750
  109OSM   H12G11300   7.026   5.139   9.098 -0.4444 -0.0151 -2.1742
  109OSM   C13F11301   6.942   5.298   8.988 -0.0100  0.1689 -0.5094
  109OSM   H13F11302   6.896   5.394   9.019 -1.6430 -0.9987  0.8671
  109OSM   H13G11303   6.861   5.228   8.958 -0.5589 -0.0470  1.3832
  109OSM   C14F11304   7.059   5.309   8.887 -0.5396 -0.0610 -0.5850
  109OSM   H14F11305   7.090   5.203   8.874  1.2966  0.5536 -1.4952
  109OSM   H14G11306   7.132   5.379   8.933 -2.0042  0.3351  1.2984
  109OSM   C15F11307   7.010   5.353   8.746  0.1245  0.1616 -0.7235
  109OSM   H15F11308   7.094   5.364   8.674  1.5019  4.6076  1.2162
  109OSM   H15G11309   6.956   5.450   8.748 -2.2443 -1.1075  1.3677
  109OSM   C16F11310   6.920   5.252   8.679  0.7980  0.0545  0.5418
  109OSM   H16F11311   6.836   5.231   8.749 -0.4799  1.3450 -0.5147
  109OSM   H16G11312   6.969   5.154   8.662  1.9658  0.9194 -1.4360
  109OSM   C17F11313   6.848   5.304   8.557 -0.2086 -0.2396  0.1339
  109OSM   H17F11314   6.784   5.389   8.589 -2.7978 -0.5955 -3.4473
  109OSM   H17G11315   6.765   5.243   8.514 -0.5280  0.8965 -0.9384
  109OSM   C18F11316   6.937   5.333   8.433 -0.0097  0.0275  1.3859
  109OSM   H18F11317   6.871   5.348   8.345 -0.4586 -1.5701  1.4294
  109OSM   H18G11318   7.003   5.248   8.406  1.1924  0.9417  1.3338
  109OSM   H18H11319   6.999   5.425   8.441  1.3929 -0.6309 -1.0485
  110OSM      N11320   2.446   3.558  11.230  0.1561 -0.3975  0.1188
  110OSM    C1511321   2.439   3.408  11.248  0.0143 -0.1385 -0.3409
  110OSM   H15A11322   2.531   3.355  11.229 -0.1884 -0.2163 -1.1221
  110OSM   H15B11323   2.358   3.374  11.186  0.9075 -1.3220 -0.9012
  110OSM   H15C11324   2.421   3.388  11.353 -0.1784 -1.3584 -0.5934
  110OSM    C1411325   2.307   3.612  11.264  0.4733  0.4860 -0.1365
  110OSM   H14A11326   2.236   3.553  11.207 -2.6153  1.0339  2.8174
  110OSM   H14B11327   2.296   3.714  11.230  0.5101  0.6335  0.2871
  110OSM   H14C11328   2.276   3.607  11.367 -0.2895  0.6311 -0.3537
  110OSM    C1311329   2.543   3.615  11.324 -0.3448  0.2949 -0.1832
  110OSM   H13A11330   2.542   3.723  11.326 -1.7420  0.2936  0.8101
  110OSM   H13B11331   2.643   3.584  11.298  1.2803  3.6040  1.4666
  110OSM   H13C11332   2.537   3.576  11.424  0.9512  0.3144 -0.0884
  110OSM    C1211333   2.474   3.605  11.081  0.4375  0.0239 -0.6428
  110OSM   H12A11334   2.579   3.615  11.057  0.5618  1.3069  0.3573
  110OSM   H12B11335   2.444   3.708  11.078  0.9999  0.2352  0.5114
  110OSM    C1111336   2.389   3.537  10.965  0.3270 -0.3845 -0.1805
  110OSM   H11A11337   2.426   3.432  10.973 -1.6382 -0.9978  1.9296
  110OSM   H11B11338   2.425   3.580  10.869 -0.6277 -0.7142 -0.6969
  110OSM      P11339   2.180   3.685  10.941  0.3144  0.5477 -0.2115
  110OSM    O1311340   2.033   3.656  10.944  0.2929  0.3238 -0.2080
  110OSM    O1411341   2.236   3.784  11.036 -0.1123 -0.1527  0.5721
  110OSM    O1111342   2.222   3.710  10.790  0.0250 -0.0409  0.4233
  110OSM    O1211343   2.246   3.541  10.978  0.0413 -0.7553  0.4301
  110OSM    C1S11344   2.209   3.612  10.687  0.3469  0.2696  0.0480
  110OSM    H1S11345   2.105   3.574  10.687  1.4504 -3.0214  0.3688
  110OSM    H1T11346   2.269   3.522  10.712  1.8126  2.2276  4.5325
  110OSM     NF11347   2.221   3.569  10.439 -0.2999 -0.2004  0.1619
  110OSM    HNF11348   2.297   3.511  10.412 -0.0316 -0.2176  0.9261
  110OSM    C2S11349   2.249   3.671  10.547  0.4776  0.8818 -0.2467
  110OSM    H2S11350   2.181   3.755  10.522 -0.9019 -0.2218 -0.3105
  110OSM    C3S11351   2.394   3.731  10.543 -0.5987  0.3433  1.3749
  110OSM    H3S11352   2.469   3.650  10.543 -0.2271  0.5256 -2.3329
  110OSM     O311353   2.435   3.814  10.655 -0.2603  0.4954  0.0324
  110OSM    HO311354   2.371   3.792  10.723  0.7296 -0.3146  0.7422
  110OSM    C4S11355   2.411   3.791  10.401 -0.3115  0.3922  0.6657
  110OSM    H4S11356   2.441   3.727  10.318 -1.5731  0.1936  0.3443
  110OSM    C5S11357   2.406   3.921  10.369 -0.8379 -0.5895 -0.7895
  110OSM    H5S11358   2.398   3.990  10.455  1.9306 -1.2166  0.0537
  110OSM    C6S11359   2.419   3.988  10.234 -0.1667  0.4029  0.2458
  110OSM    H6S11360   2.486   4.075  10.244  1.5257 -0.6956 -0.9147
  110OSM    H6T11361   2.316   4.026  10.215 -0.5958 -0.6024  0.5030
  110OSM    C7S11362   2.461   3.891  10.114  0.1098  0.6157  0.0057
  110OSM    H7S11363   2.396   3.801  10.111  0.2304  0.5218  0.1862
  110OSM    H7T11364   2.563   3.853  10.135 -0.1260  0.9652  1.9077
  110OSM    C8S11365   2.456   3.964   9.977 -0.3928 -0.6482  0.4250
  110OSM    H8S11366   2.519   4.053   9.998 -1.6886  0.6077 -0.7744
  110OSM    H8T11367   2.354   3.996   9.949 -0.1021 -0.2721 -0.2260
  110OSM    C9S11368   2.516   3.895   9.854 -0.3072 -0.0304  0.2111
  110OSM    H9S11369   2.467   3.798   9.832 -1.3862  0.8471 -1.4114
  110OSM    H9T11370   2.626   3.888   9.869  0.3433  4.5522 -0.7965
  110OSM   C10S11371   2.486   3.979   9.725 -0.8922  0.6507  0.1583
  110OSM   H10S11372   2.521   4.083   9.743  2.3387 -0.4443  0.9674
  110OSM   H10T11373   2.376   3.974   9.712 -0.8267 -1.8093  0.1065
  110OSM   C11S11374   2.572   3.910   9.616 -1.2271 -0.1121  0.5835
  110OSM   H11S11375   2.529   3.810   9.593 -2.0737  0.0246  1.4723
  110OSM   H11T11376   2.678   3.906   9.648 -1.0883 -0.0686  0.1394
  110OSM   C12S11377   2.559   4.007   9.492  0.0078  0.3142 -0.1807
  110OSM   H12S11378   2.599   4.105   9.525  1.9193 -1.2392  2.4616
  110OSM   H12T11379   2.450   4.003   9.467 -0.2164 -1.8253  0.9588
  110OSM   C13S11380   2.637   3.948   9.375 -0.2166 -0.6729  0.6906
  110OSM   H13S11381   2.599   3.844   9.373 -2.6135  0.1152  1.8416
  110OSM   H13T11382   2.747   3.949   9.387 -0.1271  1.0759  0.0052
  110OSM   C14S11383   2.618   4.023   9.236  0.1058  0.5894  0.3745
  110OSM   H14S11384   2.654   4.128   9.242  0.9281  0.4289 -1.2207
  110OSM   H14T11385   2.509   4.029   9.216  0.2386 -0.6320 -0.9077
  110OSM   C15S11386   2.687   3.948   9.112 -0.1456  0.3708 -0.2270
  110OSM   H15S11387   2.621   3.863   9.084 -1.7105  1.0538  1.2041
  110OSM   H15T11388   2.787   3.908   9.140 -1.4762 -2.8233  0.4292
  110OSM   C16S11389   2.703   4.043   8.990 -0.3557  0.7496 -0.5061
  110OSM   H16S11390   2.751   4.138   9.023  1.6622 -1.1883  2.6987
  110OSM   H16T11391   2.602   4.072   8.955  0.3513  1.6693 -1.8570
  110OSM   C17S11392   2.773   3.982   8.873 -0.1952 -0.1853 -0.3719
  110OSM   H17S11393   2.720   3.896   8.826 -0.8997  0.2039 -0.3124
  110OSM   H17T11394   2.871   3.941   8.905 -0.2151 -0.0470 -0.1253
  110OSM   C18S11395   2.812   4.092   8.764 -0.3778 -0.6102 -0.1300
  110OSM   H18S11396   2.713   4.137   8.741  0.1234 -0.4437 -2.0620
  110OSM   H18T11397   2.847   4.048   8.669 -2.0166  1.1433 -1.6359
  110OSM   H18U11398   2.887   4.162   8.806 -1.5059 -0.5068  1.8697
  110OSM    C1F11399   2.099   3.538  10.397  0.1077  0.2067 -0.3130
  110OSM     OF11400   2.006   3.605  10.441 -0.2592 -0.3178  0.2827
  110OSM    C2F11401   2.077   3.417  10.314 -0.9690  0.4080  0.3885
  110OSM    H2F11402   2.131   3.332  10.361 -0.0399 -0.1077 -1.5170
  110OSM    H2G11403   2.132   3.422  10.218 -0.6737 -1.8401  0.3810
  110OSM    C3F11404   1.928   3.371  10.287  0.1467 -0.3453 -0.2254
  110OSM    H3F11405   1.858   3.457  10.283  0.5544  0.0450  0.8820
  110OSM    H3G11406   1.903   3.308  10.375  0.3808 -1.3001 -0.8232
  110OSM    C4F11407   1.917   3.289  10.157 -0.0801 -0.2100  0.7682
  110OSM    H4F11408   1.821   3.233  10.155  0.1067 -0.5811  1.5433
  110OSM    H4G11409   1.994   3.209  10.163 -1.6322 -1.6570  2.6294
  110OSM    C5F11410   1.950   3.357  10.020 -0.0759 -1.1257  0.0296
  110OSM    H5F11411   2.046   3.410  10.036 -0.7507  0.3314 -0.6227
  110OSM    H5G11412   1.865   3.428  10.008 -0.7951 -1.9143  0.2663
  110OSM    C6F11413   1.968   3.263   9.901  0.4082 -0.1260  0.4818
  110OSM    H6F11414   1.884   3.194   9.880 -0.8850  1.3445  0.5779
  110OSM    H6G11415   2.058   3.200   9.916 -0.4177 -2.3501 -2.6970
  110OSM    C7F11416   1.994   3.330   9.765 -0.1087 -0.2062 -0.4470
  110OSM    H7F11417   2.079   3.400   9.780 -0.1252  0.6591 -3.6860
  110OSM    H7G11418   1.903   3.390   9.745  0.1358  0.5836  0.6969
  110OSM    C8F11419   2.012   3.224   9.661  0.2638  0.3218 -0.3543
  110OSM    H8F11420   1.930   3.149   9.671  2.9403 -2.6206  1.1012
  110OSM    H8G11421   2.102   3.161   9.674  0.3353 -0.3173 -3.2872
  110OSM    C9F11422   2.016   3.285   9.523  0.6683 -0.7625 -0.3977
  110OSM    H9F11423   1.978   3.388   9.514 -1.0489 -1.4098 -1.0137
  110OSM   C10F11424   2.064   3.233   9.408 -0.0046 -0.8189  0.2150
  110OSM   H10F11425   2.058   3.288   9.313 -0.2796 -1.8422 -0.3771
  110OSM   C11F11426   2.125   3.091   9.381  0.6429 -1.2099 -0.0322
  110OSM   H11F11427   2.111   3.023   9.468  1.8647 -1.1225  0.2570
  110OSM   H11G11428   2.235   3.092   9.366  0.5955  3.9341 -2.0252
  110OSM   C12F11429   2.064   3.046   9.247 -0.4543  0.0830  0.1872
  110OSM   H12F11430   2.093   3.109   9.160 -2.8052  0.9806 -0.0153
  110OSM   H12G11431   1.954   3.064   9.251 -0.4310  0.0903  3.3785
  110OSM   C13F11432   2.101   2.895   9.221  0.3523 -0.2385  0.0102
  110OSM   H13F11433   2.032   2.831   9.280 -1.0210  1.0602 -0.1283
  110OSM   H13G11434   2.201   2.869   9.260  0.5015 -1.0391 -0.8534
  110OSM   C14F11435   2.108   2.853   9.075  0.6793 -0.1294 -0.3610
  110OSM   H14F11436   2.150   2.751   9.065  0.3369 -0.3630  0.4802
  110OSM   H14G11437   2.189   2.920   9.039  0.1492  1.1671  0.7612
  110OSM   C15F11438   1.981   2.872   8.997  0.3263 -0.3953 -0.5313
  110OSM   H15F11439   1.948   2.977   9.007  2.9154  0.3956  0.3676
  110OSM   H15G11440   1.897   2.809   9.034 -1.1688  1.7453 -0.0942
  110OSM   C16F11441   2.002   2.852   8.844 -0.4922  0.2388  0.0523
  110OSM   H16F11442   1.904   2.864   8.793  0.1218 -0.4239 -1.3177
  110OSM   H16G11443   2.037   2.751   8.816 -0.2031  0.8581 -1.9230
  110OSM   C17F11444   2.094   2.961   8.780 -0.2267  0.0980  0.6470
  110OSM   H17F11445   2.191   2.927   8.822  0.0956 -3.5871 -2.4935
  110OSM   H17G11446   2.073   3.067   8.807  2.0264  1.1240 -1.1952
  110OSM   C18F11447   2.102   2.953   8.627 -0.6183  0.1355  0.2588
  110OSM   H18F11448   2.025   3.005   8.566 -1.2306 -1.1091 -0.0611
  110OSM   H18G11449   2.095   2.844   8.605 -0.5835 -0.1162  1.4607
  110OSM   H18H11450   2.194   2.995   8.581 -1.3916 -0.3680 -1.8811
  111OSM      N11451   0.583   1.764  10.859  1.0960 -0.6886 -0.5516
  111OSM    C1511452   0.659   1.690  10.971 -0.1086 -0.2675  0.3938
  111OSM   H15A11453   0.620   1.715  11.068  0.9165 -0.7663  0.9523
  111OSM   H15B11454   0.764   1.712  10.975  0.2035 -1.0593 -1.8399
  111OSM   H15C11455   0.653   1.582  10.964  2.1820 -0.8019  4.3532
  111OSM    C1411456   0.434   1.733  10.875  0.6364 -0.0579 -0.4628
  111OSM   H14A11457   0.378   1.797  10.809  0.5959  2.8037  2.0860
  111OSM   H14B11458   0.399   1.762  10.973  1.5050 -3.0852  0.8363
  111OSM   H14C11459   0.418   1.629  10.853  0.9987 -0.6750  1.9298
  111OSM    C1311460   0.599   1.912  10.880 -0.5193  0.3040  0.0222
  111OSM   H13A11461   0.574   1.943  10.980  2.7661  0.3050  0.9529
  111OSM   H13B11462   0.534   1.968  10.815 -1.4520  2.4068  2.5826
  111OSM   H13C11463   0.701   1.943  10.866 -0.4661  1.9673  3.2404
  111OSM    C1211464   0.635   1.720  10.721  0.3801  0.4028 -0.2270
  111OSM   H12A11465   0.740   1.743  10.717  0.3701  0.7469  0.9574
  111OSM   H12B11466   0.585   1.790  10.655 -2.3573  0.1498  1.3948
  111OSM    C1111467   0.613   1.581  10.669  0.0785 -0.6264  0.0339
  111OSM   H11A11468   0.649   1.583  10.564  1.8538 -2.3192  0.5686
  111OSM   H11B11469   0.503   1.565  10.672 -0.7364  3.1120 -2.8603
  111OSM      P11470   0.636   1.336  10.728  0.3161 -0.1778  0.2847
  111OSM    O1311471   0.724   1.249  10.808  0.3304  0.0569  0.0715
  111OSM    O1411472   0.491   1.326  10.768  0.3303 -0.0736 -0.3955
  111OSM    O1111473   0.649   1.319  10.575 -0.4836 -0.1355  0.1370
  111OSM    O1211474   0.684   1.487  10.742  0.4064  0.3708  0.2018
  111OSM    C1S11475   0.764   1.320  10.499 -0.4906  0.2049 -0.1019
  111OSM    H1S11476   0.815   1.222  10.513  0.2316  0.8273  2.0189
  111OSM    H1T11477   0.834   1.402  10.524 -1.1785  1.0810 -0.9828
  111OSM     NF11478   0.844   1.326  10.266 -0.0517  0.4351 -0.2081
  111OSM    HNF11479   0.878   1.409  10.222 -1.6148  0.9872 -0.4226
  111OSM    C2S11480   0.731   1.335  10.350  0.5216 -0.1264 -0.2312
  111OSM    H2S11481   0.665   1.248  10.332  1.4054 -0.9200  0.2947
  111OSM    C3S11482   0.650   1.459  10.314 -0.4090  0.3791  0.5818
  111OSM    H3S11483   0.680   1.544  10.379  0.9530 -0.7160  1.4374
  111OSM     O311484   0.513   1.457  10.357 -0.1959 -0.6357 -0.8163
  111OSM    HO311485   0.503   1.407  10.438 -0.6023  3.5788  2.0191
  111OSM    C4S11486   0.637   1.495  10.164  0.1615  0.0867  0.7553
  111OSM    H4S11487   0.594   1.416  10.102 -0.8752  1.8267 -0.8376
  111OSM    C5S11488   0.692   1.605  10.101  0.0157  0.0199 -0.2599
  111OSM    H5S11489   0.749   1.679  10.160 -0.6769  1.5767 -1.4766
  111OSM    C6S11490   0.674   1.630   9.948  0.4815 -0.0764 -0.6976
  111OSM    H6S11491   0.622   1.728   9.941 -1.1014 -0.4462  3.1333
  111OSM    H6T11492   0.603   1.556   9.905 -1.6675  1.4329  0.0297
  111OSM    C7S11493   0.807   1.638   9.873 -0.1707  0.8580  0.3042
  111OSM    H7S11494   0.859   1.540   9.883 -0.6547  0.7817  2.5505
  111OSM    H7T11495   0.872   1.709   9.929  1.0856  0.8235 -1.0424
  111OSM    C8S11496   0.788   1.665   9.722 -0.0743 -0.2830 -0.0872
  111OSM    H8S11497   0.884   1.716   9.703  0.6452 -1.7403 -0.5422
  111OSM    H8T11498   0.717   1.748   9.702 -1.7180 -1.4630  0.5949
  111OSM    C9S11499   0.763   1.540   9.635 -0.2721  0.0214 -0.5425
  111OSM    H9S11500   0.665   1.500   9.669  0.0709 -0.2884  0.0863
  111OSM    H9T11501   0.844   1.470   9.663 -0.9428  0.0542  1.6847
  111OSM   C10S11502   0.746   1.568   9.486  0.0255 -0.5451  0.0480
  111OSM   H10S11503   0.669   1.644   9.463  1.7600  0.3803 -3.3497
  111OSM   H10T11504   0.734   1.468   9.439 -1.6149 -0.1475 -0.4282
  111OSM   C11S11505   0.875   1.631   9.433 -0.6579  0.0090 -0.4606
  111OSM   H11S11506   0.963   1.581   9.479 -0.5747  0.0703 -0.5537
  111OSM   H11T11507   0.885   1.728   9.487  1.6230 -0.5803  0.2784
  111OSM   C12S11508   0.888   1.650   9.283  0.0954 -0.0942 -0.2796
  111OSM   H12S11509   0.990   1.686   9.256 -1.0667  1.4157 -3.1249
  111OSM   H12T11510   0.822   1.730   9.242  1.5859  1.3954  0.0843
  111OSM   C13S11511   0.859   1.524   9.201  0.1451 -0.0386  0.1588
  111OSM   H13S11512   0.750   1.505   9.207  0.0794  0.5747  0.9829
  111OSM   H13T11513   0.919   1.447   9.254  2.1397  1.7105  0.5498
  111OSM   C14S11514   0.903   1.522   9.052  0.2176  0.0054  0.4545
  111OSM   H14S11515   1.010   1.540   9.074 -0.1562 -0.2886  2.8076
  111OSM   H14T11516   0.849   1.591   8.983 -3.3339 -1.1348  1.8588
  111OSM   C15S11517   0.893   1.382   8.984 -0.5380  0.0740 -0.2662
  111OSM   H15S11518   0.786   1.368   8.957  0.0346 -0.8029 -2.2712
  111OSM   H15T11519   0.904   1.304   9.062  0.0576  1.3088  0.9288
  111OSM   C16S11520   0.987   1.368   8.874 -0.5641 -0.2934 -0.3575
  111OSM   H16S11521   0.993   1.267   8.828  0.1862  1.1530 -3.7290
  111OSM   H16T11522   1.094   1.386   8.899  0.2729 -0.7750 -3.2142
  111OSM   C17S11523   0.964   1.462   8.750 -0.0690 -0.1087 -0.6383
  111OSM   H17S11524   0.950   1.569   8.777 -2.1949 -0.2059 -1.1264
  111OSM   H17T11525   0.866   1.428   8.711  1.1568 -0.8921 -3.2417
  111OSM   C18S11526   1.067   1.451   8.638 -0.2173  0.0441  0.1312
  111OSM   H18S11527   1.163   1.497   8.670 -0.1648 -0.4585  0.7069
  111OSM   H18T11528   1.039   1.495   8.540  0.5724 -0.4426 -0.3245
  111OSM   H18U11529   1.090   1.344   8.618 -0.8240  0.2069 -1.5790
  111OSM    C1F11530   0.923   1.218  10.264  1.1431  0.6917 -0.5358
  111OSM     OF11531   0.888   1.111  10.315 -0.3250 -0.5582  0.4925
  111OSM    C2F11532   1.063   1.231  10.198 -0.4200  0.3809 -0.2679
  111OSM    H2F11533   1.134   1.274  10.272  0.2069  1.1663 -1.2867
  111OSM    H2G11534   1.047   1.300  10.112  1.2189 -0.8264 -1.6176
  111OSM    C3F11535   1.115   1.092  10.146  0.9998  0.3198  0.2409
  111OSM    H3F11536   1.117   1.018  10.229 -1.6713 -1.2464 -0.9640
  111OSM    H3G11537   1.218   1.100  10.106  0.9805  0.0020  0.1165
  111OSM    C4F11538   1.019   1.014  10.051  0.1045  0.2578 -0.7701
  111OSM    H4F11539   0.922   1.006  10.104  0.6031  1.4063  0.3834
  111OSM    H4G11540   1.049   0.910  10.030  0.7950  0.5545 -1.2964
  111OSM    C5F11541   0.996   1.083   9.917 -0.2369 -0.0048  0.8905
  111OSM    H5F11542   0.935   1.175   9.928 -1.3821 -0.8278  1.7041
  111OSM    H5G11543   0.929   1.014   9.864 -1.9820  2.8028 -0.8160
  111OSM    C6F11544   1.126   1.096   9.836  0.0222 -0.0177 -0.0312
  111OSM    H6F11545   1.156   0.993   9.809 -2.6920 -1.0100  0.4327
  111OSM    H6G11546   1.205   1.141   9.900  1.2908 -2.1006 -0.0521
  111OSM    C7F11547   1.118   1.169   9.699  0.0582 -0.3033 -0.6701
  111OSM    H7F11548   1.213   1.159   9.643  1.3125  0.7348  1.1972
  111OSM    H7G11549   1.092   1.275   9.720  0.8733 -0.4249  1.1090
  111OSM    C8F11550   0.995   1.122   9.619 -0.0145  0.4928  0.4542
  111OSM    H8F11551   0.901   1.120   9.677 -0.5422  0.4258 -0.3811
  111OSM    H8G11552   1.020   1.021   9.579  1.9756  0.9564  0.4283
  111OSM    C9F11553   0.966   1.214   9.500  0.8308 -0.3550  0.0906
  111OSM    H9F11554   0.876   1.278   9.507 -0.5306 -1.9628 -1.6672
  111OSM   C10F11555   1.029   1.210   9.385  0.4940 -0.4353  0.3168
  111OSM   H10F11556   0.985   1.284   9.317 -0.0989 -1.8380 -0.8898
  111OSM   C11F11557   1.146   1.127   9.347 -0.0860  0.6415  0.3094
  111OSM   H11F11558   1.164   1.038   9.410 -0.1054 -0.9459 -1.8262
  111OSM   H11G11559   1.237   1.188   9.325 -0.4085  0.4429 -1.8210
  111OSM   C12F11560   1.110   1.071   9.204  0.5278 -0.5205  0.1131
  111OSM   H12F11561   1.196   1.016   9.160  0.8586 -0.5314  0.7657
  111OSM   H12G11562   1.101   1.160   9.137  1.7472 -0.6700 -0.2647
  111OSM   C13F11563   0.985   0.981   9.188  0.4348  0.1382  0.3164
  111OSM   H13F11564   0.883   1.025   9.182  0.2217 -0.1815  1.3386
  111OSM   H13G11565   0.975   0.903   9.267 -3.6231 -1.7652 -1.7841
  111OSM   C14F11566   0.995   0.892   9.060  0.4044  0.0213  0.3097
  111OSM   H14F11567   1.080   0.823   9.076 -1.6576 -2.3500  1.7953
  111OSM   H14G11568   1.000   0.966   8.977 -2.7261 -0.2765 -0.3034
  111OSM   C15F11569   0.866   0.800   9.039 -0.3645 -0.1054 -0.3556
  111OSM   H15F11570   0.776   0.859   9.069 -1.7982 -1.3666 -1.9565
  111OSM   H15G11571   0.863   0.721   9.116 -1.1340  1.5084  1.3628
  111OSM   C16F11572   0.859   0.746   8.892  0.4157  0.4044 -0.3093
  111OSM   H16F11573   0.957   0.695   8.878  1.0593  2.0324 -2.2326
  111OSM   H16G11574   0.874   0.819   8.810 -0.7564 -0.2898 -1.1686
  111OSM   C17F11575   0.734   0.664   8.850 -0.2866 -0.7579  0.0417
  111OSM   H17F11576   0.645   0.731   8.841 -0.5042 -1.2469 -2.1072
  111OSM   H17G11577   0.717   0.594   8.934  0.9760  1.6389  2.4398
  111OSM   C18F11578   0.743   0.592   8.723  0.0539 -0.6333  0.5264
  111OSM   H18F11579   0.652   0.530   8.707 -0.0020 -0.7075  1.1314
  111OSM   H18G11580   0.834   0.529   8.722 -1.0107 -2.3115 -2.3183
  111OSM   H18H11581   0.750   0.672   8.645 -0.6599 -1.3337 -0.2781
  112OSM      N11582   1.633   4.309  11.382  1.1138  0.4229 -0.5503
  112OSM    C1511583   1.780   4.334  11.374  0.3057 -0.6079  0.5884
  112OSM   H15A11584   1.844   4.247  11.366 -0.3534 -1.3096  2.3776
  112OSM   H15B11585   1.803   4.387  11.466 -1.4305  2.0892 -0.4252
  112OSM   H15C11586   1.799   4.400  11.291  1.2510  2.8604  3.3065
  112OSM    C1411587   1.618   4.215  11.500 -0.0052  0.2591 -0.3984
  112OSM   H14A11588   1.646   4.273  11.586 -2.5361  0.3382  0.4580
  112OSM   H14B11589   1.695   4.139  11.491  0.6752  0.7772  0.8594
  112OSM   H14C11590   1.527   4.157  11.512  1.5882 -2.1005  1.2197
  112OSM    C1311591   1.566   4.436  11.420 -0.5921 -0.3895  0.0980
  112OSM   H13A11592   1.609   4.491  11.503 -1.6896 -1.5390  1.4836
  112OSM   H13B11593   1.466   4.405  11.446 -0.2315 -1.9460 -0.2592
  112OSM   H13C11594   1.572   4.502  11.335 -0.6069 -1.1009 -0.4707
  112OSM    C1211595   1.578   4.249  11.256 -0.1979 -0.6489  0.0220
  112OSM   H12A11596   1.482   4.203  11.278  0.9862 -2.2339  2.4076
  112OSM   H12B11597   1.653   4.176  11.228  0.7447  0.0783  0.6016
  112OSM    C1111598   1.564   4.339  11.131 -0.2656  0.6377 -0.3394
  112OSM   H11A11599   1.518   4.438  11.150 -0.6613  0.6174 -1.1609
  112OSM   H11B11600   1.490   4.297  11.059 -0.2489 -0.1112  0.0784
  112OSM      P11601   1.718   4.240  10.953  0.1310 -0.2252 -0.1364
  112OSM    O1311602   1.859   4.239  10.912 -0.6478  0.0049 -0.0155
  112OSM    O1411603   1.677   4.112  11.014  0.2706 -0.1246  0.0182
  112OSM    O1111604   1.625   4.275  10.829  0.2803 -0.1177  0.5239
  112OSM    O1211605   1.689   4.349  11.066  0.3306 -0.1405 -0.3421
  112OSM    C1S11606   1.592   4.413  10.794 -0.0106 -0.3047  0.0756
  112OSM    H1S11607   1.681   4.474  10.765 -1.3384  1.1431 -1.1598
  112OSM    H1T11608   1.534   4.451  10.881 -1.1189 -3.4638  0.8220
  112OSM     NF11609   1.481   4.549  10.597  0.1101  0.0748 -0.7644
  112OSM    HNF11610   1.393   4.595  10.609  0.5204  0.2690  2.4407
  112OSM    C2S11611   1.497   4.415  10.670  0.6040 -0.0458  0.2713
  112OSM    H2S11612   1.549   4.351  10.595  0.6542  2.2459 -1.8059
  112OSM    C3S11613   1.355   4.349  10.723 -0.7011  0.2857 -0.1365
  112OSM    H3S11614   1.301   4.422  10.788  0.1027  1.1250 -0.3848
  112OSM     O311615   1.358   4.232  10.800  0.0064  0.0108 -0.0459
  112OSM    HO311616   1.452   4.216  10.813  0.1012 -0.1173 -0.8343
  112OSM    C4S11617   1.269   4.321  10.611  0.3322  0.2927 -0.0672
  112OSM    H4S11618   1.170   4.369  10.614  1.1916  2.1442  0.0352
  112OSM    C5S11619   1.275   4.231  10.511  0.7841  0.1951  0.1309
  112OSM    H5S11620   1.351   4.152  10.508  2.0088  1.2779  1.2120
  112OSM    C6S11621   1.168   4.230  10.402  0.5041 -0.4714 -0.2750
  112OSM    H6S11622   1.111   4.325  10.395  1.2275 -0.0938 -1.3598
  112OSM    H6T11623   1.102   4.144  10.428 -0.6363  0.6632  0.7317
  112OSM    C7S11624   1.216   4.203  10.256 -0.2986  0.0292 -0.1092
  112OSM    H7S11625   1.248   4.097  10.244 -1.1391 -0.2446 -0.0387
  112OSM    H7T11626   1.305   4.265  10.232 -0.5926  1.1530  1.5223
  112OSM    C8S11627   1.106   4.224  10.153  0.1385 -0.0220 -0.2863
  112OSM    H8S11628   1.070   4.325  10.180  0.2273 -0.1438  0.3115
  112OSM    H8T11629   1.021   4.157  10.181  1.1835 -0.9131  0.8848
  112OSM    C9S11630   1.155   4.218  10.008 -0.2877 -0.0568 -0.2202
  112OSM    H9S11631   1.231   4.139   9.995  0.0278  0.4399 -1.4925
  112OSM    H9T11632   1.210   4.312   9.989  1.8013 -0.8049  1.6964
  112OSM   C10S11633   1.042   4.221   9.907  0.5934  0.5460  0.5951
  112OSM   H10S11634   0.950   4.281   9.927  2.0094  3.4205 -0.9476
  112OSM   H10T11635   1.006   4.116   9.898 -0.9253  1.0077  1.0278
  112OSM   C11S11636   1.079   4.252   9.759  0.2746 -0.1590 -0.5637
  112OSM   H11S11637   1.168   4.186   9.748 -0.0278 -1.1027  1.8478
  112OSM   H11T11638   1.111   4.357   9.746 -0.7548  0.2490  0.0290
  112OSM   C12S11639   0.979   4.214   9.651  0.3556  0.4969  0.8378
  112OSM   H12S11640   0.885   4.273   9.648 -0.2178 -0.4232 -1.3589
  112OSM   H12T11641   0.956   4.105   9.659 -1.4420  0.9227  2.1875
  112OSM   C13S11642   1.042   4.227   9.504 -0.1189 -0.4156 -0.1998
  112OSM   H13S11643   1.146   4.187   9.509 -0.0110 -0.0198  0.8871
  112OSM   H13T11644   1.044   4.337   9.486 -2.5742 -0.5916 -2.1031
  112OSM   C14S11645   0.962   4.149   9.406  0.6951 -0.0155 -0.0837
  112OSM   H14S11646   0.863   4.200   9.395 -0.3941 -1.8381  0.7807
  112OSM   H14T11647   0.951   4.051   9.458  3.2303  0.6988  1.9937
  112OSM   C15S11648   1.036   4.123   9.271 -0.4648 -0.2070 -1.0850
  112OSM   H15S11649   1.125   4.058   9.287 -0.9471 -0.4722  0.6876
  112OSM   H15T11650   1.068   4.223   9.237 -0.4686  0.2344  0.1531
  112OSM   C16S11651   0.950   4.056   9.169 -0.6700 -0.6945 -0.5794
  112OSM   H16S11652   0.898   3.975   9.225  0.0779 -0.1066  1.0158
  112OSM   H16T11653   1.016   4.007   9.094  1.0192 -3.7436  2.5985
  112OSM   C17S11654   0.858   4.157   9.095 -0.9919  0.0062 -0.0560
  112OSM   H17S11655   0.921   4.241   9.059  0.2889 -0.8406  0.1771
  112OSM   H17T11656   0.786   4.208   9.163 -1.1800 -1.5553  0.9755
  112OSM   C18S11657   0.805   4.104   8.966  0.1272 -0.4518  0.2304
  112OSM   H18S11658   0.732   4.024   8.992 -1.8004  1.3310  0.5715
  112OSM   H18T11659   0.885   4.059   8.904 -0.9529  1.1333 -2.4636
  112OSM   H18U11660   0.757   4.183   8.905 -1.6073 -1.1139  0.6677
  112OSM    C1F11661   1.582   4.608  10.528  0.1174 -0.3547 -0.1695
  112OSM     OF11662   1.684   4.550  10.499 -0.4780 -0.0874 -0.3006
  112OSM    C2F11663   1.548   4.745  10.482 -0.3527 -0.5937 -0.3739
  112OSM    H2F11664   1.588   4.822  10.551 -1.9158  0.3664 -0.5073
  112OSM    H2G11665   1.438   4.760  10.481 -0.5700 -0.9111  3.4217
  112OSM    C3F11666   1.611   4.764  10.341  0.3984  0.0694 -0.3161
  112OSM    H3F11667   1.556   4.854  10.307  0.5788  1.0173  1.7891
  112OSM    H3G11668   1.581   4.683  10.271  1.6550 -0.4028 -0.3266
  112OSM    C4F11669   1.753   4.794  10.328 -0.3486  0.1851 -0.5867
  112OSM    H4F11670   1.815   4.707  10.359 -1.8788 -0.5205  0.6513
  112OSM    H4G11671   1.783   4.871  10.403  4.3716 -1.2838 -0.6120
  112OSM    C5F11672   1.810   4.836  10.185  0.3940 -0.3194 -0.1529
  112OSM    H5F11673   1.910   4.876  10.211  0.7712 -1.9683  1.0334
  112OSM    H5G11674   1.761   4.924  10.138  0.1497 -0.4014 -0.0547
  112OSM    C6F11675   1.824   4.720  10.090 -0.2407  0.5807 -0.4357
  112OSM    H6F11676   1.731   4.659  10.087 -0.7768  1.1852  1.7869
  112OSM    H6G11677   1.894   4.648  10.139 -0.0165  2.6109  2.4910
  112OSM    C7F11678   1.900   4.757   9.963 -0.3602  0.3309  0.0837
  112OSM    H7F11679   1.988   4.820   9.990 -0.4131  0.2391  0.4689
  112OSM    H7G11680   1.838   4.823   9.899 -0.5385  0.0859  0.0028
  112OSM    C8F11681   1.949   4.639   9.873  0.1133 -0.5306 -0.4952
  112OSM    H8F11682   1.854   4.598   9.831 -1.8756 -0.3388  3.3118
  112OSM    H8G11683   1.997   4.570   9.946  0.1552 -0.6828 -0.6668
  112OSM    C9F11684   2.054   4.686   9.775  0.0487  0.6376  0.2049
  112OSM    H9F11685   2.157   4.694   9.813 -0.9718  1.1005  3.1022
  112OSM   C10F11686   2.034   4.709   9.647 -0.5586  0.5803 -0.5097
  112OSM   H10F11687   2.113   4.755   9.585  0.1812 -3.3443 -2.7720
  112OSM   C11F11688   1.910   4.684   9.564 -0.3820 -1.0729  0.2304
  112OSM   H11F11689   1.827   4.638   9.622 -1.5623 -1.5823 -1.7351
  112OSM   H11G11690   1.942   4.604   9.493 -0.3383  0.0261 -1.0242
  112OSM   C12F11691   1.862   4.796   9.475  0.0818 -0.5728 -0.3152
  112OSM   H12F11692   1.813   4.870   9.541 -0.8478 -0.9102 -0.6072
  112OSM   H12G11693   1.782   4.755   9.409  2.5346 -3.3148 -1.8782
  112OSM   C13F11694   1.975   4.867   9.395 -0.3878 -0.2628 -0.7402
  112OSM   H13F11695   2.047   4.791   9.358  0.2881  0.9827 -2.0685
  112OSM   H13G11696   2.031   4.919   9.477  1.0402  0.0005 -1.8307
  112OSM   C14F11697   1.938   4.954   9.278  0.0589  0.5846 -0.8418
  112OSM   H14F11698   1.887   5.045   9.317 -1.2402 -1.0801  1.5986
  112OSM   H14G11699   1.865   4.895   9.217 -2.4129 -1.5260  3.6957
  112OSM   C15F11700   2.071   4.986   9.199  0.1784  0.2819  0.0443
  112OSM   H15F11701   2.116   4.894   9.155 -0.2041  0.2036 -0.1892
  112OSM   H15G11702   2.141   5.041   9.265 -0.4933  0.7284  0.3928
  112OSM   C16F11703   2.036   5.071   9.075 -0.4084  0.6070 -0.5299
  112OSM   H16F11704   1.981   5.153   9.128  1.3196 -0.2624  2.8870
  112OSM   H16G11705   1.970   5.020   9.002  2.4133 -0.8914 -2.2186
  112OSM   C17F11706   2.159   5.123   9.001 -0.3519 -0.0792  0.0473
  112OSM   H17F11707   2.234   5.149   9.078  0.9043 -0.6018 -0.9613
  112OSM   H17G11708   2.142   5.211   8.936  1.7150  0.3227 -0.0076
  112OSM   C18F11709   2.222   5.007   8.919 -0.3107 -0.0426  0.2596
  112OSM   H18F11710   2.145   4.947   8.866  2.1643 -2.0937 -1.2785
  112OSM   H18G11711   2.280   4.935   8.980 -1.2731  0.7864  2.2280
  112OSM   H18H11712   2.295   5.045   8.844  0.0496 -1.2662 -0.0316
  113OSM      N11713   5.672   2.104  10.986  0.0947 -0.2206  0.1668
  113OSM    C1511714   5.660   1.977  11.076  0.3900  0.7923  1.2009
  113OSM   H15A11715   5.635   1.996  11.179 -0.5821 -0.1131  1.1557
  113OSM   H15B11716   5.747   1.914  11.064 -0.2030  0.3059 -0.8739
  113OSM   H15C11717   5.580   1.921  11.029  0.4686  1.2436  0.5173
  113OSM    C1411718   5.719   2.066  10.853  0.5338  0.1627 -0.6947
  113OSM   H14A11719   5.663   1.986  10.808 -0.4004  1.0505 -1.1758
  113OSM   H14B11720   5.824   2.044  10.862  0.1047 -1.7755 -0.1357
  113OSM   H14C11721   5.726   2.152  10.787 -1.7976 -0.6311 -2.0958
  113OSM    C1311722   5.541   2.168  10.984  0.0518 -0.3523  0.1384
  113OSM   H13A11723   5.520   2.192  11.088 -0.3381 -0.8715  0.1821
  113OSM   H13B11724   5.453   2.121  10.944 -1.3113  2.8533 -1.0022
  113OSM   H13C11725   5.546   2.265  10.935 -1.1394  0.6473  1.8676
  113OSM    C1211726   5.772   2.198  11.051 -0.6202 -0.7975  0.1167
  113OSM   H12A11727   5.867   2.146  11.058 -0.5455 -0.5764  0.7618
  113OSM   H12B11728   5.739   2.221  11.151 -1.1681 -0.4589 -0.1387
  113OSM    C1111729   5.807   2.333  10.979 -0.2032  0.4027  1.3786
  113OSM   H11A11730   5.844   2.301  10.879 -2.5345  2.6776 -0.3287
  113OSM   H11B11731   5.897   2.371  11.032 -0.2439 -1.8163  3.1600
  113OSM      P11732   5.741   2.571  10.969 -0.2472 -0.4590 -0.0192
  113OSM    O1311733   5.638   2.652  10.905  0.0107  0.0468 -0.3230
  113OSM    O1411734   5.776   2.595  11.112  0.0179  0.2846  0.2611
  113OSM    O1111735   5.880   2.588  10.888  0.0483 -0.3809 -0.5191
  113OSM    O1211736   5.697   2.421  10.970 -0.4657  0.4496 -0.3727
  113OSM    C1S11737   5.904   2.542  10.754 -0.3808  1.1023  0.1955
  113OSM    H1S11738   5.844   2.456  10.716  1.5980 -0.5641  0.6840
  113OSM    H1T11739   6.011   2.512  10.758 -0.7545 -0.2692  3.4580
  113OSM     NF11740   5.968   2.590  10.520 -0.1305  0.2357  0.1347
  113OSM    HNF11741   6.065   2.593  10.496 -0.7321 -2.1058 -3.3073
  113OSM    C2S11742   5.922   2.656  10.647  0.3962  0.8354  0.4871
  113OSM    H2S11743   5.822   2.700  10.627 -0.0934 -0.7420 -0.7415
  113OSM    C3S11744   6.015   2.766  10.696 -0.5644  0.3790  0.3381
  113OSM    H3S11745   6.115   2.720  10.708 -0.5070  0.1568 -0.8617
  113OSM     O311746   5.974   2.830  10.818  0.2013  0.5682  0.6019
  113OSM    HO311747   5.908   2.779  10.864 -1.1324  1.8859  0.2301
  113OSM    C4S11748   6.019   2.872  10.592  0.2011  0.3612 -0.3514
  113OSM    H4S11749   5.924   2.928  10.592  0.8907  1.5975 -1.1061
  113OSM    C5S11750   6.119   2.918  10.511 -0.2623  0.1338  0.3960
  113OSM    H5S11751   6.216   2.869  10.528  0.0912 -0.1960 -2.2371
  113OSM    C6S11752   6.116   3.038  10.417  0.1864 -0.6619  1.1277
  113OSM    H6S11753   6.160   3.131  10.459  0.8709  0.1601 -1.2510
  113OSM    H6T11754   6.007   3.055  10.405  0.1514 -0.8437  1.1770
  113OSM    C7S11755   6.191   3.021  10.280  0.7418 -0.0556 -0.5608
  113OSM    H7S11756   6.297   2.989  10.293  1.5077  2.2544 -0.8122
  113OSM    H7T11757   6.202   3.122  10.237  2.3704  1.1899  2.5258
  113OSM    C8S11758   6.103   2.937  10.191 -0.7465 -0.5289  0.7357
  113OSM    H8S11759   5.996   2.968  10.192 -0.8271 -0.7499  2.4857
  113OSM    H8T11760   6.110   2.835  10.233 -2.7205 -1.8290 -1.7887
  113OSM    C9S11761   6.149   2.930  10.042 -0.4086 -0.2535 -0.4792
  113OSM    H9S11762   6.105   2.835  10.005 -0.2889 -0.9511  1.0929
  113OSM    H9T11763   6.260   2.924  10.038 -0.3066  1.7441 -1.7571
  113OSM   C10S11764   6.112   3.053   9.957 -0.3404  0.5272 -0.6915
  113OSM   H10S11765   6.133   3.146  10.014 -1.4596  0.7663 -0.6445
  113OSM   H10T11766   6.001   3.047   9.962 -0.2971 -0.6078 -0.7395
  113OSM   C11S11767   6.171   3.059   9.815  0.2760  0.3218 -0.1717
  113OSM   H11S11768   6.281   3.049   9.805  0.5397  2.1115  0.4848
  113OSM   H11T11769   6.135   3.156   9.774  0.7146  0.8189  0.5851
  113OSM   C12S11770   6.126   2.949   9.720  0.2490 -1.0260  0.1172
  113OSM   H12S11771   6.016   2.955   9.707  0.5492  3.3036 -2.4722
  113OSM   H12T11772   6.142   2.847   9.760  0.6806 -0.8195  0.4971
  113OSM   C13S11773   6.174   2.965   9.572 -0.2462  0.0987  0.0024
  113OSM   H13S11774   6.148   2.870   9.521  0.5477  0.5167 -1.2376
  113OSM   H13T11775   6.285   2.968   9.563 -0.0761 -0.3253  1.5874
  113OSM   C14S11776   6.110   3.068   9.481  0.1991 -0.5300  0.4609
  113OSM   H14S11777   6.136   3.169   9.520 -0.3038 -0.3805  0.4061
  113OSM   H14T11778   6.000   3.064   9.487  0.1731 -2.5128 -0.4431
  113OSM   C15S11779   6.153   3.045   9.341 -0.0896 -0.2043  0.1012
  113OSM   H15S11780   6.157   2.937   9.316 -0.0910 -0.2707  0.3864
  113OSM   H15T11781   6.257   3.081   9.326  1.1641 -2.6394  2.2091
  113OSM   C16S11782   6.069   3.108   9.221 -1.4504  0.2366 -0.1555
  113OSM   H16S11783   6.061   3.219   9.230  3.6300  0.8586 -0.1773
  113OSM   H16T11784   5.969   3.059   9.222 -1.4816  0.3016 -0.0713
  113OSM   C17S11785   6.127   3.070   9.082 -0.6188 -0.5842 -0.5591
  113OSM   H17S11786   6.130   2.960   9.062 -1.5662 -1.1896  2.1493
  113OSM   H17T11787   6.233   3.103   9.088 -1.5571  2.5196  0.6649
  113OSM   C18S11788   6.060   3.129   8.966 -0.1405 -0.1034  0.5310
  113OSM   H18S11789   6.104   3.091   8.872  1.1288  0.3886  0.9087
  113OSM   H18T11790   6.062   3.240   8.973  1.0634 -0.1171  0.5886
  113OSM   H18U11791   5.956   3.091   8.970 -0.2423 -0.0371 -1.0399
  113OSM    C1F11792   5.887   2.513  10.447 -0.0587  0.2221  0.2826
  113OSM     OF11793   5.770   2.495  10.484  0.1890 -0.2509  0.2695
  113OSM    C2F11794   5.953   2.437  10.329  0.4144  0.2512 -0.5541
  113OSM    H2F11795   6.049   2.391  10.361  0.8127  2.2040  1.2914
  113OSM    H2G11796   5.966   2.505  10.242 -0.1470 -0.9650 -1.6180
  113OSM    C3F11797   5.860   2.330  10.261 -0.1793 -0.3863  0.3835
  113OSM    H3F11798   5.772   2.381  10.216  1.1453  0.8246 -0.9405
  113OSM    H3G11799   5.825   2.258  10.339  3.5254 -3.5784 -0.6187
  113OSM    C4F11800   5.927   2.245  10.145  0.1894  0.9641  0.4005
  113OSM    H4F11801   5.866   2.152  10.138  0.1059  1.0396  0.0928
  113OSM    H4G11802   6.027   2.205  10.173 -0.5452 -1.7529 -0.6097
  113OSM    C5F11803   5.934   2.319  10.008  0.3442 -0.5352  0.3909
  113OSM    H5F11804   5.992   2.269   9.928  0.4194  1.4690 -0.8845
  113OSM    H5G11805   5.990   2.414  10.023 -2.3320  1.0331  1.2248
  113OSM    C6F11806   5.797   2.358   9.949 -0.3323 -0.6915 -0.2234
  113OSM    H6F11807   5.756   2.437  10.015  0.2059 -0.6789  0.1041
  113OSM    H6G11808   5.739   2.264   9.959 -0.4099 -0.6748 -0.5157
  113OSM    C7F11809   5.801   2.419   9.804  0.0457 -0.1039 -0.3712
  113OSM    H7F11810   5.862   2.511   9.813 -1.6617  1.0900 -0.5082
  113OSM    H7G11811   5.698   2.451   9.776 -0.5962 -1.7377  0.0529
  113OSM    C8F11812   5.852   2.332   9.684 -0.2900 -0.6613 -0.5194
  113OSM    H8F11813   5.779   2.249   9.671  0.5710 -1.5728  0.2678
  113OSM    H8G11814   5.948   2.290   9.719 -0.7695  0.4959  2.4924
  113OSM    C9F11815   5.874   2.409   9.552  0.1255 -0.0199 -0.1608
  113OSM    H9F11816   5.935   2.500   9.548  0.9934 -0.6287 -2.8763
  113OSM   C10F11817   5.828   2.370   9.430 -0.3272  0.5019 -0.9917
  113OSM   H10F11818   5.857   2.431   9.344 -3.5697  2.7373 -0.6736
  113OSM   C11F11819   5.739   2.249   9.407  0.4364 -0.1453  0.6948
  113OSM   H11F11820   5.661   2.252   9.486 -2.1927  2.5088 -1.7204
  113OSM   H11G11821   5.789   2.150   9.404 -0.2419 -0.4811 -0.4407
  113OSM   C12F11822   5.667   2.250   9.264  0.5095 -0.7579  0.1159
  113OSM   H12F11823   5.625   2.353   9.265  1.7171 -0.2390  2.2527
  113OSM   H12G11824   5.585   2.175   9.260 -0.2938  0.1312 -2.2594
  113OSM   C13F11825   5.762   2.224   9.149  0.0663  0.1500 -0.3093
  113OSM   H13F11826   5.810   2.125   9.166  0.0097 -0.1576 -1.8353
  113OSM   H13G11827   5.848   2.293   9.153  0.5157 -0.3911 -0.4673
  113OSM   C14F11828   5.701   2.224   9.011 -0.9176  0.1515 -0.0823
  113OSM   H14F11829   5.644   2.318   8.991 -1.4282 -0.1402 -0.0094
  113OSM   H14G11830   5.628   2.140   9.003 -2.0733  0.9070  1.7674
  113OSM   C15F11831   5.806   2.223   8.896  0.3051  0.7733 -0.0625
  113OSM   H15F11832   5.850   2.121   8.889  0.7181  0.9053  0.5599
  113OSM   H15G11833   5.883   2.302   8.907 -0.6680  1.7672 -0.2044
  113OSM   C16F11834   5.739   2.229   8.751 -0.0463 -0.4239 -0.1496
  113OSM   H16F11835   5.685   2.326   8.738 -0.7432 -0.8803 -0.7238
  113OSM   H16G11836   5.664   2.148   8.736  0.4810 -0.8730 -0.3610
  113OSM   C17F11837   5.842   2.207   8.644 -0.3442  0.5175  0.2756
  113OSM   H17F11838   5.897   2.117   8.677  0.8169  1.2928  0.5124
  113OSM   H17G11839   5.919   2.287   8.636  1.2269 -0.9076  0.5009
  113OSM   C18F11840   5.769   2.172   8.510 -0.7287  0.2259  0.4818
  113OSM   H18F11841   5.859   2.167   8.445 -0.4306  3.1043  0.5733
  113OSM   H18G11842   5.698   2.252   8.482 -3.2446 -1.8931  0.4566
  113OSM   H18H11843   5.722   2.071   8.511 -1.2777  0.3352 -2.6404
  114OSM      N11844   2.208   4.437  10.937  0.6712 -0.8003 -0.1333
  114OSM    C1511845   2.218   4.316  11.030  0.1676  0.6387  0.2523
  114OSM   H15A11846   2.288   4.350  11.105  0.4406  1.3060 -0.2966
  114OSM   H15B11847   2.251   4.224  10.984 -2.4451  0.5760 -1.6749
  114OSM   H15C11848   2.121   4.292  11.072  0.4896 -0.5661  0.3627
  114OSM    C1411849   2.098   4.418  10.837 -0.5286 -0.1023  0.2500
  114OSM   H14A11850   2.129   4.339  10.770 -0.5091 -0.6002  0.8408
  114OSM   H14B11851   2.079   4.513  10.788 -3.4620 -0.1100  1.2073
  114OSM   H14C11852   2.012   4.386  10.893 -0.8502 -0.6265 -0.5280
  114OSM    C1311853   2.172   4.564  11.014 -0.2746  0.4942  0.8422
  114OSM   H13A11854   2.108   4.635  10.962  0.8544  0.7145 -0.2872
  114OSM   H13B11855   2.261   4.619  11.040  0.0622 -1.5346  4.7403
  114OSM   H13C11856   2.133   4.542  11.112 -2.1415  1.0320  0.2658
  114OSM    C1211857   2.333   4.447  10.856 -1.0940 -0.0101  0.1652
  114OSM   H12A11858   2.321   4.520  10.778  2.5126 -0.2735 -0.8231
  114OSM   H12B11859   2.341   4.355  10.799  1.8996 -0.7437  1.5638
  114OSM    C1111860   2.468   4.465  10.936 -0.0161  0.1448 -0.1209
  114OSM   H11A11861   2.558   4.468  10.871  0.4135  0.2361  0.4719
  114OSM   H11B11862   2.491   4.374  10.995 -0.2480  0.1820  0.0278
  114OSM      P11863   2.505   4.720  11.002  0.1219 -0.1031 -0.2236
  114OSM    O1311864   2.391   4.800  11.063 -0.2021  0.0181  0.4148
  114OSM    O1411865   2.639   4.748  11.050 -0.3721 -0.6053  0.1921
  114OSM    O1111866   2.490   4.729  10.845  0.0112 -0.0951  0.4649
  114OSM    O1211867   2.473   4.566  11.035 -0.4477 -0.7085  0.3212
  114OSM    C1S11868   2.394   4.811  10.786  0.4482 -0.8581  0.3318
  114OSM    H1S11869   2.403   4.918  10.817 -0.4313 -0.5097 -0.5579
  114OSM    H1T11870   2.293   4.775  10.813 -0.6395  0.3456 -1.8782
  114OSM     NF11871   2.296   4.910  10.574 -0.1586  0.0117 -0.1693
  114OSM    HNF11872   2.206   4.889  10.537 -0.3115  0.9080 -0.3291
  114OSM    C2S11873   2.391   4.811  10.627 -0.6175  0.3947  0.5539
  114OSM    H2S11874   2.485   4.835  10.573 -2.1594  0.2635 -2.4055
  114OSM    C3S11875   2.365   4.665  10.586 -0.0980 -0.3549  0.4674
  114OSM    H3S11876   2.269   4.643  10.637  0.3072  1.4141  2.1069
  114OSM     O311877   2.467   4.579  10.631 -0.1203 -0.8098 -0.3110
  114OSM    HO311878   2.500   4.630  10.705 -0.6330  0.5073 -0.9573
  114OSM    C4S11879   2.347   4.652  10.431  0.6696 -0.5787 -0.5532
  114OSM    H4S11880   2.251   4.605  10.405  0.8184  0.1078 -2.5144
  114OSM    C5S11881   2.434   4.662  10.336 -0.3797 -0.8550 -0.2067
  114OSM    H5S11882   2.536   4.692  10.363 -0.5798 -1.6693  1.6113
  114OSM    C6S11883   2.420   4.621  10.189 -0.5384 -0.6056 -0.0893
  114OSM    H6S11884   2.507   4.556  10.167  1.3472  1.9891 -0.7214
  114OSM    H6T11885   2.428   4.704  10.116  0.1325  1.1381  1.8641
  114OSM    C7S11886   2.294   4.537  10.174  0.6440  0.3969 -0.8421
  114OSM    H7S11887   2.208   4.599  10.207  2.0524  0.4348  3.3719
  114OSM    H7T11888   2.298   4.447  10.240  1.7311  2.0943  1.5619
  114OSM    C8S11889   2.267   4.487  10.034 -0.1128  0.3592 -0.2502
  114OSM    H8S11890   2.278   4.569   9.959 -1.1656  2.2193  1.5120
  114OSM    H8T11891   2.163   4.456  10.012 -0.1046  0.2434 -0.1204
  114OSM    C9S11892   2.366   4.376   9.985  0.4991  0.2819  0.1026
  114OSM    H9S11893   2.341   4.280  10.035  0.5284 -0.3753 -1.1157
  114OSM    H9T11894   2.471   4.399  10.010  0.6682  0.6015 -0.8655
  114OSM   C10S11895   2.362   4.356   9.829  0.4162  0.3472  0.5490
  114OSM   H10S11896   2.420   4.270   9.788 -0.1621  0.4127 -0.4227
  114OSM   H10T11897   2.389   4.455   9.786 -0.5097  0.3453 -0.0716
  114OSM   C11S11898   2.223   4.323   9.775  0.4117  0.4866 -0.5425
  114OSM   H11S11899   2.149   4.399   9.807 -0.5872 -0.5918 -0.1976
  114OSM   H11T11900   2.183   4.231   9.824  1.1816  1.4244  1.9947
  114OSM   C12S11901   2.238   4.292   9.626  0.2293  0.1272 -0.0525
  114OSM   H12S11902   2.134   4.268   9.595  0.5797  0.7310 -1.8538
  114OSM   H12T11903   2.305   4.205   9.610  1.5850  1.2841 -0.9612
  114OSM   C13S11904   2.289   4.406   9.538  0.0276 -0.4026  0.7981
  114OSM   H13S11905   2.383   4.456   9.573  1.2041 -1.1819 -1.0802
  114OSM   H13T11906   2.213   4.486   9.546  1.7285  1.1196  3.3013
  114OSM   C14S11907   2.320   4.373   9.389  0.4538 -0.1732 -0.1800
  114OSM   H14S11908   2.400   4.296   9.381 -1.9118 -2.7424 -0.5487
  114OSM   H14T11909   2.370   4.461   9.342 -1.2696 -0.0224 -1.8249
  114OSM   C15S11910   2.192   4.348   9.304 -0.4894 -0.1854 -0.2342
  114OSM   H15S11911   2.130   4.267   9.348 -1.7034  0.7424 -0.1724
  114OSM   H15T11912   2.221   4.299   9.209  0.0455 -0.3290 -0.0046
  114OSM   C16S11913   2.108   4.473   9.274 -0.9067  0.3287 -0.0423
  114OSM   H16S11914   2.166   4.561   9.241 -2.8638  1.4121 -0.7562
  114OSM   H16T11915   2.060   4.511   9.367 -3.3859  2.7456 -2.1309
  114OSM   C17S11916   2.000   4.452   9.169 -0.0198  0.6474 -0.4185
  114OSM   H17S11917   1.949   4.356   9.190 -1.9006  1.6235 -0.2701
  114OSM   H17T11918   2.028   4.433   9.063 -1.4334 -0.5927 -0.6078
  114OSM   C18S11919   1.894   4.564   9.163 -0.1954  0.1203 -0.0011
  114OSM   H18S11920   1.952   4.658   9.151 -0.5283  0.1892 -1.1586
  114OSM   H18T11921   1.845   4.574   9.262  0.3914  1.3189  0.1894
  114OSM   H18U11922   1.821   4.554   9.080 -0.3996 -0.3016  0.2262
  114OSM    C1F11923   2.319   5.038  10.593 -0.7568 -0.2365  0.1278
  114OSM     OF11924   2.432   5.079  10.635  0.3857  0.5987 -0.1357
  114OSM    C2F11925   2.210   5.138  10.567 -0.2846  0.1790  0.0938
  114OSM    H2F11926   2.223   5.208  10.653  0.7637 -0.9646  0.9070
  114OSM    H2G11927   2.110   5.093  10.583  0.4085 -1.4683  0.0579
  114OSM    C3F11928   2.216   5.214  10.425 -0.0154 -0.7700 -0.1500
  114OSM    H3F11929   2.321   5.246  10.409  1.3690 -4.0774  1.2401
  114OSM    H3G11930   2.141   5.295  10.432  0.2210 -0.6966  2.9432
  114OSM    C4F11931   2.176   5.120  10.308 -0.7310  0.0649  0.3052
  114OSM    H4F11932   2.085   5.066  10.339 -0.6584  1.0762  2.4598
  114OSM    H4G11933   2.258   5.045  10.303  0.9431  1.8126  0.0100
  114OSM    C5F11934   2.154   5.179  10.173  0.3919  0.1739  0.2121
  114OSM    H5F11935   2.217   5.270  10.163 -1.9014  1.7246 -1.0333
  114OSM    H5G11936   2.048   5.210  10.162  0.2164  0.0468  1.3696
  114OSM    C6F11937   2.174   5.074  10.063 -0.1927  0.2386 -0.1780
  114OSM    H6F11938   2.155   4.969  10.096  1.1652  0.3029  0.8761
  114OSM    H6G11939   2.278   5.071  10.025 -0.6141  0.3936 -1.3891
  114OSM    C7F11940   2.079   5.109   9.947  0.8366 -0.3367 -0.0109
  114OSM    H7F11941   2.083   5.219   9.932 -1.3966 -0.1169  0.5217
  114OSM    H7G11942   1.974   5.089   9.977  0.3249  0.2293 -1.3400
  114OSM    C8F11943   2.108   5.057   9.811 -0.4488  0.3530  0.0813
  114OSM    H8F11944   2.153   4.957   9.830  0.7749  1.1925  1.9348
  114OSM    H8G11945   2.189   5.113   9.759  1.2611 -2.4202 -0.4408
  114OSM    C9F11946   1.988   5.062   9.724 -0.3218  0.3774 -0.1575
  114OSM    H9F11947   1.946   4.960   9.725  1.5206 -0.4123 -0.1251
  114OSM   C10F11948   1.937   5.175   9.672  0.7026 -0.6109  0.3990
  114OSM   H10F11949   1.849   5.183   9.606 -1.7926  3.1849  3.7063
  114OSM   C11F11950   1.998   5.314   9.677 -0.3720  0.2940 -0.4206
  114OSM   H11F11951   2.098   5.311   9.726 -0.1731  2.8278 -0.5342
  114OSM   H11G11952   1.941   5.385   9.741 -0.6293  0.7511 -1.1477
  114OSM   C12F11953   2.019   5.383   9.540 -0.1217 -1.3167 -0.8728
  114OSM   H12F11954   2.073   5.480   9.550 -0.3279 -1.2471 -0.3816
  114OSM   H12G11955   1.920   5.414   9.499  1.3289  1.4850 -2.5120
  114OSM   C13F11956   2.071   5.296   9.420 -0.2762  0.2867  0.3426
  114OSM   H13F11957   1.990   5.225   9.395  1.7125 -1.1263 -2.6825
  114OSM   H13G11958   2.159   5.241   9.459 -1.6085 -0.4877  2.3808
  114OSM   C14F11959   2.114   5.386   9.292  0.1291  0.2699  0.3295
  114OSM   H14F11960   2.147   5.308   9.220  0.2579 -0.1782  0.8647
  114OSM   H14G11961   2.185   5.461   9.332 -1.0036  1.4605  0.1620
  114OSM   C15F11962   2.000   5.460   9.228  0.3678 -0.1787 -0.3422
  114OSM   H15F11963   1.953   5.533   9.297  1.5520 -0.7416  1.1068
  114OSM   H15G11964   1.920   5.387   9.201 -2.1156  0.9323  3.2415
  114OSM   C16F11965   2.046   5.528   9.104  0.7584 -0.4915 -0.2234
  114OSM   H16F11966   2.127   5.469   9.056  0.0452 -1.2843 -0.4841
  114OSM   H16G11967   2.076   5.633   9.120 -1.7039  0.4227 -1.1233
  114OSM   C17F11968   1.933   5.529   8.992 -0.0289  0.3206 -0.4513
  114OSM   H17F11969   1.853   5.592   9.037 -0.5838 -0.8920  0.3109
  114OSM   H17G11970   1.886   5.430   8.972 -0.3474 -0.0969  2.0717
  114OSM   C18F11971   1.993   5.605   8.881 -0.3094 -0.2624  0.8352
  114OSM   H18F11972   2.071   5.545   8.832  0.8094 -0.4265  2.7107
  114OSM   H18G11973   2.029   5.703   8.919 -2.4755  0.3780  1.4264
  114OSM   H18H11974   1.915   5.635   8.807  0.1076 -2.4607 -0.5659
  115OSM      N11975   3.818   4.848  11.063  0.1389 -0.3254  0.9264
  115OSM    C1511976   3.781   4.768  11.182  0.3394  0.1939  0.2447
  115OSM   H15A11977   3.836   4.797  11.271 -0.0579 -0.5630  0.7504
  115OSM   H15B11978   3.811   4.665  11.174 -2.1728 -0.5979 -0.0274
  115OSM   H15C11979   3.674   4.773  11.200  0.4238 -0.1221  0.8588
  115OSM    C1411980   3.720   4.810  10.958  0.1721 -0.3163 -0.0986
  115OSM   H14A11981   3.728   4.876  10.873  0.4341  0.5485  0.5811
  115OSM   H14B11982   3.620   4.834  10.992  0.0409 -0.5827 -0.2979
  115OSM   H14C11983   3.711   4.704  10.939 -0.7679 -0.2577 -0.0401
  115OSM    C1311984   3.782   4.990  11.092 -0.4438 -0.3518 -0.2219
  115OSM   H13A11985   3.778   5.046  10.999  0.0667  2.3033  1.2774
  115OSM   H13B11986   3.861   5.035  11.149 -0.4849 -0.6849  0.0986
  115OSM   H13C11987   3.695   4.998  11.155  0.8664 -2.1215  1.9767
  115OSM    C1211988   3.959   4.826  11.008 -0.0125 -0.3489 -0.1536
  115OSM   H12A11989   3.982   4.881  10.918 -0.7221  0.8598  0.3886
  115OSM   H12B11990   3.963   4.719  10.989  0.0700  0.1062 -3.0186
  115OSM    C1111991   4.081   4.836  11.101 -0.0453 -0.1606  0.2117
  115OSM   H11A11992   4.184   4.810  11.067  2.2212  1.7864  4.7925
  115OSM   H11B11993   4.057   4.763  11.181 -0.4034 -0.7948 -0.4574
  115OSM      P11994   4.114   5.092  11.065 -0.0644  0.0531 -0.3865
  115OSM    O1311995   4.020   5.203  11.108 -0.6061  0.3908  0.2620
  115OSM    O1411996   4.258   5.133  11.071  0.1225 -0.7606 -0.9918
  115OSM    O1111997   4.073   5.052  10.919 -0.2633 -0.2053 -0.0907
  115OSM    O1211998   4.084   4.966  11.157  0.4767 -0.2017 -0.4462
  115OSM    C1S11999   4.162   5.075  10.805  0.0317  0.0417  0.3709
  115OSM    H1S12000   4.266   5.046  10.828  0.8382  3.0360  0.9333
  115OSM    H1T12001   4.164   5.185  10.789  0.4436 -0.0701 -0.4001
  115OSM     NF12002   4.202   5.031  10.567 -1.0320  0.0660 -0.3798
  115OSM    HNF12003   4.165   5.068  10.482  2.2493  2.3891 -0.9987
  115OSM    C2S12004   4.115   5.005  10.676 -0.0450 -0.5287 -0.2574
  115OSM    H2S12005   4.108   4.899  10.708 -0.5228  0.0378  1.6403
  115OSM    C3S12006   3.965   5.036  10.652  0.2533 -0.7528 -0.3022
  115OSM    H3S12007   3.964   5.145  10.627  0.3169 -0.2134  1.8471
  115OSM     O312008   3.876   5.039  10.757  0.2050 -0.6353  0.3896
  115OSM    HO312009   3.930   5.038  10.836 -1.7205  2.1486  1.8869
  115OSM    C4S12010   3.904   4.954  10.533  0.3378  0.4199  1.0332
  115OSM    H4S12011   3.919   5.009  10.439 -0.9894  0.2964  0.7376
  115OSM    C5S12012   3.854   4.825  10.546 -0.1434 -0.0515 -0.4575
  115OSM    H5S12013   3.855   4.774  10.644  2.8484 -0.3390 -0.5422
  115OSM    C6S12014   3.794   4.745  10.434  0.9667  0.5938  0.2133
  115OSM    H6S12015   3.683   4.750  10.431  0.8564 -0.9229  0.9074
  115OSM    H6T12016   3.826   4.641  10.458  0.2106  0.4114  0.4372
  115OSM    C7S12017   3.839   4.773  10.289 -0.1277 -0.4432 -0.8002
  115OSM    H7S12018   3.950   4.777  10.287 -0.1023  3.6694  0.1691
  115OSM    H7T12019   3.807   4.874  10.257  0.4594 -0.1370 -0.4460
  115OSM    C8S12020   3.773   4.679  10.190 -0.4318  0.1977 -0.3664
  115OSM    H8S12021   3.664   4.690  10.208 -0.1075 -0.8702  3.1574
  115OSM    H8T12022   3.791   4.574  10.221  1.4742  1.4004  3.2969
  115OSM    C9S12023   3.802   4.701  10.033 -0.6344  0.4530  0.3579
  115OSM    H9S12024   3.795   4.809  10.007  2.4021  0.6415 -0.0951
  115OSM    H9T12025   3.722   4.641   9.986 -0.7579 -0.0310  1.1630
  115OSM   C10S12026   3.934   4.646   9.986  0.1588  0.6644 -0.1435
  115OSM   H10S12027   3.948   4.550  10.041 -0.1388  1.6167  1.6885
  115OSM   H10T12028   4.020   4.704  10.024 -0.6493  1.5352  0.4158
  115OSM   C11S12029   3.940   4.633   9.828 -0.0983  0.2613 -0.3319
  115OSM   H11S12030   3.947   4.732   9.778  1.5601  1.2051  1.6159
  115OSM   H11T12031   3.837   4.595   9.811 -0.4587  1.0067  0.1401
  115OSM   C12S12032   4.046   4.534   9.774 -0.0980  0.5076 -0.0835
  115OSM   H12S12033   4.046   4.435   9.824 -1.3218  0.1621 -0.7052
  115OSM   H12T12034   4.146   4.581   9.788  0.2635 -0.5196  0.9223
  115OSM   C13S12035   4.021   4.501   9.625  0.8825  0.5417 -0.1878
  115OSM   H13S12036   4.073   4.583   9.571 -0.4383 -0.0046 -2.4017
  115OSM   H13T12037   3.912   4.497   9.606  0.4188  2.4999  1.6999
  115OSM   C14S12038   4.090   4.378   9.567 -0.1911  0.1992  0.3574
  115OSM   H14S12039   4.046   4.280   9.597 -1.2818  0.1933 -1.1419
  115OSM   H14T12040   4.197   4.375   9.597  0.3911 -1.9160 -1.6262
  115OSM   C15S12041   4.073   4.379   9.413  0.3836 -0.1978  0.6220
  115OSM   H15S12042   4.104   4.479   9.377 -2.2516  0.6571  0.5025
  115OSM   H15T12043   3.964   4.373   9.392  0.9155 -2.5966 -2.0876
  115OSM   C16S12044   4.126   4.263   9.338 -0.1718 -0.4745  0.2321
  115OSM   H16S12045   4.075   4.168   9.368 -2.2061  1.0218  1.8448
  115OSM   H16T12046   4.233   4.247   9.364  0.0049 -0.3307 -0.4065
  115OSM   C17S12047   4.098   4.274   9.186 -0.2514 -0.0957 -0.0236
  115OSM   H17S12048   4.168   4.347   9.140  0.1305 -0.7694 -0.5189
  115OSM   H17T12049   3.996   4.308   9.158 -0.8321 -0.7784  1.1828
  115OSM   C18S12050   4.128   4.140   9.110 -0.0503 -0.5104 -0.7261
  115OSM   H18S12051   4.207   4.077   9.158 -2.0148 -2.1896  0.4833
  115OSM   H18T12052   4.154   4.152   9.003 -1.0820 -1.5748 -1.1035
  115OSM   H18U12053   4.040   4.072   9.114 -0.6843  0.3293 -0.0301
  115OSM    C1F12054   4.332   5.013  10.575 -0.3564  0.7420 -0.5852
  115OSM     OF12055   4.392   4.957  10.662  0.3302  0.4017  0.7568
  115OSM    C2F12056   4.407   5.066  10.455 -0.3353 -0.9346 -0.2076
  115OSM    H2F12057   4.377   5.172  10.438  0.3227 -0.7121 -0.0172
  115OSM    H2G12058   4.375   5.006  10.368 -3.6003 -0.5687  0.6157
  115OSM    C3F12059   4.556   5.051  10.463  0.0743  0.0501 -0.1635
  115OSM    H3F12060   4.577   4.942  10.459  0.0067 -0.1456  2.6148
  115OSM    H3G12061   4.600   5.090  10.558 -0.0280 -1.6860  0.6261
  115OSM    C4F12062   4.639   5.118  10.358  0.0991 -0.2039  0.6578
  115OSM    H4F12063   4.743   5.094  10.390 -0.8293 -2.1241  2.4604
  115OSM    H4G12064   4.612   5.225  10.372 -0.7282 -0.1137 -1.3264
  115OSM    C5F12065   4.603   5.076  10.213  0.2436 -0.0430 -0.1324
  115OSM    H5F12066   4.497   5.107  10.196  0.0065 -1.1080 -0.6467
  115OSM    H5G12067   4.623   4.968  10.200 -0.1460 -0.0991 -0.2967
  115OSM    C6F12068   4.677   5.147  10.100 -0.4578  1.1225 -0.3423
  115OSM    H6F12069   4.785   5.127  10.118 -0.5687  0.6639 -0.1856
  115OSM    H6G12070   4.657   5.256  10.103  0.2551  1.2407  0.4251
  115OSM    C7F12071   4.639   5.086   9.967  0.2286  0.2957 -0.1428
  115OSM    H7F12072   4.532   5.058   9.955  0.5056 -1.8303  1.7627
  115OSM    H7G12073   4.686   4.986   9.981 -0.4684  0.3449  3.4119
  115OSM    C8F12074   4.702   5.157   9.848 -0.5624  0.9396 -0.7212
  115OSM    H8F12075   4.694   5.267   9.859  0.7863  1.1193 -1.4034
  115OSM    H8G12076   4.644   5.136   9.755  0.6066  0.6054 -1.3992
  115OSM    C9F12077   4.843   5.107   9.823 -0.4844 -0.1058 -0.5592
  115OSM    H9F12078   4.918   5.124   9.902  1.4724 -1.0132 -2.1257
  115OSM   C10F12079   4.899   5.047   9.713  0.1731 -0.0301 -0.4109
  115OSM   H10F12080   5.007   5.025   9.711  0.1344 -0.1644 -1.1294
  115OSM   C11F12081   4.817   5.026   9.584  0.2862  0.4633 -0.1762
  115OSM   H11F12082   4.719   5.077   9.580  0.0915 -0.0002 -1.9381
  115OSM   H11G12083   4.804   4.916   9.578  0.4804  0.4910 -1.1639
  115OSM   C12F12084   4.897   5.066   9.458  0.2025  0.2666  0.3601
  115OSM   H12F12085   5.004   5.034   9.457 -0.2164 -1.2346 -1.0512
  115OSM   H12G12086   4.890   5.176   9.450  2.6559  0.4550  0.0366
  115OSM   C13F12087   4.851   4.998   9.327  0.9149 -0.2626 -0.1456
  115OSM   H13F12088   4.741   5.003   9.315  0.5755  3.8185  2.6732
  115OSM   H13G12089   4.880   4.891   9.333  2.1111 -0.0182 -1.1348
  115OSM   C14F12090   4.917   5.066   9.204 -0.6862  0.3094  0.1100
  115OSM   H14F12091   5.027   5.052   9.214 -0.5836  1.1324  0.2297
  115OSM   H14G12092   4.912   5.177   9.206  0.4799  0.3722  1.9742
  115OSM   C15F12093   4.863   5.007   9.075 -0.0736 -0.0355 -0.1091
  115OSM   H15F12094   4.755   5.032   9.061 -0.4842 -1.0235  1.1034
  115OSM   H15G12095   4.868   4.897   9.091 -2.4660 -0.3965 -1.4387
  115OSM   C16F12096   4.936   5.047   8.946  0.4874  0.3532  0.6272
  115OSM   H16F12097   5.047   5.044   8.952  0.7995  1.3600 -2.8908
  115OSM   H16G12098   4.919   5.156   8.935 -1.4080  0.3131  2.4554
  115OSM   C17F12099   4.873   4.986   8.819  0.1155  0.7335  0.4026
  115OSM   H17F12100   4.765   5.006   8.830 -0.3721 -0.1915 -2.0966
  115OSM   H17G12101   4.893   4.877   8.821 -0.3795  0.6337  2.8680
  115OSM   C18F12102   4.940   5.054   8.699 -0.5391  0.6799  0.0442
  115OSM   H18F12103   4.895   5.036   8.599  1.8803 -1.1789 -0.7904
  115OSM   H18G12104   5.049   5.034   8.699 -0.4153  1.2729  0.9945
  115OSM   H18H12105   4.929   5.164   8.716 -1.1592  0.5359  0.5946
  116OSM      N12106   1.257   1.303  10.835 -0.1379 -0.1584  0.1095
  116OSM    C1512107   1.207   1.436  10.854 -0.3794  0.1548  0.1376
  116OSM   H15A12108   1.207   1.485  10.757 -0.0303 -0.9180 -0.4225
  116OSM   H15B12109   1.281   1.491  10.910 -0.2129 -0.2968  0.3646
  116OSM   H15C12110   1.107   1.436  10.894 -0.6701 -0.4259 -0.5580
  116OSM    C1412111   1.302   1.252  10.967  0.1511 -0.9501 -0.0104
  116OSM   H14A12112   1.380   1.311  11.013  0.9707 -2.6009  0.7673
  116OSM   H14B12113   1.334   1.149  10.962  1.2663 -0.5936 -0.5636
  116OSM   H14C12114   1.221   1.246  11.039 -1.0737 -4.1284 -1.4422
  116OSM    C1312115   1.151   1.207  10.784 -0.0149  0.4088 -0.4290
  116OSM   H13A12116   1.062   1.221  10.844 -1.9155 -1.8825 -2.4794
  116OSM   H13B12117   1.178   1.103  10.793  0.3047  0.6163  1.2844
  116OSM   H13C12118   1.120   1.226  10.682  0.2879 -1.8823 -1.0025
  116OSM    C1212119   1.368   1.306  10.731  0.6908 -0.0536 -0.7980
  116OSM   H12A12120   1.325   1.335  10.636  1.4082 -1.1721 -1.4839
  116OSM   H12B12121   1.417   1.211  10.718  1.2654 -0.3296  2.4685
  116OSM    C1112122   1.487   1.403  10.757  0.0876  0.2436  1.0673
  116OSM   H11A12123   1.453   1.502  10.718 -0.0156 -0.6661 -1.2959
  116OSM   H11B12124   1.557   1.362  10.681 -0.7388 -0.3005  0.5807
  116OSM      P12125   1.649   1.501  10.951  0.3470 -0.1775 -0.2884
  116OSM    O1312126   1.578   1.596  11.038 -0.7975  0.6613  0.1378
  116OSM    O1412127   1.774   1.432  10.997  0.1292 -0.1551 -0.3223
  116OSM    O1112128   1.685   1.581  10.820 -0.1876  0.9508 -0.2980
  116OSM    O1212129   1.544   1.395  10.890 -0.3332 -0.6890 -0.7361
  116OSM    C1S12130   1.799   1.538  10.740  0.1741 -0.7028 -0.3739
  116OSM    H1S12131   1.804   1.427  10.741  2.7353 -0.6410  0.9694
  116OSM    H1T12132   1.897   1.561  10.787  0.0660  1.1443 -0.9784
  116OSM     NF12133   1.896   1.544  10.509 -0.4566  0.1727 -0.0059
  116OSM    HNF12134   1.971   1.603  10.481  1.5114 -2.5272 -0.8050
  116OSM    C2S12135   1.796   1.604  10.598 -0.1629 -0.2742 -0.4571
  116OSM    H2S12136   1.696   1.574  10.559 -0.2344 -0.3372 -0.2220
  116OSM    C3S12137   1.802   1.753  10.594  0.6219  0.8506 -0.1720
  116OSM    H3S12138   1.903   1.786  10.629  2.3833 -1.1213 -2.9473
  116OSM     O312139   1.714   1.807  10.693  0.3458  0.1542 -0.3774
  116OSM    HO312140   1.708   1.727  10.745 -1.6964 -1.1942 -2.4714
  116OSM    C4S12141   1.775   1.811  10.455 -0.8807 -0.0558 -0.3826
  116OSM    H4S12142   1.692   1.766  10.398 -0.1651  0.5087 -1.9289
  116OSM    C5S12143   1.848   1.913  10.407  0.1008 -0.4101 -0.5539
  116OSM    H5S12144   1.921   1.961  10.473 -2.3804  0.1751  1.9651
  116OSM    C6S12145   1.831   1.985  10.273 -0.0508  0.0452 -0.1865
  116OSM    H6S12146   1.934   2.016  10.246  0.4251 -1.1957  0.1488
  116OSM    H6T12147   1.767   2.073  10.295  1.0129  0.0722  3.4029
  116OSM    C7S12148   1.775   1.908  10.150  0.3380  0.3437 -1.0942
  116OSM    H7S12149   1.670   1.879  10.174  0.4151  0.5231 -0.5266
  116OSM    H7T12150   1.826   1.812  10.129  1.2245  0.9371 -1.7566
  116OSM    C8S12151   1.766   1.991  10.027 -0.4294 -0.0356  0.8499
  116OSM    H8S12152   1.742   2.096  10.050 -1.1115  0.5802 -2.2144
  116OSM    H8T12153   1.681   1.956   9.964  0.0292 -0.7885  0.6335
  116OSM    C9S12154   1.898   2.001   9.942  0.1750  0.9002 -1.0478
  116OSM    H9S12155   1.948   1.902   9.943  2.0321  1.8158 -0.0043
  116OSM    H9T12156   1.961   2.061  10.011  1.4731  0.4202 -1.7802
  116OSM   C10S12157   1.878   2.075   9.815  0.2066  0.4095 -0.5226
  116OSM   H10S12158   1.974   2.114   9.773 -0.1010  0.9898 -0.7041
  116OSM   H10T12159   1.828   2.169   9.848 -1.8308 -0.7296 -0.2170
  116OSM   C11S12160   1.795   2.007   9.711 -0.3114 -0.1540 -0.2326
  116OSM   H11S12161   1.690   2.028   9.739 -0.3136 -1.2173  0.6512
  116OSM   H11T12162   1.784   1.897   9.722 -1.1423  0.0127  0.7182
  116OSM   C12S12163   1.832   2.056   9.573  0.5619  0.2072  0.1538
  116OSM   H12S12164   1.860   2.163   9.572  1.0627  0.0768 -0.8623
  116OSM   H12T12165   1.741   2.033   9.514 -0.6174  2.5136  0.9569
  116OSM   C13S12166   1.955   1.980   9.520  0.4569 -0.8406 -0.2512
  116OSM   H13S12167   1.935   1.871   9.529 -0.6727 -0.6807 -0.6872
  116OSM   H13T12168   2.055   1.999   9.564  1.2239 -0.1378 -2.1977
  116OSM   C14S12169   1.975   2.008   9.369 -0.5242  0.3939 -0.0094
  116OSM   H14S12170   2.078   1.970   9.352 -1.0241 -1.4949  1.0087
  116OSM   H14T12171   1.981   2.118   9.351 -2.3609  0.2561 -1.8140
  116OSM   C15S12172   1.860   1.953   9.280  0.1647  0.1107  0.2981
  116OSM   H15S12173   1.765   2.002   9.308 -0.0578 -0.4479  0.5222
  116OSM   H15T12174   1.847   1.843   9.282  2.7368 -0.3407 -1.9989
  116OSM   C16S12175   1.914   1.967   9.134  0.0958 -0.5491 -0.4935
  116OSM   H16S12176   1.910   2.075   9.112 -0.6296 -0.6320 -0.7805
  116OSM   H16T12177   1.846   1.900   9.077  1.0599 -0.8360 -1.3456
  116OSM   C17S12178   2.056   1.924   9.107 -0.3442 -0.0055  0.5147
  116OSM   H17S12179   2.084   1.833   9.164  0.7829 -0.4830 -0.7667
  116OSM   H17T12180   2.125   2.005   9.138  1.0390 -0.8775 -0.1846
  116OSM   C18S12181   2.082   1.916   8.946  0.1311  0.0342 -1.3598
  116OSM   H18S12182   2.177   1.863   8.925 -0.0412 -0.3332 -1.2331
  116OSM   H18T12183   2.090   2.018   8.903  1.6098  0.0810 -1.0268
  116OSM   H18U12184   2.005   1.846   8.907  0.5271 -1.4133  0.3318
  116OSM    C1F12185   1.886   1.422  10.462  0.2180  0.4574 -0.3357
  116OSM     OF12186   1.821   1.336  10.519 -0.2325 -0.4198 -0.5399
  116OSM    C2F12187   1.953   1.396  10.328  0.6184  0.6723 -0.2027
  116OSM    H2F12188   2.055   1.355  10.335  0.5902 -0.6291 -4.5118
  116OSM    H2G12189   1.980   1.495  10.284  2.0311  0.1203 -0.6356
  116OSM    C3F12190   1.855   1.316  10.239 -0.1172  0.3834  0.3273
  116OSM    H3F12191   1.752   1.355  10.244 -0.0236  0.6132  0.4645
  116OSM    H3G12192   1.862   1.212  10.277  1.5423  1.0917  2.1719
  116OSM    C4F12193   1.899   1.323  10.091 -0.0085  0.2557  0.3123
  116OSM    H4F12194   1.861   1.246  10.020  0.0436  1.0947 -0.6496
  116OSM    H4G12195   2.010   1.311  10.090 -0.1698 -1.4625 -0.1479
  116OSM    C5F12196   1.859   1.461  10.025  0.3758  0.0498 -0.3247
  116OSM    H5F12197   1.913   1.547  10.070  0.9748  0.6151 -2.0359
  116OSM    H5G12198   1.753   1.472  10.055  0.2425 -0.2725 -0.6776
  116OSM    C6F12199   1.873   1.458   9.871 -0.0218 -0.3629  0.3250
  116OSM    H6F12200   1.782   1.413   9.826  2.1453 -2.8454 -1.9256
  116OSM    H6G12201   1.966   1.408   9.834  0.9570  2.2748 -1.0365
  116OSM    C7F12202   1.867   1.602   9.813  0.1567  0.0883  0.2196
  116OSM    H7F12203   1.967   1.644   9.836 -0.2194 -0.5456  3.5043
  116OSM    H7G12204   1.787   1.662   9.861  0.4892 -0.0386  0.9379
  116OSM    C8F12205   1.847   1.604   9.660  0.3463  0.3922  1.2333
  116OSM    H8F12206   1.833   1.707   9.621  0.1318 -0.4843 -1.2106
  116OSM    H8G12207   1.755   1.549   9.630  2.0751 -2.3321  0.6448
  116OSM    C9F12208   1.969   1.551   9.584  1.0675 -0.3942 -0.4114
  116OSM    H9F12209   2.062   1.584   9.631  0.8641  1.5377 -1.2850
  116OSM   C10F12210   1.965   1.483   9.477 -0.0092  0.5292 -0.1071
  116OSM   H10F12211   2.063   1.445   9.443  0.4388  0.5271  1.1208
  116OSM   C11F12212   1.842   1.437   9.403  0.0802  0.2357 -0.2065
  116OSM   H11F12213   1.761   1.509   9.428  0.6604  0.3625  1.4409
  116OSM   H11G12214   1.820   1.336   9.444  2.9270 -1.0907 -1.6571
  116OSM   C12F12215   1.837   1.439   9.249 -0.0061  0.4251 -0.2891
  116OSM   H12F12216   1.737   1.397   9.223  0.8437 -1.3626 -0.8205
  116OSM   H12G12217   1.909   1.366   9.205 -0.6880  0.7553 -2.0546
  116OSM   C13F12218   1.850   1.576   9.190  0.2618  0.2103  0.2381
  116OSM   H13F12219   1.941   1.628   9.225 -0.4158  1.3003  0.4237
  116OSM   H13G12220   1.765   1.644   9.215  0.6631  1.2122 -1.0105
  116OSM   C14F12221   1.857   1.573   9.041  0.0516  0.7381 -0.3112
  116OSM   H14F12222   1.866   1.680   9.012  1.5137  0.5909 -0.4630
  116OSM   H14G12223   1.770   1.521   8.995  0.6638  2.0769 -3.2274
  116OSM   C15F12224   1.980   1.491   8.983  0.5093  0.1335 -0.4118
  116OSM   H15F12225   1.973   1.385   9.016  2.4282  0.0510 -0.1941
  116OSM   H15G12226   2.074   1.541   9.013 -0.3571  2.0883 -0.7886
  116OSM   C16F12227   1.981   1.502   8.829 -0.4225 -0.5794  0.0416
  116OSM   H16F12228   1.994   1.606   8.792 -0.4643 -1.5619 -3.0166
  116OSM   H16G12229   1.890   1.456   8.786  0.5800 -1.5775 -1.1260
  116OSM   C17F12230   2.104   1.432   8.765 -0.6103 -0.2395  0.2622
  116OSM   H17F12231   2.083   1.326   8.790  0.6444 -0.9740 -1.5537
  116OSM   H17G12232   2.202   1.453   8.813 -0.2574 -1.1084 -0.0464
  116OSM   C18F12233   2.131   1.466   8.626  0.4167  0.6639 -0.3353
  116OSM   H18F12234   2.206   1.399   8.580  1.7753  0.1609  2.4266
  116OSM   H18G12235   2.184   1.563   8.613  2.3253 -0.2997 -0.0281
  116OSM   H18H12236   2.037   1.468   8.567  0.8862 -1.5405 -1.2435
  117OSM      N12237   5.987   1.344  10.994 -0.0047  0.3296 -0.4010
  117OSM    C1512238   5.854   1.390  11.059 -0.0674  0.2572  0.2805
  117OSM   H15A12239   5.873   1.494  11.083 -0.2369  0.3946 -0.1680
  117OSM   H15B12240   5.826   1.331  11.145  0.4589  0.2572  0.4574
  117OSM   H15C12241   5.772   1.391  10.989 -0.0881  0.4316  0.3067
  117OSM    C1412242   6.096   1.342  11.101  0.0495 -0.0654 -0.0289
  117OSM   H14A12243   6.111   1.439  11.144  2.0839 -0.2881 -0.1448
  117OSM   H14B12244   6.186   1.295  11.065 -0.1376 -1.1963  0.9250
  117OSM   H14C12245   6.064   1.275  11.179  0.7650 -0.7897 -0.3469
  117OSM    C1312246   5.972   1.206  10.938 -0.1816  0.3457 -0.0353
  117OSM   H13A12247   6.061   1.176  10.885  0.7437  3.7153 -0.6768
  117OSM   H13B12248   5.893   1.194  10.866  2.0026  0.9627 -2.7052
  117OSM   H13C12249   5.961   1.135  11.018 -0.9415 -0.3394 -0.7404
  117OSM    C1212250   6.026   1.446  10.886 -0.0244  0.2519 -0.7860
  117OSM   H12A12251   6.013   1.545  10.929  1.0793  0.0792 -0.0017
  117OSM   H12B12252   5.970   1.430  10.795  0.5508 -2.6336 -0.7252
  117OSM    C1112253   6.174   1.443  10.836  0.2465  0.5267  0.6652
  117OSM   H11A12254   6.184   1.482  10.733  1.6963 -1.4959 -0.0173
  117OSM   H11B12255   6.192   1.334  10.831 -1.2466  0.1876  1.8207
  117OSM      P12256   6.280   1.661  10.933  0.0300  0.2444 -0.0259
  117OSM    O1312257   6.157   1.705  11.000 -0.0451  0.1221  0.2458
  117OSM    O1412258   6.407   1.702  10.992  0.5037 -0.3909  0.5011
  117OSM    O1112259   6.264   1.711  10.780  0.2714 -0.2599 -0.2000
  117OSM    O1212260   6.274   1.503  10.930  0.3495 -0.4360 -0.0831
  117OSM    C1S12261   6.374   1.704  10.697  0.0818 -0.4037  0.2467
  117OSM    H1S12262   6.400   1.596  10.691 -0.5479 -0.5060 -0.9090
  117OSM    H1T12263   6.457   1.763  10.740  0.5133 -0.7432 -0.1033
  117OSM     NF12264   6.444   1.715  10.457 -0.0135 -0.0593  0.7152
  117OSM    HNF12265   6.510   1.786  10.434 -1.7751  1.3004 -0.4188
  117OSM    C2S12266   6.349   1.763  10.551  0.1044  0.0441 -0.2497
  117OSM    H2S12267   6.247   1.724  10.529 -1.6288  3.4552  1.0102
  117OSM    C3S12268   6.320   1.918  10.559  0.3499  0.1884 -0.6233
  117OSM    H3S12269   6.392   1.984  10.612 -0.6885  0.2319  0.7895
  117OSM     O312270   6.196   1.942  10.626  0.5595 -0.0777 -0.0226
  117OSM    HO312271   6.170   1.857  10.663 -0.1409 -1.0216 -2.5092
  117OSM    C4S12272   6.303   1.969  10.419  0.1874  0.0782 -0.0039
  117OSM    H4S12273   6.218   1.919  10.370  2.5075 -1.0603 -3.2102
  117OSM    C5S12274   6.371   2.057  10.341  0.4392 -0.1272  0.0255
  117OSM    H5S12275   6.462   2.104  10.381  0.7762  0.8628 -1.7681
  117OSM    C6S12276   6.329   2.078  10.202  0.3400 -0.0911  0.0253
  117OSM    H6S12277   6.422   2.098  10.145  0.6720 -0.1222  0.5465
  117OSM    H6T12278   6.280   2.177  10.192  3.4094  1.3871 -1.7241
  117OSM    C7S12279   6.265   1.969  10.110 -0.1270  0.3068  0.2420
  117OSM    H7S12280   6.166   1.938  10.151  0.5192 -1.7064  0.3549
  117OSM    H7T12281   6.334   1.883  10.108 -3.0396 -2.1957 -1.3203
  117OSM    C8S12282   6.221   2.021   9.970  0.2383 -0.0554 -0.2289
  117OSM    H8S12283   6.202   2.130   9.982  2.7425  0.3086  1.0856
  117OSM    H8T12284   6.124   1.977   9.939  1.0006 -1.3684 -0.7980
  117OSM    C9S12285   6.320   2.009   9.858 -0.1219  0.1709 -0.3255
  117OSM    H9S12286   6.295   1.914   9.806 -5.5335  0.2835  1.5427
  117OSM    H9T12287   6.425   2.007   9.894 -0.5100 -0.5092  0.7971
  117OSM   C10S12288   6.309   2.120   9.751 -0.4474 -0.1985  0.0776
  117OSM   H10S12289   6.407   2.122   9.699 -0.4178 -0.9210  0.1045
  117OSM   H10T12290   6.278   2.218   9.794 -0.3027 -0.1950  0.1756
  117OSM   C11S12291   6.213   2.084   9.631  0.1175 -0.1693 -0.1837
  117OSM   H11S12292   6.113   2.073   9.679  0.5391  0.2471  0.8215
  117OSM   H11T12293   6.237   1.988   9.580 -2.0022 -0.1186 -1.3795
  117OSM   C12S12294   6.220   2.195   9.525 -0.1121  0.5982 -0.0696
  117OSM   H12S12295   6.326   2.200   9.494  0.7175 -2.4047  1.8468
  117OSM   H12T12296   6.188   2.291   9.571 -2.0593 -0.1165  0.1575
  117OSM   C13S12297   6.126   2.163   9.407  0.7172 -0.0221  0.2698
  117OSM   H13S12298   6.113   2.257   9.350 -1.9307  0.0097  0.8066
  117OSM   H13T12299   6.029   2.146   9.459  1.3599  2.7162  2.5835
  117OSM   C14S12300   6.178   2.060   9.306  0.2169 -0.2066  0.0966
  117OSM   H14S12301   6.230   1.974   9.354 -1.5996 -0.5076  1.6007
  117OSM   H14T12302   6.257   2.116   9.251 -0.0094 -0.1715 -0.1922
  117OSM   C15S12303   6.079   2.016   9.202  0.2618 -0.6222 -0.0884
  117OSM   H15S12304   6.034   2.100   9.146  1.8964 -0.0948 -0.6509
  117OSM   H15T12305   6.000   1.957   9.255 -1.3931 -1.4500 -3.2055
  117OSM   C16S12306   6.121   1.919   9.091 -0.2064  0.0190  0.3781
  117OSM   H16S12307   6.181   1.841   9.143  0.2572  1.5774  2.3194
  117OSM   H16T12308   6.191   1.977   9.028  1.3439 -2.9811 -0.8778
  117OSM   C17S12309   6.011   1.854   9.009  0.0447 -0.0156  1.0740
  117OSM   H17S12310   5.929   1.923   8.980 -0.4650 -0.2195  1.9922
  117OSM   H17T12311   5.968   1.776   9.076 -0.1922 -0.1581  0.7607
  117OSM   C18S12312   6.064   1.775   8.884 -0.3750 -0.1611 -0.6078
  117OSM   H18S12313   6.119   1.688   8.927 -0.6174 -1.1507 -2.2024
  117OSM   H18T12314   6.140   1.826   8.821 -0.9535  1.6762  0.1389
  117OSM   H18U12315   5.983   1.729   8.824  0.2380  1.1386 -2.5382
  117OSM    C1F12316   6.455   1.584  10.428 -0.7400 -0.4904  0.2369
  117OSM     OF12317   6.360   1.509  10.450  0.0286 -0.6423  0.0119
  117OSM    C2F12318   6.583   1.530  10.366 -0.4469  0.9813 -0.3472
  117OSM    H2F12319   6.621   1.459  10.443  1.8786 -0.4713 -2.6530
  117OSM    H2G12320   6.652   1.615  10.351 -2.1459  2.4510 -0.2224
  117OSM    C3F12321   6.568   1.460  10.226 -0.4039  0.2232 -0.1673
  117OSM    H3F12322   6.480   1.396  10.248 -1.7120  1.9700 -0.1288
  117OSM    H3G12323   6.659   1.398  10.216 -1.3738 -1.2908  0.0972
  117OSM    C4F12324   6.534   1.556  10.112 -0.0275  0.1428  0.5713
  117OSM    H4F12325   6.630   1.612  10.105 -0.2310  0.3468 -0.8213
  117OSM    H4G12326   6.453   1.624  10.146 -1.5422 -0.1666 -2.1344
  117OSM    C5F12327   6.497   1.486   9.977 -0.0193  0.1920 -0.5675
  117OSM    H5F12328   6.391   1.456   9.983 -0.3031  1.4019  2.7064
  117OSM    H5G12329   6.559   1.394   9.964  0.3100  0.7513 -3.6886
  117OSM    C6F12330   6.516   1.582   9.863 -0.4503 -0.4609 -0.0003
  117OSM    H6F12331   6.626   1.598   9.855 -0.5421 -0.1893 -0.7168
  117OSM    H6G12332   6.473   1.682   9.883  4.4737  1.8959  0.4350
  117OSM    C7F12333   6.468   1.528   9.731  0.2303 -0.0204 -0.0114
  117OSM    H7F12334   6.357   1.534   9.732  0.2067 -0.0125 -1.2134
  117OSM    H7G12335   6.496   1.421   9.740 -1.2226 -0.3454  0.8393
  117OSM    C8F12336   6.539   1.583   9.607 -0.5731  0.3287  0.0615
  117OSM    H8F12337   6.493   1.520   9.528  2.2421 -1.8521  0.0058
  117OSM    H8G12338   6.647   1.558   9.616 -1.2392 -2.4681  1.2173
  117OSM    C9F12339   6.515   1.730   9.577 -0.2435 -0.2204 -0.6589
  117OSM    H9F12340   6.526   1.801   9.661 -0.4917  1.0836 -1.6924
  117OSM   C10F12341   6.483   1.788   9.459  0.3273  0.2836 -0.2155
  117OSM   H10F12342   6.476   1.898   9.460  1.4794  0.3728  0.2931
  117OSM   C11F12343   6.458   1.711   9.330 -0.0511  0.5264  0.5731
  117OSM   H11F12344   6.357   1.664   9.331 -0.1180  0.6248 -0.4098
  117OSM   H11G12345   6.524   1.623   9.324  0.4412  0.9186  0.1439
  117OSM   C12F12346   6.467   1.794   9.192  0.3621  0.2342 -0.0581
  117OSM   H12F12347   6.563   1.849   9.202  0.4495  0.0943 -0.1212
  117OSM   H12G12348   6.388   1.872   9.199  0.1471  0.4712 -3.3013
  117OSM   C13F12349   6.453   1.721   9.064 -1.0890  0.7869 -0.2239
  117OSM   H13F12350   6.352   1.677   9.046 -0.5232 -0.7061  0.0916
  117OSM   H13G12351   6.530   1.641   9.058 -1.8595  0.1114 -2.0385
  117OSM   C14F12352   6.493   1.810   8.951 -0.1488  0.7542  0.5110
  117OSM   H14F12353   6.602   1.834   8.951 -0.4958  2.7016  2.6529
  117OSM   H14G12354   6.439   1.907   8.951  0.1969  0.9496  0.6993
  117OSM   C15F12355   6.449   1.752   8.813  0.1305 -0.0020  0.9253
  117OSM   H15F12356   6.342   1.726   8.826 -0.5888  1.7480 -0.9009
  117OSM   H15G12357   6.513   1.663   8.793  1.2489  0.8186  0.7438
  117OSM   C16F12358   6.464   1.848   8.696 -0.1522  0.5497 -0.4086
  117OSM   H16F12359   6.569   1.883   8.695  0.8398 -2.0203  2.0843
  117OSM   H16G12360   6.400   1.939   8.706 -0.0060  0.9311 -2.4786
  117OSM   C17F12361   6.427   1.786   8.555 -0.7848  0.6406  0.6069
  117OSM   H17F12362   6.447   1.676   8.559  0.7484  0.9113  1.0796
  117OSM   H17G12363   6.495   1.830   8.480 -1.1316  0.5048  0.2084
  117OSM   C18F12364   6.287   1.797   8.496 -0.1688  0.2385  0.4185
  117OSM   H18F12365   6.210   1.745   8.556 -0.8929 -0.1217 -0.7974
  117OSM   H18G12366   6.292   1.761   8.391  0.9119  1.6832 -0.0731
  117OSM   H18H12367   6.262   1.906   8.497  1.3045  0.5984  0.8086
  118OSM      N12368   4.108   4.036  11.170 -0.0412  0.1411  0.1996
  118OSM    C1512369   4.005   4.032  11.277 -0.4062 -0.2732  0.7185
  118OSM   H15A12370   3.908   4.056  11.237 -0.3183  2.2842  1.8669
  118OSM   H15B12371   4.031   4.108  11.349 -0.4887  0.1242  0.3312
  118OSM   H15C12372   4.012   3.938  11.329  0.2345 -2.3208 -2.7372
  118OSM    C1412373   4.094   3.911  11.085  0.3638 -0.1543  0.8606
  118OSM   H14A12374   4.015   3.915  11.012  0.5865 -1.2236  0.5548
  118OSM   H14B12375   4.098   3.820  11.143  1.3413  1.1858  3.0354
  118OSM   H14C12376   4.182   3.892  11.025  2.2767  0.8697  3.1848
  118OSM    C1312377   4.091   4.149  11.083 -0.1123 -0.0768  0.2613
  118OSM   H13A12378   4.112   4.236  11.143  2.5617 -1.0053  0.8120
  118OSM   H13B12379   3.999   4.144  11.026 -0.8315  0.7949  1.3075
  118OSM   H13C12380   4.161   4.153  11.001 -0.9471  0.7435 -0.4395
  118OSM    C1212381   4.251   4.036  11.227 -0.2947  0.1966  0.0116
  118OSM   H12A12382   4.263   4.125  11.286 -1.3938  0.3108  0.0900
  118OSM   H12B12383   4.321   4.043  11.144 -0.2435  2.1976  0.1590
  118OSM    C1112384   4.291   3.925  11.332  0.4335 -0.5458 -0.2398
  118OSM   H11A12385   4.202   3.923  11.400  1.5094 -0.1115  1.2330
  118OSM   H11B12386   4.390   3.940  11.380  1.1804 -3.1863 -0.8122
  118OSM      P12387   4.424   3.751  11.192  0.3012 -0.0773 -0.4104
  118OSM    O1312388   4.540   3.731  11.277 -0.1566  0.4040 -0.4100
  118OSM    O1412389   4.378   3.635  11.110  0.2519  0.3109 -0.7506
  118OSM    O1112390   4.451   3.875  11.104  0.2087 -0.1768 -0.4259
  118OSM    O1212391   4.295   3.790  11.269 -0.1101 -0.5425  0.1342
  118OSM    C1S12392   4.575   3.899  11.032 -0.3063  0.2003 -0.8476
  118OSM    H1S12393   4.658   3.828  11.053  0.5784  1.3154 -0.4620
  118OSM    H1T12394   4.621   3.993  11.069 -2.7194  1.4327 -0.7323
  118OSM     NF12395   4.670   3.891  10.797  0.5443 -0.4634 -0.3315
  118OSM    HNF12396   4.716   3.975  10.771  2.2352 -0.8451  1.1934
  118OSM    C2S12397   4.547   3.906  10.874 -0.2302 -0.4802 -0.0729
  118OSM    H2S12398   4.480   3.818  10.861 -0.6649  0.0407 -1.4972
  118OSM    C3S12399   4.462   4.028  10.839 -0.5038  0.2899  0.1282
  118OSM    H3S12400   4.527   4.116  10.858  0.3099 -0.1807 -0.3576
  118OSM     O312401   4.341   4.026  10.913  0.7945  0.0093 -0.0549
  118OSM    HO312402   4.356   3.960  10.982  1.5412 -0.0694 -0.2826
  118OSM    C4S12403   4.443   4.040  10.688 -0.0896  0.1575  0.4947
  118OSM    H4S12404   4.517   4.106  10.642  1.2273  0.0073  2.2990
  118OSM    C5S12405   4.355   3.976  10.608  0.6298 -0.2928 -0.2791
  118OSM    H5S12406   4.283   3.905  10.650 -1.2450  0.1620 -2.4854
  118OSM    C6S12407   4.334   3.979  10.454  0.0916  1.0501 -0.0981
  118OSM    H6S12408   4.233   4.021  10.434 -0.8602 -0.3786  1.4621
  118OSM    H6T12409   4.333   3.876  10.413 -0.8381  1.8953 -2.3348
  118OSM    C7S12410   4.438   4.061  10.375 -0.0989  0.8494 -0.0709
  118OSM    H7S12411   4.538   4.024  10.403 -0.6490 -1.0533 -0.5196
  118OSM    H7T12412   4.438   4.171  10.391 -1.8260  0.9085 -0.2909
  118OSM    C8S12413   4.422   4.051  10.223 -0.3864 -0.3440  0.2316
  118OSM    H8S12414   4.429   3.944  10.192  0.9191 -0.1431 -0.2213
  118OSM    H8T12415   4.499   4.114  10.174 -1.0002  0.4853  0.3121
  118OSM    C9S12416   4.283   4.087  10.164 -0.3760  0.4859 -0.7446
  118OSM    H9S12417   4.264   4.196  10.179  2.6053  0.7997  1.8032
  118OSM    H9T12418   4.207   4.027  10.218 -0.9172  1.5109 -0.3297
  118OSM   C10S12419   4.273   4.045  10.019  0.1728 -0.1754  0.2410
  118OSM   H10S12420   4.171   4.070   9.983  0.9484  0.4652 -1.6842
  118OSM   H10T12421   4.296   3.937  10.001  0.4873 -0.1812  0.6609
  118OSM   C11S12422   4.366   4.140   9.936  0.2571  0.2603  0.3620
  118OSM   H11S12423   4.473   4.115   9.953  0.3274  1.1681  1.3670
  118OSM   H11T12424   4.355   4.241   9.980  1.1319 -0.2189  1.7585
  118OSM   C12S12425   4.335   4.154   9.784 -0.0456  0.0375 -0.2512
  118OSM   H12S12426   4.383   4.247   9.747  0.4596 -0.2630 -0.3632
  118OSM   H12T12427   4.226   4.150   9.764 -0.5175 -0.0202  2.0074
  118OSM   C13S12428   4.417   4.041   9.714 -0.2720 -0.1013 -0.9065
  118OSM   H13S12429   4.371   3.942   9.734  0.2801 -1.1054 -4.0745
  118OSM   H13T12430   4.521   4.048   9.754 -0.9932 -1.9944  1.6074
  118OSM   C14S12431   4.395   4.053   9.563  0.5075  0.6736  0.0181
  118OSM   H14S12432   4.436   4.149   9.525  1.8210  0.3864  0.6361
  118OSM   H14T12433   4.290   4.053   9.528 -0.0018 -1.8118  1.3283
  118OSM   C15S12434   4.468   3.948   9.480 -0.2166 -0.2797 -0.2745
  118OSM   H15S12435   4.457   3.842   9.513  0.4402 -0.5801 -0.9947
  118OSM   H15T12436   4.577   3.968   9.484 -0.1376 -0.8401  1.0913
  118OSM   C16S12437   4.409   3.951   9.330 -0.3178  0.2449 -0.6014
  118OSM   H16S12438   4.428   4.052   9.289  0.9282  0.2088 -0.1427
  118OSM   H16T12439   4.302   3.921   9.333 -0.6428  1.1574 -2.0397
  118OSM   C17S12440   4.469   3.848   9.227  0.1962  0.2233  0.4547
  118OSM   H17S12441   4.443   3.745   9.261  1.8021 -1.8533 -3.8213
  118OSM   H17T12442   4.580   3.853   9.217  0.1917 -0.4222  0.0079
  118OSM   C18S12443   4.398   3.866   9.089 -0.0039 -0.8833  0.1940
  118OSM   H18S12444   4.447   3.953   9.040  0.7108 -2.0777 -1.3016
  118OSM   H18T12445   4.291   3.890   9.100  0.3993  3.2268 -2.7826
  118OSM   H18U12446   4.401   3.774   9.026  2.1272 -0.6802 -0.0978
  118OSM    C1F12447   4.735   3.774  10.794  0.0614 -0.6299 -0.7497
  118OSM     OF12448   4.686   3.672  10.842 -0.7142  0.2061  0.2633
  118OSM    C2F12449   4.873   3.770  10.737  0.2468  0.3525 -0.0474
  118OSM    H2F12450   4.884   3.667  10.698 -2.4187 -1.2521  2.9087
  118OSM    H2G12451   4.943   3.785  10.821 -1.5246  1.5577  1.3133
  118OSM    C3F12452   4.901   3.875  10.628 -0.3672  0.6177 -0.6238
  118OSM    H3F12453   5.007   3.864  10.596  0.2706  1.2726  1.1353
  118OSM    H3G12454   4.897   3.976  10.673  2.1941 -0.0798  1.3884
  118OSM    C4F12455   4.809   3.862  10.504 -0.5661  0.6001 -0.1868
  118OSM    H4F12456   4.839   3.958  10.456 -0.0119  0.8177  0.5791
  118OSM    H4G12457   4.707   3.874  10.546 -0.6634  0.1275 -0.2870
  118OSM    C5F12458   4.823   3.739  10.418 -0.0495  0.1834  0.5482
  118OSM    H5F12459   4.763   3.660  10.468 -0.8339  0.5172  0.1517
  118OSM    H5G12460   4.930   3.706  10.422 -0.2623 -0.6833 -0.3902
  118OSM    C6F12461   4.780   3.745  10.269 -0.0053 -0.3234 -0.1455
  118OSM    H6F12462   4.671   3.762  10.273 -0.4083 -2.1899 -1.6952
  118OSM    H6G12463   4.802   3.641  10.235 -4.2704 -1.8276  1.0623
  118OSM    C7F12464   4.854   3.852  10.192  0.1910  0.2347 -0.3121
  118OSM    H7F12465   4.959   3.824  10.213  0.5922  0.7590 -1.5308
  118OSM    H7G12466   4.829   3.951  10.237 -2.3870 -1.0805  1.4185
  118OSM    C8F12467   4.823   3.842  10.041 -0.6544  0.6832 -0.1228
  118OSM    H8F12468   4.868   3.743  10.019  1.5790  1.0300  2.3682
  118OSM    H8G12469   4.878   3.922   9.987  2.4375 -0.4408  1.1280
  118OSM    C9F12470   4.674   3.852  10.039 -0.7547  0.6220  0.0952
  118OSM    H9F12471   4.631   3.941  10.086 -1.5821 -0.1592  0.8433
  118OSM   C10F12472   4.599   3.744  10.006 -0.2143  0.8679  0.0365
  118OSM   H10F12473   4.490   3.758  10.007 -0.1668  1.3523  2.0410
  118OSM   C11F12474   4.652   3.609   9.960  0.8477  0.2338  0.1329
  118OSM   H11F12475   4.561   3.547   9.976  1.1630 -0.8218 -1.8463
  118OSM   H11G12476   4.736   3.575  10.024  0.5865  0.8392  0.8137
  118OSM   C12F12477   4.672   3.625   9.807 -0.1179 -0.1581 -0.1125
  118OSM   H12F12478   4.576   3.668   9.770 -0.8748 -0.7418  1.0863
  118OSM   H12G12479   4.684   3.524   9.761  0.0167  0.0429 -0.5234
  118OSM   C13F12480   4.799   3.698   9.752 -0.0348 -0.3741 -0.0718
  118OSM   H13F12481   4.886   3.631   9.769 -1.3820 -1.7218  2.0413
  118OSM   H13G12482   4.814   3.797   9.800 -0.0364 -0.1490 -0.5336
  118OSM   C14F12483   4.788   3.725   9.602  0.3194 -0.5493 -0.3508
  118OSM   H14F12484   4.864   3.802   9.575 -1.0662  1.8541  2.0411
  118OSM   H14G12485   4.688   3.769   9.581  1.0163  0.3851 -1.8963
  118OSM   C15F12486   4.798   3.605   9.502  0.5199 -0.0884 -0.3885
  118OSM   H15F12487   4.732   3.522   9.536  1.4786 -0.9278 -0.4968
  118OSM   H15G12488   4.907   3.587   9.517  0.4661  0.9524  1.5259
  118OSM   C16F12489   4.782   3.641   9.353  0.3630 -0.5909  0.2867
  118OSM   H16F12490   4.866   3.705   9.320  0.6942 -1.6373 -0.9624
  118OSM   H16G12491   4.687   3.694   9.329 -0.0334 -2.1194 -1.8344
  118OSM   C17F12492   4.782   3.520   9.260  0.3450 -0.6372 -0.3822
  118OSM   H17F12493   4.697   3.454   9.288 -0.6791  2.3147  4.6680
  118OSM   H17G12494   4.873   3.462   9.285 -0.1240 -1.3166 -0.2270
  118OSM   C18F12495   4.776   3.564   9.111 -0.2527  0.0764 -0.3966
  118OSM   H18F12496   4.672   3.561   9.073 -0.3524 -2.0468 -0.1143
  118OSM   H18G12497   4.823   3.485   9.049 -0.1297 -0.4751  0.3736
  118OSM   H18H12498   4.825   3.661   9.091 -2.4167  0.5228 -4.5449
  119OSM      N12499   6.224   3.865  10.495 -0.4996  0.3203  0.5624
  119OSM    C1512500   6.336   3.883  10.401  0.3607  0.0049  0.4516
  119OSM   H15A12501   6.392   3.791  10.387 -2.3007 -1.8144  1.0558
  119OSM   H15B12502   6.397   3.964  10.440 -0.1796 -0.4521  2.3431
  119OSM   H15C12503   6.303   3.904  10.301 -1.8475 -0.4208  1.0313
  119OSM    C1412504   6.126   3.972  10.501 -0.3698  0.0744  0.4909
  119OSM   H14A12505   6.041   3.943  10.441  0.3789  0.5037 -0.8059
  119OSM   H14B12506   6.169   4.070  10.487  2.1369 -0.7984  1.6008
  119OSM   H14C12507   6.091   3.974  10.603  1.0104  1.7384  0.9619
  119OSM    C1312508   6.157   3.748  10.437 -0.5725  0.3641 -0.2915
  119OSM   H13A12509   6.121   3.762  10.336 -0.8329 -0.0618 -0.2606
  119OSM   H13B12510   6.065   3.730  10.492 -1.1346 -1.8000 -1.7891
  119OSM   H13C12511   6.212   3.657  10.455 -0.3299  0.7579  1.0370
  119OSM    C1212512   6.287   3.829  10.631  0.8340  0.1604  0.0094
  119OSM   H12A12513   6.324   3.909  10.693 -0.8917  0.8761  0.1588
  119OSM   H12B12514   6.375   3.767  10.620 -0.2060 -1.4175  0.2805
  119OSM    C1112515   6.186   3.756  10.729 -0.5835 -0.2246  0.0109
  119OSM   H11A12516   6.240   3.731  10.823 -1.3525 -0.5140  0.3894
  119OSM   H11B12517   6.155   3.659  10.686 -1.3548 -0.5335  1.2155
  119OSM      P12518   5.931   3.774  10.792  0.2079  0.0734 -0.3725
  119OSM    O1312519   5.938   3.684  10.911 -0.1765 -0.2451 -0.2084
  119OSM    O1412520   5.847   3.898  10.799 -0.0025 -0.4570 -0.0947
  119OSM    O1112521   5.900   3.695  10.662  0.2836  0.0530 -0.6247
  119OSM    O1212522   6.076   3.829  10.768  0.0701 -0.0238 -0.2003
  119OSM    C1S12523   5.787   3.726  10.578  0.0704  0.8693 -0.3942
  119OSM    H1S12524   5.801   3.824  10.528 -2.5231  1.0647 -0.8637
  119OSM    H1T12525   5.690   3.727  10.633 -0.5083 -0.6663 -1.3129
  119OSM     NF12526   5.696   3.677  10.351 -0.1042 -0.1998 -0.3089
  119OSM    HNF12527   5.610   3.636  10.321  1.3218 -2.6446 -1.2946
  119OSM    C2S12528   5.777   3.622  10.458  0.3526  0.2708 -0.3604
  119OSM    H2S12529   5.878   3.613  10.414  1.8688  2.2475  2.4417
  119OSM    C3S12530   5.734   3.480  10.512 -1.1519  0.3293 -0.9859
  119OSM    H3S12531   5.631   3.492  10.551 -0.7064  2.0346 -0.2491
  119OSM     O312532   5.827   3.439  10.618  0.0097  0.0579 -0.3008
  119OSM    HO312533   5.875   3.522  10.628 -1.0993  0.4685  2.5028
  119OSM    C4S12534   5.739   3.371  10.403  0.2820 -0.4140 -0.2562
  119OSM    H4S12535   5.843   3.343  10.385  0.7636  0.2400  1.3033
  119OSM    C5S12536   5.632   3.318  10.340  0.2952  0.0304  0.4075
  119OSM    H5S12537   5.530   3.352  10.366 -0.4408  0.0931 -2.2507
  119OSM    C6S12538   5.634   3.203  10.243 -0.1383 -0.8301  0.5075
  119OSM    H6S12539   5.549   3.136  10.268 -0.6323 -0.3713  0.0561
  119OSM    H6T12540   5.725   3.142  10.264 -0.6047 -0.6522  3.5686
  119OSM    C7S12541   5.628   3.231  10.094 -0.6524  0.2810  0.2952
  119OSM    H7S12542   5.526   3.266  10.068 -0.9492 -1.1116 -0.5553
  119OSM    H7T12543   5.633   3.132  10.043 -1.7704  0.0240  0.6716
  119OSM    C8S12544   5.742   3.325  10.050 -0.1912  0.8325  0.2219
  119OSM    H8S12545   5.843   3.293  10.084  0.1304  0.0230 -1.3943
  119OSM    H8T12546   5.735   3.425  10.097  1.1684  0.5156  1.1632
  119OSM    C9S12547   5.754   3.338   9.897  0.0389  0.0634  0.2007
  119OSM    H9S12548   5.817   3.426   9.873  0.9568 -0.7929 -0.6322
  119OSM    H9T12549   5.652   3.362   9.862  0.4596  1.3165 -0.2184
  119OSM   C10S12550   5.817   3.226   9.824 -0.4121 -0.0794 -0.7707
  119OSM   H10S12551   5.771   3.129   9.853 -1.2274  0.6828  0.5825
  119OSM   H10T12552   5.927   3.228   9.836 -0.6926  0.9938  3.3280
  119OSM   C11S12553   5.794   3.243   9.673  0.1225 -0.1810  0.6965
  119OSM   H11S12554   5.865   3.176   9.620  2.6669  2.8976 -0.0601
  119OSM   H11T12555   5.811   3.351   9.653  0.1585  0.4161  3.5177
  119OSM   C12S12556   5.648   3.201   9.624  0.2393  0.3140  0.0789
  119OSM   H12S12557   5.566   3.267   9.658 -0.2796  0.8893 -2.1225
  119OSM   H12T12558   5.626   3.106   9.675  2.5403 -1.0608 -1.2837
  119OSM   C13S12559   5.641   3.175   9.473  1.1609  0.4357 -0.3367
  119OSM   H13S12560   5.539   3.146   9.438 -0.1443  2.9800  1.0167
  119OSM   H13T12561   5.708   3.089   9.456 -0.9651 -1.0033 -1.8911
  119OSM   C14S12562   5.674   3.296   9.386 -0.2110  0.3791 -0.6924
  119OSM   H14S12563   5.778   3.317   9.417  0.1042 -0.6580 -0.9959
  119OSM   H14T12564   5.601   3.377   9.405 -0.2358  0.6035 -1.6784
  119OSM   C15S12565   5.677   3.258   9.235 -0.7735 -0.2690 -0.1823
  119OSM   H15S12566   5.734   3.162   9.229 -0.5380 -0.1073 -0.6036
  119OSM   H15T12567   5.731   3.335   9.176  0.2046 -0.7365  0.0911
  119OSM   C16S12568   5.537   3.231   9.174  0.7380  0.7352 -0.5587
  119OSM   H16S12569   5.485   3.328   9.160  1.4429  1.5747  2.0368
  119OSM   H16T12570   5.472   3.188   9.254  3.5476 -1.7566  0.5756
  119OSM   C17S12571   5.545   3.132   9.056 -1.0307  0.2323 -0.3385
  119OSM   H17S12572   5.611   3.045   9.075 -0.3324  0.1210 -2.8408
  119OSM   H17T12573   5.572   3.191   8.965 -1.1185  1.0137  0.1303
  119OSM   C18S12574   5.417   3.060   9.018 -0.1915 -0.1637 -0.4748
  119OSM   H18S12575   5.408   2.966   9.077  0.1014 -0.7043 -1.2792
  119OSM   H18T12576   5.407   3.026   8.912 -0.7585 -1.1283 -0.1278
  119OSM   H18U12577   5.333   3.128   9.042 -0.3687 -0.6421  0.3007
  119OSM    C1F12578   5.745   3.779  10.283  0.9106  1.0743 -0.3014
  119OSM     OF12579   5.854   3.829  10.307  0.6784 -0.0159 -0.0607
  119OSM    C2F12580   5.660   3.812  10.163 -0.0345 -0.2359 -0.0744
  119OSM    H2F12581   5.638   3.920  10.148 -0.6845 -0.4984 -1.1321
  119OSM    H2G12582   5.568   3.753  10.179 -0.6048  0.8289  0.6971
  119OSM    C3F12583   5.740   3.760  10.042  0.6954 -0.6830  0.3314
  119OSM    H3F12584   5.739   3.649  10.050  1.7339 -0.6972  0.4920
  119OSM    H3G12585   5.846   3.789  10.026  0.3892 -0.5290 -1.7374
  119OSM    C4F12586   5.665   3.786   9.911  0.9846  0.3347 -0.1086
  119OSM    H4F12587   5.658   3.896   9.894 -1.0797  0.0055 -1.9462
  119OSM    H4G12588   5.559   3.756   9.929  1.2574 -1.7636 -1.5895
  119OSM    C5F12589   5.723   3.730   9.782  0.1138  0.2161 -0.1119
  119OSM    H5F12590   5.716   3.620   9.784 -0.3424  0.2372 -0.5961
  119OSM    H5G12591   5.830   3.761   9.774  0.2624 -0.1871  0.2845
  119OSM    C6F12592   5.666   3.772   9.647  0.3548 -1.0078 -0.3871
  119OSM    H6F12593   5.677   3.883   9.637  2.1002 -1.0240  0.8006
  119OSM    H6G12594   5.558   3.750   9.659  0.5041 -2.4992 -1.5057
  119OSM    C7F12595   5.722   3.693   9.530  0.2895 -0.0347  0.0421
  119OSM    H7F12596   5.633   3.640   9.488 -0.5235  1.7131 -0.5317
  119OSM    H7G12597   5.798   3.620   9.562 -1.1704 -1.2047  0.9899
  119OSM    C8F12598   5.783   3.785   9.424 -0.5009 -0.4938 -0.1376
  119OSM    H8F12599   5.863   3.846   9.469 -1.0120 -0.5561  0.8870
  119OSM    H8G12600   5.699   3.855   9.400 -0.0570 -0.1749 -0.7957
  119OSM    C9F12601   5.845   3.719   9.305  0.4352 -0.4435 -0.7565
  119OSM    H9F12602   5.947   3.681   9.316  0.0384 -1.2233  0.4759
  119OSM   C10F12603   5.797   3.730   9.180  0.5861 -0.0318  0.7069
  119OSM   H10F12604   5.849   3.689   9.093 -0.6413 -2.0156  0.8440
  119OSM   C11F12605   5.664   3.799   9.141  0.1672  0.5100 -0.1742
  119OSM   H11F12606   5.670   3.907   9.166 -0.2341  0.2848  0.9478
  119OSM   H11G12607   5.575   3.766   9.199 -0.6881  2.9855  0.0741
  119OSM   C12F12608   5.637   3.776   8.995 -0.3897  0.7633 -0.3450
  119OSM   H12F12609   5.725   3.796   8.930 -1.1054 -1.6309 -2.2299
  119OSM   H12G12610   5.563   3.849   8.956  0.4232  2.3362  0.9478
  119OSM   C13F12611   5.593   3.632   8.959 -0.2899  0.2917  0.5866
  119OSM   H13F12612   5.525   3.591   9.037  0.1131 -0.3972  0.5795
  119OSM   H13G12613   5.679   3.561   8.960 -1.4727 -1.1945  1.6131
  119OSM   C14F12614   5.518   3.633   8.819 -0.4101 -0.3021 -0.2926
  119OSM   H14F12615   5.598   3.674   8.753 -1.3839 -0.5853 -1.6932
  119OSM   H14G12616   5.430   3.700   8.824  0.4181  0.7434  1.0872
  119OSM   C15F12617   5.467   3.489   8.800 -0.1490 -0.0893 -0.4456
  119OSM   H15F12618   5.394   3.480   8.883  1.4128  1.8124  1.2490
  119OSM   H15G12619   5.548   3.415   8.816  0.8174  0.5816 -2.0058
  119OSM   C16F12620   5.411   3.470   8.662 -0.1487 -0.0015 -0.0565
  119OSM   H16F12621   5.493   3.482   8.588 -0.0054  1.3283  0.3014
  119OSM   H16G12622   5.331   3.543   8.638 -0.3132  0.1158  0.8145
  119OSM   C17F12623   5.353   3.322   8.645  0.2016 -0.2307 -0.6147
  119OSM   H17F12624   5.282   3.298   8.727  0.0381  1.7548 -0.1352
  119OSM   H17G12625   5.440   3.257   8.668  1.3080  1.6751  0.8938
  119OSM   C18F12626   5.288   3.306   8.510 -0.5852  0.4457  0.2510
  119OSM   H18F12627   5.177   3.317   8.514 -0.6824 -0.4807  0.3383
  119OSM   H18G12628   5.313   3.212   8.457  0.2155  1.7687 -1.8566
  119OSM   H18H12629   5.330   3.376   8.435 -1.4195 -1.2825 -1.9590
  120OSM      N12630   1.671   6.751  10.624 -0.6239 -0.2278 -0.1249
  120OSM    C1512631   1.682   6.881  10.553  0.4296  0.6208  0.6689
  120OSM   H15A12632   1.655   6.965  10.615  3.0094  1.8201  0.3076
  120OSM   H15B12633   1.613   6.884  10.470  0.7858 -3.3067  0.0411
  120OSM   H15C12634   1.777   6.891  10.501 -0.7369  0.0379 -1.7297
  120OSM    C1412635   1.720   6.650  10.531 -0.6980  0.4043  0.7342
  120OSM   H14A12636   1.712   6.552  10.577 -1.1725 -1.4818 -2.9509
  120OSM   H14B12637   1.826   6.663  10.513 -0.1638  1.5949  3.9895
  120OSM   H14C12638   1.667   6.651  10.437 -0.3054  0.7606  0.5148
  120OSM    C1312639   1.757   6.754  10.746  0.6699 -0.1685  0.6370
  120OSM   H13A12640   1.765   6.660  10.798  0.2564  0.0690  1.1432
  120OSM   H13B12641   1.722   6.826  10.819 -1.5382 -1.9355  1.4234
  120OSM   H13C12642   1.860   6.772  10.721  0.3795 -0.6592 -1.0905
  120OSM    C1212643   1.524   6.726  10.659 -0.3954 -0.0254  0.1082
  120OSM   H12A12644   1.492   6.781  10.746 -1.7843 -0.5019 -0.0705
  120OSM   H12B12645   1.521   6.625  10.699  1.9547  0.2225  1.0797
  120OSM    C1112646   1.421   6.741  10.543 -0.1089 -0.4370  0.1351
  120OSM   H11A12647   1.336   6.670  10.548  1.0285 -2.1857 -2.7636
  120OSM   H11B12648   1.464   6.709  10.446  1.0173 -4.4234  1.7257
  120OSM      P12649   1.259   6.914  10.636 -0.1016  0.1974 -0.0256
  120OSM    O1312650   1.276   6.852  10.773 -0.2867  0.2571 -0.1905
  120OSM    O1412651   1.238   7.061  10.635  0.3840 -0.0114  0.2373
  120OSM    O1112652   1.138   6.842  10.572 -0.6079  0.3549 -0.2953
  120OSM    O1212653   1.377   6.878  10.535 -0.0797 -0.1213 -0.5288
  120OSM    C1S12654   1.060   6.922  10.481 -0.1185  0.6783 -0.3679
  120OSM    H1S12655   1.131   6.980  10.419  0.8755  1.8300  1.7343
  120OSM    H1T12656   0.993   6.999  10.524  0.6935  0.3405  1.6326
  120OSM     NF12657   0.938   6.875  10.271  0.8594  0.1450 -0.3634
  120OSM    HNF12658   0.865   6.942  10.279  1.2815  0.6817 -0.9300
  120OSM    C2S12659   0.981   6.819  10.402  0.1504  0.1995  0.7992
  120OSM    H2S12660   1.034   6.723  10.386  0.1815  0.7000 -3.0463
  120OSM    C3S12661   0.854   6.789  10.488 -0.0895 -0.2297  0.7617
  120OSM    H3S12662   0.805   6.879  10.530  1.4345  0.6670  0.6931
  120OSM     O312663   0.882   6.702  10.602 -0.4794  0.1675 -0.1462
  120OSM    HO312664   0.971   6.668  10.603 -0.0506  0.9486  3.6484
  120OSM    C4S12665   0.747   6.722  10.404 -1.0329 -0.7739  0.1605
  120OSM    H4S12666   0.778   6.626  10.360 -1.2036 -0.2783 -1.1122
  120OSM    C5S12667   0.629   6.763  10.355  0.5432 -0.4690 -0.6095
  120OSM    H5S12668   0.588   6.862  10.382 -2.0739 -1.2232 -1.5160
  120OSM    C6S12669   0.543   6.686  10.257 -0.2161 -0.4233 -0.4643
  120OSM    H6S12670   0.435   6.689  10.281  0.0638  2.2854  0.9019
  120OSM    H6T12671   0.575   6.580  10.251  3.2009  0.5372 -3.8507
  120OSM    C7S12672   0.545   6.760  10.117  0.1891 -0.0517 -0.0742
  120OSM    H7S12673   0.645   6.803  10.093 -0.3103  0.5875 -1.0605
  120OSM    H7T12674   0.485   6.853  10.122 -1.4604 -1.1332  1.3793
  120OSM    C8S12675   0.503   6.668   9.991 -0.0158 -0.5683  0.0493
  120OSM    H8S12676   0.399   6.644  10.021 -1.0897  0.6683 -2.3742
  120OSM    H8T12677   0.567   6.577   9.993  2.0776  0.8247  0.3241
  120OSM    C9S12678   0.505   6.743   9.863 -0.2716  0.6837  0.8852
  120OSM    H9S12679   0.463   6.847   9.866 -2.2969  0.0688 -1.9417
  120OSM    H9T12680   0.441   6.686   9.793  0.5723  1.9454 -1.0019
  120OSM   C10S12681   0.641   6.755   9.798  0.2909 -0.2347 -0.8114
  120OSM   H10S12682   0.708   6.670   9.823  0.5229  0.0150 -0.5711
  120OSM   H10T12683   0.691   6.852   9.821 -3.4577  2.2788 -2.2168
  120OSM   C11S12684   0.635   6.760   9.649  0.5880  0.0699 -0.2466
  120OSM   H11S12685   0.743   6.783   9.633  0.7804  1.4042  2.4244
  120OSM   H11T12686   0.575   6.850   9.628 -2.0365 -1.4196  0.4663
  120OSM   C12S12687   0.588   6.630   9.578 -0.7919  0.1177  0.0991
  120OSM   H12S12688   0.479   6.636   9.595 -0.5123  2.3930  1.4868
  120OSM   H12T12689   0.638   6.552   9.639  3.7134  1.9426 -0.8312
  120OSM   C13S12690   0.615   6.616   9.432  1.2877  0.1757 -0.1848
  120OSM   H13S12691   0.616   6.508   9.406 -1.4703  0.0754 -0.0847
  120OSM   H13T12692   0.713   6.665   9.411  0.2094  2.1138 -0.9412
  120OSM   C14S12693   0.504   6.688   9.346  0.2231 -0.4125 -0.9352
  120OSM   H14S12694   0.499   6.797   9.369  0.3409 -0.4182 -0.8821
  120OSM   H14T12695   0.407   6.646   9.379  1.0123 -0.9671  0.7925
  120OSM   C15S12696   0.526   6.666   9.199 -0.5138  0.4252 -0.0678
  120OSM   H15S12697   0.519   6.559   9.172  1.0894  0.9855 -3.2172
  120OSM   H15T12698   0.631   6.700   9.180 -0.2108 -0.8703 -0.8637
  120OSM   C16S12699   0.438   6.746   9.104 -0.0033  0.5727 -0.0830
  120OSM   H16S12700   0.450   6.855   9.118 -2.0890  0.6432  1.8510
  120OSM   H16T12701   0.331   6.726   9.126  0.0665 -0.8561 -0.8875
  120OSM   C17S12702   0.469   6.715   8.959 -0.1523 -0.4196  0.3248
  120OSM   H17S12703   0.458   6.605   8.948 -0.7977 -0.4575  1.1825
  120OSM   H17T12704   0.576   6.733   8.937 -0.5082  1.3597 -0.1068
  120OSM   C18S12705   0.382   6.773   8.842 -0.1760 -0.2669 -0.0871
  120OSM   H18S12706   0.421   6.869   8.801 -0.0433 -1.5696 -3.3389
  120OSM   H18T12707   0.278   6.774   8.882 -0.4522  2.1671 -0.6705
  120OSM   H18U12708   0.386   6.702   8.756  3.6804  1.0678 -1.2249
  120OSM    C1F12709   1.004   6.870  10.159 -1.0907  0.2641  0.1360
  120OSM     OF12710   1.112   6.815  10.167  0.1031 -0.1689  0.0257
  120OSM    C2F12711   0.952   6.921  10.024 -0.3769  0.4795 -0.1037
  120OSM    H2F12712   0.937   7.029  10.044  0.0072  0.2939  1.2772
  120OSM    H2G12713   0.856   6.866  10.018  0.0956 -1.0029  3.4527
  120OSM    C3F12714   1.048   6.889   9.899  0.3554 -0.2983  0.9748
  120OSM    H3F12715   1.083   6.784   9.893  0.0173 -0.7009  4.2932
  120OSM    H3G12716   1.144   6.944   9.913  0.9665 -1.4405  1.3798
  120OSM    C4F12717   0.997   6.929   9.760 -0.0593 -0.1519  0.2223
  120OSM    H4F12718   0.905   6.875   9.732  0.6319 -0.7988 -0.8958
  120OSM    H4G12719   1.080   6.899   9.691  1.9245  2.2548  1.3936
  120OSM    C5F12720   0.971   7.078   9.730 -0.7129  0.5737 -0.4315
  120OSM    H5F12721   1.055   7.136   9.773  0.2496 -1.0462 -0.0391
  120OSM    H5G12722   0.879   7.100   9.788 -0.3533  0.6198  0.1321
  120OSM    C6F12723   0.961   7.112   9.580 -0.4548 -0.3971 -0.3668
  120OSM    H6F12724   1.043   7.065   9.522  0.0284  1.4006 -1.1915
  120OSM    H6G12725   0.986   7.220   9.584  0.9137 -0.6615 -1.0539
  120OSM    C7F12726   0.828   7.098   9.505 -0.4140  0.1537  0.0608
  120OSM    H7F12727   0.750   7.170   9.536 -0.1019  0.9055 -0.8576
  120OSM    H7G12728   0.793   6.999   9.541  0.8806  0.3848  2.1287
  120OSM    C8F12729   0.851   7.109   9.360 -0.0958  0.5171 -0.0423
  120OSM    H8F12730   0.905   7.205   9.343 -0.7603  0.3797 -3.8623
  120OSM    H8G12731   0.753   7.119   9.308 -0.0736  2.3064  0.1934
  120OSM    C9F12732   0.923   6.993   9.297  0.4971 -0.6600  0.0604
  120OSM    H9F12733   0.995   6.941   9.361  2.1561 -0.1765 -1.3288
  120OSM   C10F12734   0.931   6.972   9.165  0.2004  0.0968 -0.1103
  120OSM   H10F12735   0.996   6.891   9.129  1.6512  1.6806 -1.2224
  120OSM   C11F12736   0.856   7.030   9.047  0.2214  0.2097 -0.2608
  120OSM   H11F12737   0.928   7.100   9.000  1.5092  1.5864  3.3706
  120OSM   H11G12738   0.772   7.082   9.097  0.4705 -1.3331  1.9142
  120OSM   C12F12739   0.807   6.938   8.941 -0.3724  0.3309  0.0231
  120OSM   H12F12740   0.753   6.854   8.989 -1.8931  2.4539  2.2870
  120OSM   H12G12741   0.887   6.895   8.878 -3.2505 -0.9024 -3.0865
  120OSM   C13F12742   0.714   7.002   8.835 -0.1058 -0.3070 -0.0155
  120OSM   H13F12743   0.741   7.110   8.837  1.7079 -0.7261 -0.2362
  120OSM   H13G12744   0.613   6.986   8.878 -0.5237  0.4847 -0.6687
  120OSM   C14F12745   0.726   6.955   8.688 -0.5019 -0.3570 -0.4303
  120OSM   H14F12746   0.623   6.968   8.649  0.2613  2.5160 -1.7182
  120OSM   H14G12747   0.754   6.847   8.694  0.8867 -0.0324 -0.6265
  120OSM   C15F12748   0.827   7.021   8.599 -0.5129  0.3269 -0.2151
  120OSM   H15F12749   0.926   6.995   8.640 -0.9417 -3.0939 -1.0297
  120OSM   H15G12750   0.807   7.131   8.601 -1.4980  0.1728 -0.9008
  120OSM   C16F12751   0.810   6.976   8.450 -0.6284 -0.0154 -0.0155
  120OSM   H16F12752   0.712   6.994   8.401 -2.1463 -2.9290  1.6258
  120OSM   H16G12753   0.833   6.867   8.451 -1.7685 -0.2744 -0.4988
  120OSM   C17F12754   0.905   7.043   8.347 -0.2141 -0.2183 -0.2050
  120OSM   H17F12755   0.872   7.147   8.330  0.1685  0.2582  1.7144
  120OSM   H17G12756   0.888   6.987   8.252 -1.3873 -2.1963  1.1032
  120OSM   C18F12757   1.047   7.031   8.384 -0.8190 -0.1173 -1.4681
  120OSM   H18F12758   1.078   7.074   8.482  0.1420 -0.7310 -1.4944
  120OSM   H18G12759   1.104   7.096   8.315  2.7838  1.0629  2.1944
  120OSM   H18H12760   1.075   6.924   8.390 -0.7102 -0.0759 -1.2247
  121OSM      N12761   5.351   2.761  11.128 -0.8607 -0.0005  0.3565
  121OSM    C1512762   5.232   2.672  11.113 -0.3784 -0.1802  0.7079
  121OSM   H15A12763   5.254   2.590  11.046  3.1724 -0.2770  1.7705
  121OSM   H15B12764   5.148   2.729  11.077 -0.6149  0.4242  2.1392
  121OSM   H15C12765   5.200   2.618  11.200  1.0932 -2.8272 -0.2922
  121OSM    C1412766   5.329   2.875  11.219 -0.3690 -0.1848 -1.1205
  121OSM   H14A12767   5.309   2.841  11.320 -2.4270  2.0660 -0.6584
  121OSM   H14B12768   5.248   2.937  11.183 -1.4432 -0.3116  0.9132
  121OSM   H14C12769   5.410   2.945  11.224 -2.0933  2.0230 -2.2490
  121OSM    C1312770   5.464   2.684  11.184 -0.6074  0.0686 -0.0765
  121OSM   H13A12771   5.554   2.743  11.196 -1.1317  0.7208  0.7364
  121OSM   H13B12772   5.475   2.596  11.123 -1.5678 -0.3811  0.3748
  121OSM   H13C12773   5.440   2.657  11.286 -2.3734  0.4892 -0.3449
  121OSM    C1212774   5.403   2.819  10.995  0.2501  0.1240 -0.1396
  121OSM   H12A12775   5.450   2.736  10.944  0.4509 -0.0061  0.2498
  121OSM   H12B12776   5.480   2.890  11.020 -0.9953  0.6273  2.7193
  121OSM    C1112777   5.302   2.878  10.897 -0.3070 -0.0310 -0.5091
  121OSM   H11A12778   5.348   2.910  10.801  1.0029 -2.2032 -0.6822
  121OSM   H11B12779   5.262   2.966  10.950  1.1409 -0.7696  1.9666
  121OSM      P12780   5.186   2.688  10.760 -0.3340  0.6935 -0.2430
  121OSM    O1312781   5.194   2.557  10.828 -0.2688  0.1243  0.0362
  121OSM    O1412782   5.069   2.712  10.675  0.4902 -0.1166 -0.2261
  121OSM    O1112783   5.318   2.712  10.678  0.0153  0.0842 -0.2363
  121OSM    O1212784   5.188   2.796  10.877 -0.2271  0.2667  0.0917
  121OSM    C1S12785   5.391   2.606  10.622  0.2953  0.0803 -0.6701
  121OSM    H1S12786   5.341   2.508  10.629  1.0405 -0.1644  2.5790
  121OSM    H1T12787   5.480   2.593  10.688  0.9821  2.3343 -1.0317
  121OSM     NF12788   5.492   2.532  10.420  0.2793 -0.0253  0.7922
  121OSM    HNF12789   5.589   2.512  10.429  0.5892  1.2348  0.4120
  121OSM    C2S12790   5.440   2.647  10.479  0.6173 -0.5576  0.0771
  121OSM    H2S12791   5.358   2.686  10.417  0.2661 -0.2695  0.7119
  121OSM    C3S12792   5.538   2.768  10.474  0.1914 -0.0771 -0.9265
  121OSM    H3S12793   5.626   2.765  10.542  0.3779  3.2680 -0.8547
  121OSM     O312794   5.476   2.893  10.501 -0.5895 -0.4983 -0.7450
  121OSM    HO312795   5.401   2.877  10.559  1.1414 -0.1156  1.7800
  121OSM    C4S12796   5.583   2.780  10.338 -0.1023 -0.2035 -0.0203
  121OSM    H4S12797   5.506   2.767  10.260 -0.8522 -1.1341  0.8487
  121OSM    C5S12798   5.713   2.815  10.306  0.3793 -0.4821 -0.0133
  121OSM    H5S12799   5.788   2.829  10.385 -0.2728  1.8248  0.2789
  121OSM    C6S12800   5.767   2.822  10.162 -0.1080  0.3535 -0.1534
  121OSM    H6S12801   5.858   2.759  10.153 -1.4550 -1.5579 -1.3436
  121OSM    H6T12802   5.800   2.926  10.147  1.0498  0.0054 -0.1058
  121OSM    C7S12803   5.675   2.787  10.045 -0.0516 -0.1282  0.2474
  121OSM    H7S12804   5.600   2.870  10.044  1.6072  1.4472  0.7004
  121OSM    H7T12805   5.625   2.688  10.049 -1.4622  0.5335 -0.2456
  121OSM    C8S12806   5.756   2.787   9.914  0.8999  0.0693 -0.2504
  121OSM    H8S12807   5.812   2.692   9.924  0.2423 -0.3132 -0.1300
  121OSM    H8T12808   5.819   2.877   9.898 -0.0652  0.4650 -2.1585
  121OSM    C9S12809   5.678   2.765   9.775  0.5508 -0.1413  0.0344
  121OSM    H9S12810   5.605   2.849   9.764  0.3774 -0.2015  0.6629
  121OSM    H9T12811   5.634   2.663   9.775  0.2978 -0.0496  1.1840
  121OSM   C10S12812   5.775   2.778   9.659  0.7173 -0.1346 -0.8639
  121OSM   H10S12813   5.861   2.708   9.661 -0.2109 -1.2972  0.3288
  121OSM   H10T12814   5.812   2.883   9.660  0.7530 -0.1467 -0.9231
  121OSM   C11S12815   5.696   2.775   9.521 -0.1286 -0.0369 -0.0587
  121OSM   H11S12816   5.630   2.863   9.508 -0.4216 -0.1213  0.7934
  121OSM   H11T12817   5.637   2.681   9.517 -0.1278 -0.0096 -0.9189
  121OSM   C12S12818   5.789   2.776   9.400 -0.2731  0.3275  0.2425
  121OSM   H12S12819   5.876   2.712   9.427 -1.6712 -1.6975  0.1675
  121OSM   H12T12820   5.826   2.880   9.392 -0.0614  0.1678 -0.9974
  121OSM   C13S12821   5.735   2.724   9.263 -0.0667 -0.3023 -0.0340
  121OSM   H13S12822   5.651   2.791   9.238  0.5704  0.7337  0.5300
  121OSM   H13T12823   5.702   2.618   9.260 -2.0344  0.2859 -0.3989
  121OSM   C14S12824   5.842   2.735   9.152  0.1264 -0.2900 -1.4250
  121OSM   H14S12825   5.932   2.682   9.190  0.4460  1.8674  1.1293
  121OSM   H14T12826   5.873   2.842   9.151  0.6286 -0.2815  2.0767
  121OSM   C15S12827   5.787   2.690   9.021  0.1417  0.1822  0.3933
  121OSM   H15S12828   5.699   2.752   8.995 -0.3347 -0.2265  0.9770
  121OSM   H15T12829   5.744   2.587   9.024 -0.9205  0.6303  1.2203
  121OSM   C16S12830   5.872   2.719   8.899 -0.9337  0.7868  0.0560
  121OSM   H16S12831   5.977   2.684   8.907 -1.5944 -0.8450  3.3231
  121OSM   H16T12832   5.876   2.826   8.866 -1.7767  0.1091 -2.4747
  121OSM   C17S12833   5.814   2.646   8.770  0.2136  0.0924  0.3053
  121OSM   H17S12834   5.826   2.539   8.798  0.5412 -0.1883 -0.8779
  121OSM   H17T12835   5.877   2.673   8.683  1.2236 -1.9313  0.3610
  121OSM   C18S12836   5.670   2.670   8.748 -0.2288 -0.6734  0.4275
  121OSM   H18S12837   5.651   2.779   8.757 -0.5198 -0.7651  1.0121
  121OSM   H18T12838   5.616   2.626   8.834  0.3492 -0.6075  0.8359
  121OSM   H18U12839   5.633   2.629   8.652  2.0384 -1.3363 -0.2251
  121OSM    C1F12840   5.419   2.431  10.369  0.4232 -0.5835 -0.5739
  121OSM     OF12841   5.297   2.428  10.391 -0.1456  0.1795 -0.5733
  121OSM    C2F12842   5.488   2.336  10.274  0.4292 -0.7764  0.1020
  121OSM    H2F12843   5.566   2.283  10.333  0.4468 -2.3278 -1.2359
  121OSM    H2G12844   5.541   2.403  10.203 -0.8689  0.6569  0.4361
  121OSM    C3F12845   5.387   2.243  10.202 -0.0190  0.0465 -0.8777
  121OSM    H3F12846   5.314   2.303  10.143 -1.7896  1.1666  2.2453
  121OSM    H3G12847   5.338   2.181  10.280  0.1464  0.0680 -0.7563
  121OSM    C4F12848   5.467   2.157  10.106  0.0387  0.3579  0.1803
  121OSM    H4F12849   5.543   2.104  10.168  0.3974  1.4523  0.7044
  121OSM    H4G12850   5.529   2.220  10.039  0.7586 -0.4033  0.1194
  121OSM    C5F12851   5.387   2.061  10.016 -0.0323 -0.6488 -0.4676
  121OSM    H5F12852   5.300   2.011  10.064 -0.1645 -1.7693 -1.8218
  121OSM    H5G12853   5.455   1.981   9.981 -0.0454 -0.1455 -1.7127
  121OSM    C6F12854   5.330   2.136   9.890 -1.0899  0.7977 -0.3610
  121OSM    H6F12855   5.416   2.177   9.832  0.8640 -0.2413  1.6298
  121OSM    H6G12856   5.268   2.222   9.924 -1.4519 -0.1701  1.5480
  121OSM    C7F12857   5.253   2.047   9.792 -0.5512  0.6895  0.0024
  121OSM    H7F12858   5.173   1.997   9.851 -1.9890  2.7360 -0.1288
  121OSM    H7G12859   5.327   1.971   9.758 -1.4366 -0.8321  1.3046
  121OSM    C8F12860   5.188   2.126   9.670 -0.2225  0.7037 -0.3148
  121OSM    H8F12861   5.098   2.177   9.711 -2.7337 -4.3594  1.1848
  121OSM    H8G12862   5.143   2.050   9.603 -0.2488  1.2710 -0.9557
  121OSM    C9F12863   5.280   2.225   9.598  0.7470 -0.0341 -1.0940
  121OSM    H9F12864   5.314   2.316   9.649  0.9268  0.0470 -1.3574
  121OSM   C10F12865   5.324   2.214   9.474  0.0417 -0.8225  0.1532
  121OSM   H10F12866   5.406   2.278   9.440  1.7495 -3.0277 -0.1610
  121OSM   C11F12867   5.299   2.102   9.374 -0.5008 -0.2861  0.1543
  121OSM   H11F12868   5.212   2.041   9.404 -1.3899 -0.5020 -2.5530
  121OSM   H11G12869   5.393   2.044   9.361  1.2044  2.6920 -2.3830
  121OSM   C12F12870   5.270   2.157   9.227  0.2854 -0.5896 -0.0131
  121OSM   H12F12871   5.352   2.227   9.202  0.2369 -1.4355 -2.9198
  121OSM   H12G12872   5.174   2.212   9.211  1.3474  1.3065 -0.1167
  121OSM   C13F12873   5.284   2.049   9.116  0.0028 -0.3810 -0.4156
  121OSM   H13F12874   5.275   1.959   9.180  0.4214  2.2837  3.7929
  121OSM   H13G12875   5.381   2.041   9.063  0.7238  0.9885  0.6259
  121OSM   C14F12876   5.172   2.054   9.010 -0.3711  0.2190 -0.4376
  121OSM   H14F12877   5.074   2.055   9.061 -0.7337  1.6535 -1.0997
  121OSM   H14G12878   5.173   1.971   8.936  0.5862  0.8742 -1.1876
  121OSM   C15F12879   5.191   2.182   8.923  0.4907 -0.4369  0.8560
  121OSM   H15F12880   5.239   2.260   8.986  0.5606 -0.1999  0.5120
  121OSM   H15G12881   5.091   2.216   8.889  0.2899 -2.2970 -0.5960
  121OSM   C16F12882   5.280   2.156   8.796  0.3410  0.1073  0.0485
  121OSM   H16F12883   5.247   2.066   8.740  0.8661  0.3093 -0.6022
  121OSM   H16G12884   5.382   2.134   8.833  0.3624  0.1378  0.0073
  121OSM   C17F12885   5.283   2.280   8.702  0.3311 -0.0031 -0.7947
  121OSM   H17F12886   5.294   2.370   8.767  0.1412 -0.6726  0.1921
  121OSM   H17G12887   5.185   2.285   8.650  0.4538  0.2355 -1.0064
  121OSM   C18F12888   5.389   2.287   8.585 -0.6967 -0.2879 -0.1435
  121OSM   H18F12889   5.378   2.210   8.506  0.0863  0.9180 -1.4789
  121OSM   H18G12890   5.484   2.256   8.634 -0.1582  1.0409 -0.2924
  121OSM   H18H12891   5.416   2.389   8.551 -2.0135  1.4764  3.4990
  122OSM      N12892   1.054   0.181  11.064 -0.1837 -0.0813  0.2132
  122OSM    C1512893   1.178   0.228  10.986  0.6269 -0.3477 -0.5320
  122OSM   H15A12894   1.252   0.258  11.057 -0.3788  1.7041 -0.2842
  122OSM   H15B12895   1.146   0.315  10.930 -0.4876  2.0422  3.4669
  122OSM   H15C12896   1.226   0.152  10.926  1.2231 -1.4651  1.2796
  122OSM    C1412897   1.088   0.063  11.139 -0.2185 -0.0173 -0.7693
  122OSM   H14A12898   1.135  -0.010  11.075 -1.0020 -0.5050 -0.8028
  122OSM   H14B12899   1.004   0.008  11.180  0.3021  0.9981  1.8234
  122OSM   H14C12900   1.156   0.080  11.221 -0.7408 -1.1242 -0.0766
  122OSM    C1312901   1.003   0.278  11.164 -1.1117 -0.1734 -0.4524
  122OSM   H13A12902   0.960   0.364  11.114  0.3885  2.1459  2.0128
  122OSM   H13B12903   1.083   0.332  11.211 -0.2108 -1.3590 -0.5886
  122OSM   H13C12904   0.928   0.240  11.233 -1.8494 -0.5082 -1.4029
  122OSM    C1212905   0.950   0.143  10.955 -0.0094  0.2632 -0.0927
  122OSM   H12A12906   0.863   0.102  11.006  1.6902  0.8843  3.5973
  122OSM   H12B12907   0.998   0.066  10.897  0.0511  1.0134 -1.0584
  122OSM    C1112908   0.902   0.246  10.846  0.3921  0.0152  0.1015
  122OSM   H11A12909   0.841   0.189  10.773 -2.2500  0.9630  1.4292
  122OSM   H11B12910   0.994   0.285  10.797  0.8064 -0.1349  0.7465
  122OSM      P12911   0.676   0.332  10.945  0.0447 -0.1913  0.2910
  122OSM    O1312912   0.670   0.221  11.043 -0.2937  0.1895  0.3921
  122OSM    O1412913   0.611   0.461  10.982  0.0779 -0.1424 -0.1217
  122OSM    O1112914   0.594   0.284  10.823 -0.0284 -0.3366  0.4953
  122OSM    O1212915   0.826   0.356  10.895  0.1020 -0.5317 -0.0546
  122OSM    C1S12916   0.587   0.356  10.703 -0.5489 -0.2376  0.7220
  122OSM    H1S12917   0.683   0.379  10.653 -2.3984  1.3042 -2.4111
  122OSM    H1T12918   0.532   0.451  10.716  0.1908  0.0947  1.5650
  122OSM     NF12919   0.529   0.344  10.466  0.0790 -0.2379 -0.0277
  122OSM    HNF12920   0.444   0.391  10.441  1.4156  1.7683 -1.0928
  122OSM    C2S12921   0.523   0.264  10.592 -1.1251 -0.0667  1.0379
  122OSM    H2S12922   0.591   0.176  10.589 -1.8614 -0.6223  0.3187
  122OSM    C3S12923   0.378   0.232  10.627 -0.1558  0.3355 -0.4246
  122OSM    H3S12924   0.323   0.328  10.631  0.9346  0.9874 -0.5841
  122OSM     O312925   0.363   0.180  10.758  0.9157 -0.0912  0.1243
  122OSM    HO312926   0.446   0.211  10.794  0.6910  0.6917 -0.0318
  122OSM    C4S12927   0.322   0.138  10.525  0.2535  0.8297  0.5700
  122OSM    H4S12928   0.366   0.039  10.509 -1.4225  0.5620 -3.5122
  122OSM    C5S12929   0.213   0.170  10.449  0.4835  0.4817  0.1250
  122OSM    H5S12930   0.174   0.272  10.463 -0.0465  0.1950  0.8154
  122OSM    C6S12931   0.153   0.085  10.345  0.2298 -0.0187 -0.4270
  122OSM    H6S12932   0.065   0.036  10.392 -1.3404  1.9893 -1.1242
  122OSM    H6T12933   0.220   0.000  10.320  0.7941  0.2168  0.2377
  122OSM    C7S12934   0.102   0.155  10.218 -0.4692 -0.2865 -0.1727
  122OSM    H7S12935   0.077   0.262  10.240 -1.4796 -0.2265 -1.5066
  122OSM    H7T12936   0.014   0.107  10.170 -0.2432 -0.0602 -0.8187
  122OSM    C8S12937   0.201   0.154  10.099 -0.3821 -0.5857 -0.8738
  122OSM    H8S12938   0.215   0.046  10.074 -0.7296 -0.6714 -0.7057
  122OSM    H8T12939   0.303   0.185  10.131 -0.0321 -3.2487  0.9772
  122OSM    C9S12940   0.149   0.241   9.991  0.4281  0.1007  0.1802
  122OSM    H9S12941   0.140   0.344  10.031  2.6556  0.2833  0.3378
  122OSM    H9T12942   0.047   0.207   9.965  0.3557 -0.5297  1.2420
  122OSM   C10S12943   0.233   0.238   9.867  0.0099 -0.0026 -0.4157
  122OSM   H10S12944   0.233   0.135   9.825  0.8759 -0.2068  0.0686
  122OSM   H10T12945   0.341   0.256   9.884 -0.0403 -1.3701  1.7279
  122OSM   C11S12946   0.192   0.335   9.761  0.0041  0.4547  0.5218
  122OSM   H11S12947   0.254   0.426   9.773 -1.4383  1.3385  1.5678
  122OSM   H11T12948   0.083   0.354   9.772 -0.3331 -0.4349 -0.9239
  122OSM   C12S12949   0.190   0.270   9.625 -0.7233 -0.3166 -0.1171
  122OSM   H12S12950   0.116   0.187   9.628  0.6999 -1.6158  0.9528
  122OSM   H12T12951   0.286   0.216   9.610  0.3429  0.7533  2.4267
  122OSM   C13S12952   0.168   0.370   9.521  0.2366  0.3462 -0.5938
  122OSM   H13S12953   0.241   0.454   9.525  0.6548 -0.0471  1.9155
  122OSM   H13T12954   0.069   0.410   9.549  0.9822  1.2039  0.9311
  122OSM   C14S12955   0.165   0.323   9.376  0.3609 -0.8626  0.1717
  122OSM   H14S12956   0.265   0.302   9.332  0.0312 -1.8455 -0.1337
  122OSM   H14T12957   0.134   0.410   9.314 -0.3599  0.3632  2.1702
  122OSM   C15S12958   0.072   0.200   9.350  0.6661  0.8089  0.4672
  122OSM   H15S12959  -0.032   0.239   9.358  0.5437  0.5631  0.1090
  122OSM   H15T12960   0.087   0.127   9.432 -3.1784 -2.3314 -1.2845
  122OSM   C16S12961   0.076   0.141   9.211  0.5937  0.5676 -0.2513
  122OSM   H16S12962   0.182   0.111   9.196  0.6209  1.1320 -1.3074
  122OSM   H16T12963   0.069   0.221   9.134  1.6848 -0.6350 -1.6758
  122OSM   C17S12964  -0.029   0.028   9.194  0.2408 -0.5137 -0.7666
  122OSM   H17S12965  -0.128   0.078   9.194  0.6726  0.3689 -0.1372
  122OSM   H17T12966  -0.018  -0.045   9.277  0.1111  0.3826  0.0537
  122OSM   C18S12967  -0.014  -0.055   9.062  0.2187 -0.0534  0.2059
  122OSM   H18S12968   0.089  -0.097   9.059 -0.1827 -1.0554  0.1440
  122OSM   H18T12969  -0.051  -0.004   8.971  1.1641 -2.5877 -1.7404
  122OSM   H18U12970  -0.076  -0.145   9.082 -1.3331  0.9157 -0.0973
  122OSM    C1F12971   0.624   0.366  10.380  0.0137  0.4108  0.4909
  122OSM     OF12972   0.734   0.313  10.404 -0.7908 -0.1740  0.0082
  122OSM    C2F12973   0.602   0.466  10.268 -1.1119 -0.9118  0.1082
  122OSM    H2F12974   0.586   0.560  10.325 -2.0510 -2.3581  2.3881
  122OSM    H2G12975   0.509   0.439  10.214 -1.2888 -0.9341  0.4230
  122OSM    C3F12976   0.724   0.486  10.168  0.7369 -0.1015 -0.0523
  122OSM    H3F12977   0.759   0.388  10.129  0.3986 -0.2976  0.1369
  122OSM    H3G12978   0.812   0.528  10.221  0.7194 -1.6344  1.2576
  122OSM    C4F12979   0.703   0.567  10.040 -0.4331  0.4628 -0.1990
  122OSM    H4F12980   0.798   0.612  10.004 -1.5361  1.4728 -1.9885
  122OSM    H4G12981   0.641   0.653  10.072 -1.4891 -0.8581  1.4607
  122OSM    C5F12982   0.642   0.482   9.927  0.8943  0.1127 -0.0409
  122OSM    H5F12983   0.576   0.406   9.974  0.2632 -0.4636 -1.7608
  122OSM    H5G12984   0.718   0.412   9.886 -0.9281 -1.4027 -0.9945
  122OSM    C6F12985   0.596   0.573   9.819  0.7183  0.6502  0.2838
  122OSM    H6F12986   0.546   0.666   9.853  1.6945  2.0884 -1.9519
  122OSM    H6G12987   0.516   0.519   9.764  1.4492 -1.1889  0.9587
  122OSM    C7F12988   0.711   0.599   9.723 -0.0510 -0.3720  0.2593
  122OSM    H7F12989   0.751   0.501   9.690  3.0740  0.2452  1.7897
  122OSM    H7G12990   0.793   0.657   9.772  0.1389  1.6366 -2.2442
  122OSM    C8F12991   0.657   0.693   9.611 -1.0313 -0.7530 -0.0971
  122OSM    H8F12992   0.620   0.789   9.653  0.0384 -0.1058 -0.5838
  122OSM    H8G12993   0.574   0.641   9.559 -2.8602  0.5690  1.3460
  122OSM    C9F12994   0.750   0.728   9.503  0.5124 -0.0987  0.0090
  122OSM    H9F12995   0.857   0.739   9.523  0.2780  2.8539  0.0520
  122OSM   C10F12996   0.718   0.741   9.375 -0.2889 -0.0197 -0.5337
  122OSM   H10F12997   0.801   0.747   9.302  0.7108 -1.9411  0.3960
  122OSM   C11F12998   0.582   0.722   9.308 -0.0221  0.8113  0.4107
  122OSM   H11F12999   0.564   0.787   9.220  0.1458  0.1519 -0.1190
  122OSM   H11G13000   0.503   0.750   9.381  0.2660 -3.3416  2.6083
  122OSM   C12F13001   0.568   0.572   9.260  0.3605 -0.0853  0.3853
  122OSM   H12F13002   0.546   0.501   9.342  0.9526 -0.2249  0.4243
  122OSM   H12G13003   0.664   0.530   9.224  0.5132 -1.0452  1.8469
  122OSM   C13F13004   0.452   0.559   9.164 -0.0654  0.2543  0.5152
  122OSM   H13F13005   0.454   0.651   9.103 -1.5535  1.4799  2.2086
  122OSM   H13G13006   0.350   0.572   9.206 -0.0460  2.7802 -0.0728
  122OSM   C14F13007   0.457   0.431   9.081  0.8006  0.0920 -0.5828
  122OSM   H14F13008   0.432   0.340   9.140  1.3642 -0.1426 -0.7079
  122OSM   H14G13009   0.556   0.411   9.035  0.3522  1.9935 -2.5173
  122OSM   C15F13010   0.351   0.425   8.972 -0.3001  0.1238 -0.3161
  122OSM   H15F13011   0.257   0.459   9.020 -1.7602  0.7148 -3.3500
  122OSM   H15G13012   0.331   0.319   8.947 -1.8827 -0.0922  1.6548
  122OSM   C16F13013   0.394   0.495   8.846 -0.2176  0.7513 -0.3395
  122OSM   H16F13014   0.498   0.463   8.822  0.0195  0.7863  0.5823
  122OSM   H16G13015   0.389   0.605   8.863  0.2547  0.7227  0.0185
  122OSM   C17F13016   0.308   0.455   8.728 -0.4949  0.0170 -0.0807
  122OSM   H17F13017   0.203   0.489   8.739  0.4684  3.1744  0.2901
  122OSM   H17G13018   0.304   0.344   8.731  0.8548 -0.0423 -0.0395
  122OSM   C18F13019   0.365   0.504   8.591  0.2741 -0.1521  0.0094
  122OSM   H18F13020   0.374   0.614   8.578  0.6300 -0.3907 -2.1576
  122OSM   H18G13021   0.299   0.474   8.507 -1.4209  1.1029  0.8309
  122OSM   H18H13022   0.470   0.469   8.580  0.5331 -0.4834  2.7449
  123OSM      N13023   3.403   5.143   6.062 -0.4129  0.3194 -0.1627
  123OSM    C1513024   3.527   5.149   5.977 -0.1351  0.2386  0.2246
  123OSM   H15A13025   3.610   5.088   6.010  1.5318  1.7671 -0.9720
  123OSM   H15B13026   3.564   5.251   5.977 -0.8415  0.4988  0.1797
  123OSM   H15C13027   3.502   5.136   5.873 -0.3017 -0.8675  0.3933
  123OSM    C1413028   3.298   5.228   6.005  0.0113 -0.1747 -1.0823
  123OSM   H14A13029   3.334   5.328   5.989  0.8795 -0.1075  1.0016
  123OSM   H14B13030   3.204   5.226   6.059  1.0242 -0.5705  0.7669
  123OSM   H14C13031   3.270   5.189   5.908  1.3700 -1.8880 -0.8485
  123OSM    C1313032   3.361   5.001   6.064 -0.0450 -0.0998  0.3637
  123OSM   H13A13033   3.341   4.974   5.962 -2.8430  3.3228 -0.1896
  123OSM   H13B13034   3.265   4.979   6.110 -1.1947  2.2670 -0.7181
  123OSM   H13C13035   3.433   4.927   6.096 -0.5037 -0.7364 -0.0605
  123OSM    C1213036   3.432   5.182   6.211  0.7847  0.8823 -0.1890
  123OSM   H12A13037   3.478   5.098   6.262  0.3815 -1.0361 -2.8023
  123OSM   H12B13038   3.334   5.191   6.255  0.0401  3.4934 -2.1754
  123OSM    C1113039   3.509   5.309   6.243 -0.8450 -0.6259 -0.2794
  123OSM   H11A13040   3.605   5.293   6.190 -0.1938  1.1552  0.2840
  123OSM   H11B13041   3.527   5.308   6.353 -0.1162  0.0760 -0.3805
  123OSM      P13042   3.502   5.560   6.228 -0.0748 -0.1364  0.3061
  123OSM    O1313043   3.615   5.559   6.324  0.2636  0.2250 -0.1157
  123OSM    O1413044   3.522   5.626   6.099  0.1767 -0.0537  1.0137
  123OSM    O1113045   3.383   5.637   6.304 -0.5489  0.4851 -0.2069
  123OSM    O1213046   3.440   5.420   6.197  0.2416  0.7032 -0.8125
  123OSM    C1S13047   3.318   5.559   6.409 -0.0615 -0.9169  0.2440
  123OSM    H1S13048   3.395   5.525   6.482  0.7601 -1.3457 -0.7954
  123OSM    H1T13049   3.254   5.479   6.366 -3.7156  0.4975  2.6190
  123OSM     NF13050   3.216   5.606   6.624  0.1003 -0.2546  0.1196
  123OSM    HNF13051   3.128   5.569   6.652  0.7764 -0.3667  2.3212
  123OSM    C2S13052   3.239   5.664   6.492  0.6825 -0.0923 -0.1690
  123OSM    H2S13053   3.304   5.752   6.509  1.5295 -0.8131  0.4411
  123OSM    C3S13054   3.114   5.704   6.423  0.3274  0.6524  0.3020
  123OSM    H3S13055   3.050   5.617   6.395  0.4104  1.0455 -1.1936
  123OSM     O313056   3.140   5.771   6.300 -0.8268 -0.3670 -0.0278
  123OSM    HO313057   3.230   5.744   6.280 -0.4341  0.3824  0.6841
  123OSM    C4S13058   3.037   5.798   6.525  1.0896  0.8804 -0.1954
  123OSM    H4S13059   2.973   5.742   6.596 -1.4851  2.8606 -0.7887
  123OSM    C5S13060   3.042   5.924   6.550 -0.0046 -0.7788 -0.4259
  123OSM    H5S13061   3.107   5.994   6.496  1.3711  0.3868  2.4818
  123OSM    C6S13062   2.948   5.994   6.644  0.3071  0.2817 -0.3469
  123OSM    H6S13063   2.859   6.044   6.599  2.2579  1.2616 -3.4256
  123OSM    H6T13064   3.009   6.072   6.694  0.3472 -1.1751  2.0195
  123OSM    C7S13065   2.890   5.904   6.754  0.4028 -0.2960 -0.5499
  123OSM    H7S13066   2.982   5.861   6.799  0.0946 -0.0813  0.2926
  123OSM    H7T13067   2.832   5.822   6.706  2.2851 -1.1071 -1.5763
  123OSM    C8S13068   2.819   5.977   6.863 -0.5063  0.1262 -0.1869
  123OSM    H8S13069   2.723   6.016   6.823  0.4723  3.0552  0.0945
  123OSM    H8T13070   2.877   6.070   6.883 -0.3432 -0.1061  0.4489
  123OSM    C9S13071   2.802   5.914   6.997  0.6400  0.2655 -0.3398
  123OSM    H9S13072   2.894   5.855   7.018 -1.5008 -3.4881 -0.4817
  123OSM    H9T13073   2.711   5.851   7.009  1.4464 -0.8032  0.2727
  123OSM   C10S13074   2.781   6.012   7.113 -0.5252 -0.1503 -0.5013
  123OSM   H10S13075   2.702   6.090   7.102  1.5833  2.0706 -0.6565
  123OSM   H10T13076   2.872   6.073   7.129  0.9419 -2.1775 -0.6755
  123OSM   C11S13077   2.752   5.931   7.241  0.2810 -0.3531 -0.5853
  123OSM   H11S13078   2.840   5.864   7.254 -0.4915 -1.5977 -1.4563
  123OSM   H11T13079   2.657   5.875   7.225 -1.0454  1.0839  1.7358
  123OSM   C12S13080   2.741   6.019   7.371  0.7983 -0.2120  0.3102
  123OSM   H12S13081   2.680   6.110   7.350 -1.1027 -1.1567  1.4886
  123OSM   H12T13082   2.847   6.049   7.387  1.0513  0.0659 -1.6164
  123OSM   C13S13083   2.694   5.938   7.497  0.4841 -1.1065  0.3228
  123OSM   H13S13084   2.746   5.840   7.498  2.1001 -0.3156 -0.9600
  123OSM   H13T13085   2.585   5.919   7.502  0.5594 -1.1066  2.8871
  123OSM   C14S13086   2.736   6.010   7.624 -0.0352  0.0585 -0.5747
  123OSM   H14S13087   2.685   6.109   7.629  1.2601  0.6946  1.6196
  123OSM   H14T13088   2.845   6.028   7.612  0.2027 -0.4818  0.6033
  123OSM   C15S13089   2.696   5.942   7.762 -0.2271 -0.2159 -0.0309
  123OSM   H15S13090   2.586   5.929   7.762 -0.2076 -0.5482  1.9226
  123OSM   H15T13091   2.720   6.003   7.852 -0.3084 -0.1035 -0.0854
  123OSM   C16S13092   2.751   5.803   7.795  0.4299  0.5971 -0.8851
  123OSM   H16S13093   2.859   5.797   7.768  0.4771 -0.8249 -0.4967
  123OSM   H16T13094   2.696   5.727   7.735 -0.3860 -0.0251  0.6177
  123OSM   C17S13095   2.745   5.763   7.944  0.1838  0.8370 -0.1931
  123OSM   H17S13096   2.786   5.842   8.011  1.6214 -0.0272 -0.0064
  123OSM   H17T13097   2.796   5.665   7.958 -0.1877  0.4912 -1.1721
  123OSM   C18S13098   2.600   5.733   7.982  0.4825  0.4854  0.6239
  123OSM   H18S13099   2.542   5.828   7.979 -1.8507 -0.8787 -0.2967
  123OSM   H18T13100   2.595   5.689   8.084  2.5386 -0.5695  0.3184
  123OSM   H18U13101   2.550   5.653   7.923  1.3565 -1.7839  2.7642
  123OSM    C1F13102   3.299   5.606   6.727 -0.0387 -0.1279  0.6486
  123OSM     OF13103   3.401   5.675   6.728  0.0073 -0.1365  0.0927
  123OSM    C2F13104   3.260   5.530   6.846 -0.1838 -0.3239 -0.1425
  123OSM    H2F13105   3.326   5.442   6.859  1.3617  1.1049  2.9005
  123OSM    H2G13106   3.152   5.506   6.838 -0.0771 -1.1837  0.8165
  123OSM    C3F13107   3.279   5.618   6.980 -0.0606  0.2141 -0.1663
  123OSM    H3F13108   3.386   5.648   6.981 -0.0433  0.5176 -2.7264
  123OSM    H3G13109   3.263   5.554   7.069  0.1624 -0.4841 -0.6127
  123OSM    C4F13110   3.182   5.738   6.989 -0.1912 -0.1522  0.0099
  123OSM    H4F13111   3.081   5.694   6.977 -0.7543  0.8726  0.7994
  123OSM    H4G13112   3.200   5.815   6.911  1.6907  1.3979  1.8325
  123OSM    C5F13113   3.194   5.825   7.116  0.3591 -0.2245  0.2372
  123OSM    H5F13114   3.164   5.931   7.102 -0.1979  0.3467  4.4082
  123OSM    H5G13115   3.297   5.841   7.154  0.3294  0.7435 -0.0736
  123OSM    C6F13116   3.114   5.763   7.226  0.2321  0.1579 -0.0640
  123OSM    H6F13117   3.162   5.665   7.245  0.4121  0.4774  1.2638
  123OSM    H6G13118   3.004   5.757   7.211  0.0795  1.7218  0.2151
  123OSM    C7F13119   3.123   5.848   7.360 -0.6335  0.1487  0.2934
  123OSM    H7F13120   3.094   5.953   7.334 -0.4231 -0.0079 -0.6076
  123OSM    H7G13121   3.228   5.846   7.394 -0.7877 -0.2651  0.7520
  123OSM    C8F13122   3.033   5.806   7.473  0.1711 -0.0870 -0.4353
  123OSM    H8F13123   2.928   5.786   7.443  0.8904 -2.0965 -1.8141
  123OSM    H8G13124   3.028   5.888   7.548 -0.5472  0.5082 -1.1230
  123OSM    C9F13125   3.101   5.686   7.533  0.3426  0.4502  0.3688
  123OSM    H9F13126   3.083   5.592   7.479  2.7586 -0.5049  1.1299
  123OSM   C10F13127   3.178   5.677   7.641  0.1212  0.0703 -0.3861
  123OSM   H10F13128   3.221   5.579   7.668  1.2274  0.5215 -0.4498
  123OSM   C11F13129   3.217   5.799   7.721 -0.2737 -0.1880  0.1350
  123OSM   H11F13130   3.138   5.877   7.723 -1.2282 -1.0495 -1.6336
  123OSM   H11G13131   3.311   5.846   7.683  1.3251 -0.0384  3.8294
  123OSM   C12F13132   3.253   5.768   7.867 -0.9169 -0.7680 -0.7190
  123OSM   H12F13133   3.327   5.846   7.895  0.2629 -2.2851  0.6178
  123OSM   H12G13134   3.306   5.670   7.875 -0.9060 -1.0788 -3.7301
  123OSM   C13F13135   3.146   5.768   7.971  0.2198  0.5362  0.0379
  123OSM   H13F13136   3.061   5.702   7.943 -0.2347  0.5190  1.3866
  123OSM   H13G13137   3.106   5.871   7.983  2.4919  1.8708 -2.5003
  123OSM   C14F13138   3.184   5.718   8.110  0.2252  0.1389  0.1489
  123OSM   H14F13139   3.260   5.788   8.151  0.8329 -0.5386  0.1965
  123OSM   H14G13140   3.234   5.619   8.101  0.0614  0.0955 -0.3290
  123OSM   C15F13141   3.062   5.721   8.208 -0.3196 -0.0402 -0.2969
  123OSM   H15F13142   3.089   5.644   8.283 -2.1386  0.7495  1.2351
  123OSM   H15G13143   2.969   5.678   8.163  1.3978 -2.0552 -2.1897
  123OSM   C16F13144   3.039   5.858   8.281  0.1302  0.2677 -0.3549
  123OSM   H16F13145   3.029   5.929   8.196  0.4933 -0.4713 -1.0223
  123OSM   H16G13146   3.123   5.878   8.351 -0.6850 -0.7244  0.9528
  123OSM   C17F13147   2.917   5.858   8.374 -0.8222  0.0521 -0.1276
  123OSM   H17F13148   2.937   5.905   8.472  1.3598 -0.8706 -0.0661
  123OSM   H17G13149   2.882   5.753   8.389 -1.4011  0.4129  1.1788
  123OSM   C18F13150   2.794   5.945   8.326 -0.1350  0.8106 -0.4028
  123OSM   H18F13151   2.743   5.993   8.413  0.2096  1.6884 -0.6746
  123OSM   H18G13152   2.715   5.880   8.285  1.0338 -1.7283  1.0878
  123OSM   H18H13153   2.831   6.013   8.246  1.4911  1.5247  0.8789
  124OSM      N13154   3.989   4.715   6.296  0.1033  0.3057 -0.3287
  124OSM    C1513155   3.867   4.763   6.376  0.1714 -0.2332  0.9284
  124OSM   H15A13156   3.840   4.867   6.362  0.8371  0.2205  2.7890
  124OSM   H15B13157   3.884   4.756   6.482 -0.2567  0.9906  1.1025
  124OSM   H15C13158   3.779   4.709   6.344  0.0650 -0.1103  1.0113
  124OSM    C1413159   3.987   4.563   6.284 -1.0406 -0.0521  0.3146
  124OSM   H14A13160   3.898   4.527   6.234 -1.3466 -3.1888  2.7657
  124OSM   H14B13161   3.978   4.521   6.383  0.6298  1.5945  1.2183
  124OSM   H14C13162   4.076   4.526   6.236 -0.8592  1.3984 -0.5217
  124OSM    C1313163   3.975   4.775   6.157  0.2262  0.1096  0.0691
  124OSM   H13A13164   3.983   4.882   6.167  1.9086 -0.0516  0.8054
  124OSM   H13B13165   3.884   4.730   6.119  0.1787 -1.4038  1.8211
  124OSM   H13C13166   4.052   4.742   6.089  0.2285  0.7903 -0.2658
  124OSM    C1213167   4.121   4.775   6.348 -0.2956  0.0541  0.4165
  124OSM   H12A13168   4.153   4.719   6.434  0.1724 -1.0408 -0.4438
  124OSM   H12B13169   4.128   4.876   6.383  1.3642 -0.4332  1.5646
  124OSM    C1113170   4.244   4.762   6.251  0.0167  0.1556 -0.2894
  124OSM   H11A13171   4.322   4.814   6.312 -0.6942  1.5496 -0.5217
  124OSM   H11B13172   4.238   4.808   6.150  1.0712 -1.0519 -0.9191
  124OSM      P13173   4.419   4.561   6.273 -0.6121 -0.4468  0.0802
  124OSM    O1313174   4.421   4.423   6.219 -0.0861  0.2263 -0.1981
  124OSM    O1413175   4.528   4.652   6.226 -0.3454 -0.1492 -0.3565
  124OSM    O1113176   4.413   4.543   6.426  0.1344  0.7667  0.0194
  124OSM    O1213177   4.281   4.627   6.234  0.5347  0.1320 -0.0743
  124OSM    C1S13178   4.332   4.432   6.475 -0.0791  0.6085  1.1453
  124OSM    H1S13179   4.366   4.331   6.443 -2.7650  0.7425 -2.8448
  124OSM    H1T13180   4.230   4.433   6.431 -0.2930 -2.3861  1.3370
  124OSM     NF13181   4.250   4.306   6.662 -0.3969 -0.2499 -0.5150
  124OSM    HNF13182   4.151   4.300   6.647 -0.5023 -2.7637  0.7600
  124OSM    C2S13183   4.314   4.429   6.627  0.5663  0.5772 -0.7757
  124OSM    H2S13184   4.411   4.441   6.681 -0.8902 -0.3545  2.3217
  124OSM    C3S13185   4.230   4.555   6.659  0.3462 -0.1940 -0.5331
  124OSM    H3S13186   4.143   4.552   6.590  0.8055 -3.2804 -1.1071
  124OSM     O313187   4.282   4.681   6.622  0.6121  0.2705  0.3823
  124OSM    HO313188   4.353   4.655   6.563  1.0970  0.9644  0.6500
  124OSM    C4S13189   4.181   4.553   6.800 -0.3546 -0.5406 -0.1576
  124OSM    H4S13190   4.258   4.524   6.872  1.2013 -1.2383 -2.0317
  124OSM    C5S13191   4.055   4.589   6.838 -0.2374 -0.5667  0.0624
  124OSM    H5S13192   3.988   4.630   6.761  0.9699  2.0438  0.2800
  124OSM    C6S13193   3.996   4.593   6.981  0.1882 -0.3175  0.4220
  124OSM    H6S13194   3.904   4.532   6.983  1.5641 -2.5600 -0.5004
  124OSM    H6T13195   3.964   4.696   7.010 -0.2479 -0.1575 -0.5674
  124OSM    C7S13196   4.094   4.547   7.088  0.0191  0.1729 -0.7526
  124OSM    H7S13197   4.182   4.614   7.082 -1.7171  2.5717 -0.7824
  124OSM    H7T13198   4.113   4.438   7.074 -3.0212 -0.2637 -2.1927
  124OSM    C8S13199   4.044   4.586   7.229  1.1706  0.6993  0.3753
  124OSM    H8S13200   3.937   4.559   7.234  1.2167 -0.0657 -1.7832
  124OSM    H8T13201   4.045   4.697   7.219 -0.9513  0.6727 -0.8157
  124OSM    C9S13202   4.124   4.538   7.351 -0.4537 -0.9603 -0.2109
  124OSM    H9S13203   4.234   4.549   7.333 -0.8145  0.4615 -1.8076
  124OSM    H9T13204   4.108   4.430   7.365  2.9025 -1.5756 -0.1402
  124OSM   C10S13205   4.078   4.596   7.487  0.5095  0.3350 -0.5083
  124OSM   H10S13206   3.968   4.581   7.496  0.5278  1.0265  1.4080
  124OSM   H10T13207   4.120   4.699   7.482  2.1639 -0.2376  0.6387
  124OSM   C11S13208   4.132   4.508   7.604  0.3074  0.2888 -0.7548
  124OSM   H11S13209   4.243   4.509   7.599  0.2840  0.1019 -1.5840
  124OSM   H11T13210   4.095   4.403   7.606  4.1997 -1.2399  1.3027
  124OSM   C12S13211   4.093   4.577   7.743  0.8149 -0.0592 -0.0555
  124OSM   H12S13212   3.984   4.595   7.735  0.7060  0.4170  1.9809
  124OSM   H12T13213   4.138   4.678   7.750 -0.7114  0.6492 -0.0494
  124OSM   C13S13214   4.106   4.485   7.865 -0.1511  0.0950  0.0662
  124OSM   H13S13215   4.216   4.475   7.878 -0.3869 -2.4426  0.6190
  124OSM   H13T13216   4.060   4.387   7.839 -1.7345  0.5696  0.9797
  124OSM   C14S13217   4.041   4.544   7.990 -1.0783 -0.5754  0.0889
  124OSM   H14S13218   3.938   4.576   7.966 -1.0945 -0.6883  0.0047
  124OSM   H14T13219   4.097   4.635   8.020  0.0982 -1.2099 -0.0999
  124OSM   C15S13220   4.041   4.453   8.116 -0.4181 -0.5542 -0.3426
  124OSM   H15S13221   4.021   4.525   8.198  1.1951  1.0018 -1.2640
  124OSM   H15T13222   4.144   4.418   8.138  0.3893  2.3795  0.9742
  124OSM   C16S13223   3.949   4.329   8.102 -0.8275 -0.5116  0.1679
  124OSM   H16S13224   4.008   4.257   8.041 -0.2576  2.2048 -2.7999
  124OSM   H16T13225   3.853   4.362   8.057 -0.1862 -2.1970 -2.7166
  124OSM   C17S13226   3.928   4.259   8.235 -0.1378 -0.4869  0.1781
  124OSM   H17S13227   4.022   4.253   8.293  0.6329  0.6258 -0.8860
  124OSM   H17T13228   3.872   4.167   8.209  0.1266  0.1988 -3.4229
  124OSM   C18S13229   3.837   4.341   8.331 -0.2980 -0.0205 -0.2094
  124OSM   H18S13230   3.885   4.429   8.380 -0.8997 -0.2490  0.8330
  124OSM   H18T13231   3.816   4.265   8.409  0.7261 -0.8019 -0.6821
  124OSM   H18U13232   3.752   4.387   8.276  0.1079  0.8261 -0.1482
  124OSM    C1F13233   4.326   4.192   6.678 -0.1543 -0.5402  0.5703
  124OSM     OF13234   4.446   4.202   6.660 -0.0601 -0.2291  0.0239
  124OSM    C2F13235   4.263   4.055   6.700 -0.4530  0.1130  0.2981
  124OSM    H2F13236   4.233   4.001   6.608  1.8402 -0.2624 -0.2669
  124OSM    H2G13237   4.170   4.072   6.760 -1.8303 -1.2645 -1.3383
  124OSM    C3F13238   4.365   3.957   6.773 -0.8796 -0.1502  0.3441
  124OSM    H3F13239   4.400   4.008   6.865  0.4126 -1.6862  0.7485
  124OSM    H3G13240   4.455   3.957   6.707 -0.6868  0.7938  0.5919
  124OSM    C4F13241   4.311   3.815   6.798  0.6309  0.0544 -0.1818
  124OSM    H4F13242   4.398   3.746   6.805  0.6661  0.1475  0.3003
  124OSM    H4G13243   4.252   3.786   6.709  0.7007 -2.3522  0.4985
  124OSM    C5F13244   4.226   3.806   6.921  0.5028  0.1458  0.0533
  124OSM    H5F13245   4.147   3.875   6.884  3.0898  2.0330 -2.3328
  124OSM    H5G13246   4.271   3.858   7.008 -0.4571  1.0847  0.0097
  124OSM    C6F13247   4.192   3.664   6.965  0.0035 -0.0071  0.3186
  124OSM    H6F13248   4.151   3.608   6.879 -0.7382 -1.0251  1.3062
  124OSM    H6G13249   4.102   3.675   7.028 -0.5774 -0.8144 -0.3496
  124OSM    C7F13250   4.300   3.601   7.052  0.4046  0.2650  0.0436
  124OSM    H7F13251   4.330   3.685   7.119 -0.2055 -0.5329  1.3718
  124OSM    H7G13252   4.391   3.589   6.991 -0.3638  1.6062 -1.4525
  124OSM    C8F13253   4.263   3.485   7.147 -0.0281  0.1943  0.0496
  124OSM    H8F13254   4.214   3.412   7.080 -1.6612  0.9194  0.4062
  124OSM    H8G13255   4.178   3.514   7.213 -1.7593 -0.6270 -1.7300
  124OSM    C9F13256   4.390   3.433   7.203 -0.2316  0.2447  0.8358
  124OSM    H9F13257   4.462   3.403   7.126 -1.1330  0.6617 -0.1992
  124OSM   C10F13258   4.424   3.429   7.329 -0.2185  0.3266 -0.0167
  124OSM   H10F13259   4.521   3.383   7.352 -0.7342 -1.0568 -0.5177
  124OSM   C11F13260   4.328   3.484   7.425  0.1512  0.0695  0.4535
  124OSM   H11F13261   4.243   3.413   7.427 -1.4477  1.8838 -0.0066
  124OSM   H11G13262   4.290   3.583   7.392  1.9623  0.4435 -0.6773
  124OSM   C12F13263   4.382   3.506   7.564 -0.2594  0.2720  0.0774
  124OSM   H12F13264   4.307   3.567   7.619  0.0440  0.2295  0.5471
  124OSM   H12G13265   4.467   3.578   7.557  0.1567 -0.1490  0.6947
  124OSM   C13F13266   4.436   3.382   7.642 -0.2007 -0.2477 -0.3001
  124OSM   H13F13267   4.489   3.313   7.573 -1.4478  0.0217 -1.5786
  124OSM   H13G13268   4.348   3.327   7.683  1.1946 -2.1720  0.2473
  124OSM   C14F13269   4.527   3.429   7.762  0.3062  0.0083 -0.0956
  124OSM   H14F13270   4.592   3.510   7.722 -0.1181  0.3175 -0.1591
  124OSM   H14G13271   4.596   3.349   7.798  1.7008  0.8279 -0.8257
  124OSM   C15F13272   4.451   3.481   7.878 -0.2315 -0.0395  0.4205
  124OSM   H15F13273   4.388   3.399   7.919 -0.9958  0.3741  0.0754
  124OSM   H15G13274   4.374   3.550   7.840 -0.3867 -1.0835 -1.2723
  124OSM   C16F13275   4.547   3.557   7.975 -0.1048 -0.0331 -0.8656
  124OSM   H16F13276   4.613   3.628   7.921  0.7081 -0.2761 -0.2039
  124OSM   H16G13277   4.615   3.484   8.025  0.6648  0.3469 -1.3276
  124OSM   C17F13278   4.462   3.632   8.089 -0.2467  0.7598  0.2007
  124OSM   H17F13279   4.400   3.551   8.131  0.7241 -0.2258 -0.2118
  124OSM   H17G13280   4.396   3.711   8.048 -0.9218  0.6842  1.1063
  124OSM   C18F13281   4.546   3.684   8.206 -0.2907 -0.1921 -0.6879
  124OSM   H18F13282   4.621   3.751   8.157 -0.6370 -0.1201 -1.1260
  124OSM   H18G13283   4.594   3.596   8.253  0.9620  0.3903 -0.8339
  124OSM   H18H13284   4.477   3.735   8.276  1.1182 -0.4156  0.9302
  125OSM      N13285   4.907   4.938   6.156 -0.0809  0.3631 -0.4149
  125OSM    C1513286   4.979   4.850   6.051 -0.1346 -0.0487 -0.2310
  125OSM   H15A13287   4.923   4.762   6.023  1.7521 -1.5507  0.4547
  125OSM   H15B13288   5.061   4.802   6.102  1.0796  0.4128 -1.6762
  125OSM   H15C13289   5.019   4.909   5.970 -2.6839  2.1519 -0.0301
  125OSM    C1413290   4.794   4.997   6.072 -0.1391 -0.4572  0.1053
  125OSM   H14A13291   4.737   4.918   6.025 -0.9351  0.3093 -0.2521
  125OSM   H14B13292   4.831   5.065   5.996 -0.1518  0.0801  0.5751
  125OSM   H14C13293   4.726   5.051   6.136 -0.0277 -0.3946  0.1701
  125OSM    C1313294   4.863   4.853   6.267 -0.0130  0.2211 -0.3724
  125OSM   H13A13295   4.782   4.898   6.324  1.5609  2.4191  0.2697
  125OSM   H13B13296   4.945   4.838   6.335  1.1688  0.3435 -1.7266
  125OSM   H13C13297   4.834   4.761   6.218  1.9121  0.7146 -2.6374
  125OSM    C1213298   4.999   5.044   6.200  0.2783 -0.0979 -0.4893
  125OSM   H12A13299   5.022   5.101   6.111 -0.6231 -0.7791 -1.1709
  125OSM   H12B13300   5.091   5.002   6.237  1.9615  3.3509 -0.3376
  125OSM    C1113301   4.951   5.147   6.311 -0.4425  0.6031 -0.4847
  125OSM   H11A13302   5.030   5.222   6.334  1.7173 -0.6286 -3.2793
  125OSM   H11B13303   4.961   5.088   6.405  0.7852  0.8292 -0.4552
  125OSM      P13304   4.809   5.337   6.201 -0.2026 -0.3020 -0.2837
  125OSM    O1313305   4.941   5.383   6.164 -0.2815 -0.0426  0.2024
  125OSM    O1413306   4.711   5.316   6.098 -0.0187  0.8040  0.3852
  125OSM    O1113307   4.751   5.431   6.312  0.2125  0.4313 -0.6689
  125OSM    O1213308   4.816   5.196   6.276 -0.1374  0.0270  0.1827
  125OSM    C1S13309   4.822   5.468   6.424 -0.6777 -0.6992  0.3944
  125OSM    H1S13310   4.884   5.557   6.402  0.4950 -0.7558  3.0516
  125OSM    H1T13311   4.885   5.387   6.467  1.3929  1.8842  2.6385
  125OSM     NF13312   4.815   5.525   6.668 -0.0244  0.1126 -0.4708
  125OSM    HNF13313   4.802   5.472   6.752  2.4598  0.2878  0.0918
  125OSM    C2S13314   4.734   5.501   6.549  0.1639  0.7747  0.4203
  125OSM    H2S13315   4.696   5.594   6.501  2.6535  0.1963 -3.0516
  125OSM    C3S13316   4.616   5.407   6.580 -0.0478 -0.2292  0.3246
  125OSM    H3S13317   4.666   5.318   6.625 -1.3277 -0.6481  0.9974
  125OSM     O313318   4.554   5.355   6.466 -0.4106 -0.0000  0.3012
  125OSM    HO313319   4.612   5.371   6.391 -2.5485 -0.9410 -1.6881
  125OSM    C4S13320   4.524   5.468   6.681 -0.7746  0.0335  0.2408
  125OSM    H4S13321   4.530   5.416   6.777 -2.1021 -1.3666 -0.4024
  125OSM    C5S13322   4.439   5.568   6.659  0.0712 -0.5096  0.3168
  125OSM    H5S13323   4.435   5.625   6.565  0.8165 -0.3406  0.3873
  125OSM    C6S13324   4.346   5.622   6.766  0.2221 -0.3068 -0.3842
  125OSM    H6S13325   4.240   5.592   6.754 -0.4308  0.8922  1.7859
  125OSM    H6T13326   4.349   5.733   6.760 -1.0177 -0.2297  0.1353
  125OSM    C7S13327   4.374   5.597   6.913 -0.7692  0.9277 -0.9482
  125OSM    H7S13328   4.480   5.626   6.932 -0.7258  1.6409 -2.1767
  125OSM    H7T13329   4.367   5.490   6.940  1.0982  1.0081  0.0937
  125OSM    C8S13330   4.293   5.684   7.004  0.5527 -0.5165 -0.5774
  125OSM    H8S13331   4.185   5.665   6.985  0.5057  0.1483 -0.9987
  125OSM    H8T13332   4.327   5.789   6.994  2.1038 -0.5639  2.7679
  125OSM    C9S13333   4.320   5.642   7.151  1.0003 -0.0519 -0.3063
  125OSM    H9S13334   4.431   5.642   7.160  1.1376 -1.7240 -1.3813
  125OSM    H9T13335   4.295   5.534   7.157  1.4803 -0.1759 -0.4846
  125OSM   C10S13336   4.247   5.731   7.259 -0.1075 -0.4975  0.3615
  125OSM   H10S13337   4.141   5.698   7.249 -0.3303  0.8795 -2.9754
  125OSM   H10T13338   4.249   5.840   7.238 -0.1383 -0.6313 -0.3652
  125OSM   C11S13339   4.303   5.703   7.399  0.2649  1.0949  0.4542
  125OSM   H11S13340   4.404   5.750   7.410  0.6680 -0.0409  1.8248
  125OSM   H11T13341   4.302   5.594   7.420  0.5870  1.4285  2.3878
  125OSM   C12S13342   4.214   5.774   7.502  0.2951  0.0709 -0.8210
  125OSM   H12S13343   4.110   5.741   7.483 -0.0118 -0.5511  1.5654
  125OSM   H12T13344   4.211   5.883   7.481 -2.2577  0.2411  0.0599
  125OSM   C13S13345   4.259   5.733   7.645  0.1869 -0.1098  0.1602
  125OSM   H13S13346   4.368   5.752   7.653  0.4619 -0.8193 -1.4930
  125OSM   H13T13347   4.250   5.624   7.663 -0.6962  0.1830  1.7349
  125OSM   C14S13348   4.175   5.798   7.753  0.0302 -0.1699 -0.1871
  125OSM   H14S13349   4.081   5.738   7.758 -0.6525  0.8999  0.0735
  125OSM   H14T13350   4.139   5.893   7.708  2.1717  0.4849 -0.6281
  125OSM   C15S13351   4.239   5.794   7.897 -0.6475  0.1450  0.0298
  125OSM   H15S13352   4.324   5.863   7.913 -0.7057  0.9483 -2.7181
  125OSM   H15T13353   4.296   5.698   7.903  0.2829  0.6595 -0.3870
  125OSM   C16S13354   4.141   5.819   8.007 -0.2246  0.5047 -0.3330
  125OSM   H16S13355   4.056   5.748   8.002  0.6162 -0.5323 -0.1813
  125OSM   H16T13356   4.101   5.923   8.015 -0.2589  0.3950  1.2864
  125OSM   C17S13357   4.204   5.796   8.152 -0.1691 -0.0262  0.1231
  125OSM   H17S13358   4.295   5.859   8.164  0.2574 -0.0767 -2.2989
  125OSM   H17T13359   4.238   5.692   8.133  2.3456  1.2371 -3.4658
  125OSM   C18S13360   4.107   5.810   8.270  0.0190  0.2427 -0.3081
  125OSM   H18S13361   4.006   5.775   8.239  0.6682 -0.7312 -1.4023
  125OSM   H18T13362   4.111   5.915   8.306  0.4265 -0.7582  2.8384
  125OSM   H18U13363   4.146   5.751   8.356  3.8918  4.2107  1.0429
  125OSM    C1F13364   4.919   5.606   6.668  0.0290 -0.6389  0.6807
  125OSM     OF13365   4.918   5.709   6.597  0.0996  0.2216  0.5927
  125OSM    C2F13366   5.034   5.581   6.768 -0.0546  0.3636 -1.1309
  125OSM    H2F13367   5.132   5.599   6.720  2.3388 -1.9468  2.4058
  125OSM    H2G13368   5.026   5.475   6.800  0.1955  0.4881 -0.6418
  125OSM    C3F13369   5.044   5.682   6.883  1.0398  0.2106  0.0218
  125OSM    H3F13370   4.949   5.688   6.939  1.8808  2.5512  1.3124
  125OSM    H3G13371   5.043   5.783   6.837 -1.2817  0.1493 -0.1666
  125OSM    C4F13372   5.159   5.666   6.979  0.0197 -0.2614  0.0043
  125OSM    H4F13373   5.249   5.676   6.915  1.1054  1.1802  1.6429
  125OSM    H4G13374   5.149   5.569   7.032 -1.7680 -0.3249 -0.3943
  125OSM    C5F13375   5.166   5.794   7.073 -0.8203  0.6219  0.3271
  125OSM    H5F13376   5.068   5.821   7.116 -0.3828 -1.1183  2.6089
  125OSM    H5G13377   5.199   5.883   7.015  1.5331  0.0356  0.6449
  125OSM    C6F13378   5.275   5.769   7.185  0.6653 -0.1979 -0.6191
  125OSM    H6F13379   5.374   5.760   7.135  0.4372  1.0253 -1.3349
  125OSM    H6G13380   5.257   5.669   7.230  0.0771 -0.0654 -0.5423
  125OSM    C7F13381   5.278   5.871   7.304 -0.5621  0.2874 -0.1152
  125OSM    H7F13382   5.285   5.975   7.266 -2.1775  0.3851 -0.2402
  125OSM    H7G13383   5.368   5.842   7.362 -0.2126  2.0701  0.2712
  125OSM    C8F13384   5.151   5.866   7.387  0.2022  1.1370 -0.1617
  125OSM    H8F13385   5.066   5.855   7.317  1.9808 -0.9303 -2.1746
  125OSM    H8G13386   5.147   5.963   7.440  1.7381  0.1855  1.8500
  125OSM    C9F13387   5.152   5.754   7.491  0.0414 -0.4482  0.1510
  125OSM    H9F13388   5.158   5.649   7.458  3.4195  0.0409 -1.2381
  125OSM   C10F13389   5.170   5.777   7.622 -0.8184 -0.1903  0.4302
  125OSM   H10F13390   5.168   5.701   7.702  0.0039  0.1127  0.7537
  125OSM   C11F13391   5.201   5.916   7.683  0.5692  0.4489  0.3280
  125OSM   H11F13392   5.138   5.996   7.640 -1.7316 -2.3654 -1.9131
  125OSM   H11G13393   5.307   5.947   7.669 -0.2167  3.8023  0.7599
  125OSM   C12F13394   5.160   5.900   7.832 -0.8780  0.1522  0.5474
  125OSM   H12F13395   5.246   5.848   7.879 -0.2639 -1.9131 -2.5683
  125OSM   H12G13396   5.067   5.843   7.852 -1.9246  1.9547  1.1295
  125OSM   C13F13397   5.153   6.035   7.894 -0.0244 -0.2501  0.0815
  125OSM   H13F13398   5.065   6.099   7.874 -0.0016 -0.4862 -0.8290
  125OSM   H13G13399   5.227   6.100   7.842  0.4664 -0.7808  0.1054
  125OSM   C14F13400   5.196   6.040   8.044 -0.0925 -0.1355 -0.4764
  125OSM   H14F13401   5.163   6.140   8.081  0.6934 -0.0419 -0.0073
  125OSM   H14G13402   5.306   6.041   8.060 -0.2448 -0.0246  0.6121
  125OSM   C15F13403   5.127   5.935   8.136 -0.0086 -0.4228 -0.0272
  125OSM   H15F13404   5.149   5.962   8.242  1.7917 -1.1009 -0.2030
  125OSM   H15G13405   5.146   5.828   8.113 -1.3100 -0.5790 -0.4332
  125OSM   C16F13406   4.975   5.967   8.127  0.6595  0.0230  0.3923
  125OSM   H16F13407   4.940   5.895   8.050  1.0937  2.5431 -2.3384
  125OSM   H16G13408   4.967   6.067   8.078 -0.8481  1.1509  2.7227
  125OSM   C17F13409   4.900   5.959   8.263  0.5232  0.4102 -0.2458
  125OSM   H17F13410   4.941   6.023   8.344  1.5958 -0.2958 -0.2181
  125OSM   H17G13411   4.918   5.856   8.300 -0.1180 -1.3375 -4.2005
  125OSM   C18F13412   4.756   5.999   8.257  0.1857  0.2151 -0.5112
  125OSM   H18F13413   4.703   5.905   8.228  0.9622 -0.1804 -0.6936
  125OSM   H18G13414   4.738   6.086   8.191 -1.0056  1.0273  0.8302
  125OSM   H18H13415   4.720   6.040   8.354 -0.8490 -1.3844 -0.1725
  126OSM      N13416   2.125   3.818   5.951  0.2167 -0.5260  1.2129
  126OSM    C1513417   2.233   3.918   5.972 -0.1280 -0.4127 -1.0361
  126OSM   H15A13418   2.212   3.982   6.057 -0.0033 -0.9220 -0.6132
  126OSM   H15B13419   2.256   3.976   5.884 -0.9875 -0.0557 -1.0259
  126OSM   H15C13420   2.327   3.869   5.996  1.7284  2.3382 -2.1428
  126OSM    C1413421   2.004   3.889   5.916  0.2487 -0.3693 -0.2850
  126OSM   H14A13422   1.922   3.834   5.872 -0.9259 -1.7039  3.2392
  126OSM   H14B13423   2.021   3.962   5.839  2.1538 -0.5782 -0.1195
  126OSM   H14C13424   1.968   3.936   6.006  2.6758  0.3200  0.4088
  126OSM    C1313425   2.162   3.731   5.837  0.5542 -0.3410  0.3824
  126OSM   H13A13426   2.252   3.672   5.851  1.0566 -0.7727 -3.4093
  126OSM   H13B13427   2.175   3.790   5.748  1.3310  0.8318  1.2528
  126OSM   H13C13428   2.086   3.661   5.802 -0.2311 -0.4698  2.2543
  126OSM    C1213429   2.104   3.726   6.078 -0.3579 -0.1791  0.2488
  126OSM   H12A13430   2.184   3.654   6.079 -0.0100  0.1693  2.7743
  126OSM   H12B13431   2.017   3.673   6.040 -1.4819  2.7557 -1.5839
  126OSM    C1113432   2.080   3.781   6.217 -0.2208 -0.1292  0.2270
  126OSM   H11A13433   2.165   3.844   6.251 -0.2156 -1.1995  2.3437
  126OSM   H11B13434   2.063   3.699   6.290  2.1615  0.1026  1.1173
  126OSM      P13435   1.908   3.940   6.343 -0.0850  0.0398  0.0737
  126OSM    O1313436   1.877   4.079   6.309 -1.1993  0.4004  0.3909
  126OSM    O1413437   1.791   3.863   6.390 -0.0281  0.2289 -0.1451
  126OSM    O1113438   2.023   3.933   6.454 -0.0711 -0.5901 -0.4600
  126OSM    O1213439   1.961   3.858   6.217  0.0576 -0.2505  0.2195
  126OSM    C1S13440   2.003   3.990   6.581 -0.1683 -0.2099  0.6408
  126OSM    H1S13441   1.901   4.031   6.595  0.6209  2.0246  0.3037
  126OSM    H1T13442   2.078   4.071   6.597  1.3439 -1.1109 -1.3773
  126OSM     NF13443   2.049   3.958   6.829  0.2125 -0.0810  0.3272
  126OSM    HNF13444   2.142   3.978   6.857  0.7811 -1.7763 -0.2430
  126OSM    C2S13445   2.048   3.888   6.698 -0.0839 -0.6765  0.2206
  126OSM    H2S13446   1.974   3.806   6.712 -2.0100  1.2320  1.8859
  126OSM    C3S13447   2.188   3.826   6.667  0.1767  0.6364 -0.1305
  126OSM    H3S13448   2.272   3.898   6.666 -1.2567  2.4455  2.0009
  126OSM     O313449   2.193   3.757   6.536 -0.8557 -0.2798  0.0001
  126OSM    HO313450   2.128   3.805   6.484 -1.9837 -1.4457  0.2660
  126OSM    C4S13451   2.225   3.729   6.775  0.1418  0.0280 -0.1223
  126OSM    H4S13452   2.279   3.784   6.852  1.6139  2.0489 -2.4619
  126OSM    C5S13453   2.196   3.597   6.777  0.1998 -0.2034 -0.2337
  126OSM    H5S13454   2.154   3.554   6.685  1.3304 -1.2498 -0.2913
  126OSM    C6S13455   2.227   3.498   6.888 -0.4271 -0.5563 -0.0452
  126OSM    H6S13456   2.317   3.439   6.860  1.4813  1.8999  0.5813
  126OSM    H6T13457   2.146   3.421   6.891 -0.5388 -0.4491 -0.3071
  126OSM    C7S13458   2.251   3.568   7.027  0.0334  0.1062 -0.5723
  126OSM    H7S13459   2.170   3.636   7.059  0.0358 -0.0289 -0.2790
  126OSM    H7T13460   2.345   3.625   7.018 -0.5053  1.5258  1.8414
  126OSM    C8S13461   2.274   3.462   7.141 -0.1493 -0.0167 -0.2653
  126OSM    H8S13462   2.351   3.393   7.101 -0.5978 -0.6481 -0.0611
  126OSM    H8T13463   2.179   3.408   7.162 -0.5111  1.0445  0.9708
  126OSM    C9S13464   2.316   3.524   7.279 -0.0284 -0.3010  0.5103
  126OSM    H9S13465   2.238   3.591   7.320 -1.4351 -1.1805 -0.6412
  126OSM    H9T13466   2.405   3.586   7.252 -1.1128  2.1886  2.2903
  126OSM   C10S13467   2.352   3.416   7.381 -0.6080  0.0047 -0.3413
  126OSM   H10S13468   2.442   3.364   7.340 -0.9918 -1.6551  0.8031
  126OSM   H10T13469   2.278   3.334   7.391 -0.6485  0.0779 -0.0462
  126OSM   C11S13470   2.381   3.472   7.522 -0.5248 -0.5486 -0.2883
  126OSM   H11S13471   2.286   3.516   7.560  0.3337  0.5514  0.6807
  126OSM   H11T13472   2.454   3.554   7.501 -1.4273  0.2968 -0.1885
  126OSM   C12S13473   2.463   3.372   7.613 -0.3471  0.1467 -0.7412
  126OSM   H12S13474   2.565   3.342   7.579  0.3907  0.7595  0.8588
  126OSM   H12T13475   2.413   3.273   7.606  1.4347 -0.9573  1.0705
  126OSM   C13S13476   2.468   3.416   7.758 -0.0392  0.1889 -0.2278
  126OSM   H13S13477   2.364   3.442   7.789  0.1543 -0.3150  0.8717
  126OSM   H13T13478   2.526   3.511   7.759 -0.5673  0.5220 -0.6227
  126OSM   C14S13479   2.545   3.329   7.855  0.2980  0.0732 -1.2425
  126OSM   H14S13480   2.641   3.290   7.816  0.9645  0.0573  0.3340
  126OSM   H14T13481   2.485   3.239   7.880 -0.2547  0.7257 -0.1556
  126OSM   C15S13482   2.570   3.406   7.995 -0.3155 -0.3641 -0.0628
  126OSM   H15S13483   2.475   3.423   8.050  1.1681  1.3725  2.1490
  126OSM   H15T13484   2.603   3.508   7.966  0.8204 -0.5015  0.7044
  126OSM   C16S13485   2.665   3.324   8.088  1.0235  0.0160 -0.2186
  126OSM   H16S13486   2.761   3.312   8.033  0.7137  0.3653 -0.8476
  126OSM   H16T13487   2.611   3.227   8.093 -0.3013  0.7464  0.0795
  126OSM   C17S13488   2.679   3.392   8.223  0.3670  0.1235 -0.0945
  126OSM   H17S13489   2.586   3.374   8.281  0.6807  0.3056  0.4632
  126OSM   H17T13490   2.699   3.501   8.226  1.0635 -0.0169  0.3179
  126OSM   C18S13491   2.787   3.334   8.307 -0.3047  0.1086 -0.2347
  126OSM   H18S13492   2.875   3.318   8.242 -0.5668 -2.6953 -0.0081
  126OSM   H18T13493   2.749   3.231   8.324 -2.7085  1.1420  1.3502
  126OSM   H18U13494   2.810   3.380   8.405  0.5153 -2.6542  0.9793
  126OSM    C1F13495   1.940   4.007   6.889  0.1984  0.1531  0.1874
  126OSM     OF13496   1.833   3.987   6.838  0.6922 -0.2879 -0.2210
  126OSM    C2F13497   1.951   4.078   7.023  0.0438  0.3366  0.6737
  126OSM    H2F13498   2.000   4.178   7.014  2.2460 -0.6738  0.8012
  126OSM    H2G13499   2.020   4.010   7.077  1.8944  2.7127  1.5026
  126OSM    C3F13500   1.812   4.096   7.097  0.2097 -0.0757  0.7017
  126OSM    H3F13501   1.740   4.013   7.078  1.3464 -0.7999 -0.6028
  126OSM    H3G13502   1.763   4.191   7.066 -3.4969 -2.4902 -1.6702
  126OSM    C4F13503   1.824   4.099   7.250 -0.4172 -0.0524  0.2912
  126OSM    H4F13504   1.722   4.125   7.286 -0.0950  0.5950  0.7572
  126OSM    H4G13505   1.896   4.171   7.295  0.7581 -0.9372 -0.1253
  126OSM    C5F13506   1.871   3.962   7.306  0.0221 -0.0860  0.4823
  126OSM    H5F13507   1.972   3.938   7.265 -1.8157 -3.3084 -2.7180
  126OSM    H5G13508   1.792   3.889   7.280  1.6299 -1.4493 -0.8489
  126OSM    C6F13509   1.884   3.972   7.469 -0.3014 -0.1261 -0.4935
  126OSM    H6F13510   1.944   4.064   7.481 -1.3133  0.4382  0.3785
  126OSM    H6G13511   1.932   3.883   7.516 -1.6231 -0.7119 -0.1800
  126OSM    C7F13512   1.755   3.989   7.548  0.1910 -0.0033 -0.7256
  126OSM    H7F13513   1.703   3.891   7.553  1.0976 -0.4692 -0.2545
  126OSM    H7G13514   1.694   4.058   7.485 -2.1576  0.1326  1.5256
  126OSM    C8F13515   1.763   4.065   7.689 -0.1945 -0.3042  0.3078
  126OSM    H8F13516   1.667   4.122   7.695  0.7012  1.6446 -2.1808
  126OSM    H8G13517   1.840   4.144   7.672 -0.7893  0.5355  1.3644
  126OSM    C9F13518   1.789   3.981   7.806  0.5231 -0.2119  0.2901
  126OSM    H9F13519   1.707   3.919   7.846  0.4475  0.6781  1.5643
  126OSM   C10F13520   1.906   3.985   7.872  0.2879 -0.1744  0.0770
  126OSM   H10F13521   1.904   3.944   7.974  1.1013 -0.0222  0.1627
  126OSM   C11F13522   2.032   4.066   7.848  0.3828  0.4748  0.4698
  126OSM   H11F13523   2.019   4.161   7.904 -1.4164  0.9299 -0.6418
  126OSM   H11G13524   2.027   4.092   7.740  2.6283 -0.5584  0.0611
  126OSM   C12F13525   2.170   3.997   7.868  0.4050 -0.0622  0.8600
  126OSM   H12F13526   2.192   3.977   7.975  1.2203 -0.1685  0.6825
  126OSM   H12G13527   2.247   4.068   7.831  0.5130 -1.0331 -0.8915
  126OSM   C13F13528   2.183   3.862   7.808 -0.1721  0.0701  0.2194
  126OSM   H13F13529   2.163   3.870   7.699  0.5821 -1.3511 -0.0427
  126OSM   H13G13530   2.115   3.787   7.854 -1.9608  0.4765 -1.6330
  126OSM   C14F13531   2.324   3.806   7.816 -0.0295 -0.4089 -0.9743
  126OSM   H14F13532   2.403   3.870   7.770 -0.3596  0.2234 -0.6601
  126OSM   H14G13533   2.314   3.706   7.768 -1.3450 -1.3486  1.1116
  126OSM   C15F13534   2.397   3.783   7.957  0.2268 -0.6576  0.6486
  126OSM   H15F13535   2.425   3.886   7.987  2.3650 -0.3103 -2.1461
  126OSM   H15G13536   2.499   3.739   7.959 -0.1624 -1.5641  1.0704
  126OSM   C16F13537   2.312   3.713   8.069  0.7462 -0.0177  0.0996
  126OSM   H16F13538   2.300   3.605   8.044 -0.4357  0.5602 -2.1487
  126OSM   H16G13539   2.210   3.757   8.071 -0.6803 -2.6255 -3.3450
  126OSM   C17F13540   2.369   3.729   8.207 -0.5364  0.1379 -0.8246
  126OSM   H17F13541   2.418   3.828   8.222 -0.9881  0.6673 -2.5928
  126OSM   H17G13542   2.456   3.661   8.219 -0.3813  0.5083  0.2497
  126OSM   C18F13543   2.284   3.721   8.326  0.0662  0.0156 -1.0064
  126OSM   H18F13544   2.207   3.802   8.322 -0.4648 -0.4836 -0.9506
  126OSM   H18G13545   2.347   3.735   8.417  0.3667 -1.3601 -0.9900
  126OSM   H18H13546   2.234   3.623   8.340  0.3818  0.1356  1.4574
  127OSM      N13547   2.649   2.992   6.038  0.1350  0.7812  0.3494
  127OSM    C1513548   2.581   3.117   6.094  0.1988 -0.4659 -0.5391
  127OSM   H15A13549   2.647   3.202   6.103 -1.2644  0.4827  2.5976
  127OSM   H15B13550   2.540   3.097   6.191 -0.7759  0.9133 -0.6467
  127OSM   H15C13551   2.493   3.146   6.039 -1.3552  0.1561  2.1019
  127OSM    C1413552   2.546   2.881   6.026 -0.0316 -0.3830  0.0999
  127OSM   H14A13553   2.485   2.876   5.937 -0.3996 -1.0801  0.3777
  127OSM   H14B13554   2.476   2.890   6.108 -2.1318 -3.6484 -1.0832
  127OSM   H14C13555   2.588   2.784   6.048  1.0005  0.0725  0.1793
  127OSM    C1313556   2.702   3.022   5.896  0.2321 -0.5189  0.1885
  127OSM   H13A13557   2.759   2.944   5.847  1.6926 -0.1308  1.1997
  127OSM   H13B13558   2.759   3.113   5.885  0.8910 -0.5458  2.6648
  127OSM   H13C13559   2.607   3.041   5.848  1.3042 -0.5888 -2.0762
  127OSM    C1213560   2.765   2.943   6.124 -0.2742 -0.3024 -0.2991
  127OSM   H12A13561   2.840   3.018   6.142 -1.1020  0.0126  2.3380
  127OSM   H12B13562   2.813   2.875   6.055  2.5526  3.3480 -2.2620
  127OSM    C1113563   2.728   2.894   6.265 -0.2393  0.8091  0.2959
  127OSM   H11A13564   2.658   2.963   6.315 -2.9327 -1.1667 -0.4595
  127OSM   H11B13565   2.813   2.875   6.333  0.7879 -0.4679 -1.2599
  127OSM      P13566   2.719   2.629   6.262 -0.1699 -0.0198 -0.4353
  127OSM    O1313567   2.637   2.530   6.192 -0.6262  0.3935  0.2528
  127OSM    O1413568   2.862   2.649   6.224  0.3493  0.7546  0.9123
  127OSM    O1113569   2.704   2.598   6.421  0.5640 -0.2622  0.4141
  127OSM    O1213570   2.653   2.771   6.253  0.4781 -0.3101 -0.4599
  127OSM    C1S13571   2.707   2.685   6.532  0.0227 -0.0646 -0.5463
  127OSM    H1S13572   2.643   2.773   6.507 -0.8933 -0.6704 -0.4089
  127OSM    H1T13573   2.810   2.708   6.565  0.1874 -1.7511  0.2036
  127OSM     NF13574   2.654   2.702   6.765  0.1993 -0.1916  0.2028
  127OSM    HNF13575   2.738   2.689   6.817  0.7586 -1.5783 -0.9707
  127OSM    C2S13576   2.639   2.610   6.658  0.1874  0.4097  0.3157
  127OSM    H2S13577   2.532   2.607   6.628  0.0426  1.2488  0.7207
  127OSM    C3S13578   2.705   2.472   6.686  0.3946 -0.3221 -0.0661
  127OSM    H3S13579   2.803   2.508   6.725 -0.1761  0.8696  0.3378
  127OSM     O313580   2.722   2.383   6.575  0.2082  0.3307 -0.3130
  127OSM    HO313581   2.712   2.441   6.500  0.8416  0.5326 -0.2519
  127OSM    C4S13582   2.633   2.405   6.799 -0.3612 -0.7259 -0.7372
  127OSM    H4S13583   2.636   2.475   6.884  0.3913 -0.5321 -0.9194
  127OSM    C5S13584   2.560   2.296   6.795  0.4661  0.0358 -0.3042
  127OSM    H5S13585   2.534   2.248   6.700  2.3466  1.2431 -1.4867
  127OSM    C6S13586   2.486   2.241   6.914 -0.1204 -0.7929 -0.0038
  127OSM    H6S13587   2.430   2.148   6.893 -1.5093 -0.1513  0.7310
  127OSM    H6T13588   2.408   2.312   6.948 -0.0905  0.4903 -2.4123
  127OSM    C7S13589   2.582   2.193   7.022  0.3640 -0.4686  0.3228
  127OSM    H7S13590   2.635   2.287   7.047  1.1755 -0.7728 -0.2074
  127OSM    H7T13591   2.666   2.131   6.985 -0.3017 -1.0782 -0.2122
  127OSM    C8S13592   2.523   2.117   7.144 -0.4665 -0.9685 -0.1159
  127OSM    H8S13593   2.463   2.026   7.122 -0.1259 -1.3462  0.4896
  127OSM    H8T13594   2.442   2.184   7.181 -0.0847 -1.3202  1.4073
  127OSM    C9S13595   2.627   2.107   7.255 -0.5561 -0.2356  0.0634
  127OSM    H9S13596   2.711   2.045   7.217  1.3179  1.5179  1.1663
  127OSM    H9T13597   2.571   2.061   7.339 -2.3647  3.3595  1.0314
  127OSM   C10S13598   2.680   2.241   7.309 -0.4188 -0.9491  0.2497
  127OSM   H10S13599   2.594   2.301   7.345  0.3046 -1.4140  2.9931
  127OSM   H10T13600   2.731   2.293   7.225  0.7627 -0.9393  0.9446
  127OSM   C11S13601   2.786   2.214   7.416 -0.7325 -0.2246 -0.0034
  127OSM   H11S13602   2.858   2.298   7.409  0.0907 -1.0510 -2.5546
  127OSM   H11T13603   2.833   2.115   7.397  0.8042  0.4801 -0.0433
  127OSM   C12S13604   2.720   2.201   7.561  1.0156 -0.4567  0.6686
  127OSM   H12S13605   2.655   2.112   7.549 -0.5108  0.7989 -0.8128
  127OSM   H12T13606   2.662   2.289   7.595  1.2315 -0.3563  0.7817
  127OSM   C13S13607   2.828   2.167   7.662  0.0187  0.2825  0.2717
  127OSM   H13S13608   2.901   2.251   7.666  1.3258 -0.8092  0.1065
  127OSM   H13T13609   2.890   2.076   7.645  1.0776 -0.1284  4.9435
  127OSM   C14S13610   2.763   2.164   7.807  0.3822 -0.1585  0.6165
  127OSM   H14S13611   2.689   2.080   7.801 -0.0459  0.1744  1.1563
  127OSM   H14T13612   2.702   2.256   7.816 -0.2275 -0.4933  0.0377
  127OSM   C15S13613   2.867   2.142   7.915 -0.1262  0.4534 -0.5082
  127OSM   H15S13614   2.937   2.226   7.895  0.4412 -0.6441 -3.7929
  127OSM   H15T13615   2.926   2.048   7.903  1.5021  1.1472  1.4927
  127OSM   C16S13616   2.824   2.154   8.061 -0.7548  0.9433 -0.6444
  127OSM   H16S13617   2.765   2.245   8.087 -0.6798  0.1877  2.5992
  127OSM   H16T13618   2.914   2.167   8.124 -0.4353 -1.1487 -0.5788
  127OSM   C17S13619   2.758   2.013   8.104  0.0004  0.2769  0.8762
  127OSM   H17S13620   2.833   1.935   8.082  0.6690  0.6102  1.8838
  127OSM   H17T13621   2.672   2.009   8.034 -0.9541  1.7293  1.8981
  127OSM   C18S13622   2.715   2.009   8.246  0.3481 -0.1997 -0.8811
  127OSM   H18S13623   2.803   2.020   8.313 -0.2470  1.0756 -0.2794
  127OSM   H18T13624   2.675   1.905   8.252  2.3496 -0.9476  0.5311
  127OSM   H18U13625   2.637   2.081   8.280  0.9774  0.2264 -0.3206
  127OSM    C1F13626   2.594   2.814   6.766  0.2946 -0.0863 -0.2060
  127OSM     OF13627   2.486   2.826   6.701 -0.1309  0.6957  0.3303
  127OSM    C2F13628   2.651   2.923   6.856 -0.3133  0.0596  0.1913
  127OSM    H2F13629   2.674   3.013   6.794 -0.8498  0.5693  0.7093
  127OSM    H2G13630   2.747   2.888   6.900  0.2396 -0.4683 -1.3852
  127OSM    C3F13631   2.558   2.945   6.968  0.2186 -0.1525 -0.0462
  127OSM    H3F13632   2.560   2.853   7.030 -0.5796  1.1051  1.9441
  127OSM    H3G13633   2.456   2.965   6.930 -0.3484  1.1049  1.9689
  127OSM    C4F13634   2.599   3.064   7.059 -0.1166  0.5591  1.0897
  127OSM    H4F13635   2.621   3.146   6.986  1.2264  0.0542  0.8901
  127OSM    H4G13636   2.695   3.037   7.108 -0.2323  3.6044  3.3277
  127OSM    C5F13637   2.505   3.106   7.170  0.4039 -0.2718  0.0827
  127OSM    H5F13638   2.410   3.148   7.130  1.0673  1.1581 -0.0598
  127OSM    H5G13639   2.541   3.188   7.236 -1.8585 -0.1539  1.2700
  127OSM    C6F13640   2.478   2.985   7.265 -0.1863  0.6837 -0.1190
  127OSM    H6F13641   2.454   2.900   7.198  2.0191 -0.1664  0.0902
  127OSM    H6G13642   2.401   3.014   7.340  1.3491  0.3403  1.6582
  127OSM    C7F13643   2.604   2.955   7.354  0.0478  0.3988  0.1741
  127OSM    H7F13644   2.654   3.053   7.373  0.6719  0.0461  0.4049
  127OSM    H7G13645   2.673   2.890   7.297 -0.9178  0.1107 -0.6910
  127OSM    C8F13646   2.579   2.890   7.496 -0.7372  1.1484  0.0823
  127OSM    H8F13647   2.674   2.843   7.530 -1.2306  0.3424  0.3963
  127OSM    H8G13648   2.514   2.805   7.466  0.5495  0.4433 -0.7997
  127OSM    C9F13649   2.519   2.976   7.602  0.1071 -0.1966  0.4515
  127OSM    H9F13650   2.443   3.045   7.561 -0.5840 -1.4594 -0.4832
  127OSM   C10F13651   2.551   2.978   7.731 -0.7370 -0.2679  0.4777
  127OSM   H10F13652   2.492   3.048   7.792  0.9351  1.9650 -0.3100
  127OSM   C11F13653   2.653   2.900   7.810 -0.8750 -0.0036  0.1285
  127OSM   H11F13654   2.736   2.867   7.744 -0.9081 -0.8961  0.5255
  127OSM   H11G13655   2.603   2.816   7.863  1.3194 -0.8528  0.9580
  127OSM   C12F13656   2.709   2.989   7.926  0.6441  0.0983 -0.1421
  127OSM   H12F13657   2.628   3.021   7.995  0.2220 -1.8186  0.3032
  127OSM   H12G13658   2.746   3.081   7.875 -1.8896  0.9100 -0.6685
  127OSM   C13F13659   2.816   2.915   8.009  1.0523 -0.2004 -0.3466
  127OSM   H13F13660   2.897   2.890   7.937 -1.6534 -1.4729 -3.2530
  127OSM   H13G13661   2.783   2.815   8.045 -1.4904  0.7752  0.2573
  127OSM   C14F13662   2.857   3.000   8.127 -0.0884  0.4168 -0.0435
  127OSM   H14F13663   2.770   3.027   8.189  0.3474  0.2164  0.6718
  127OSM   H14G13664   2.896   3.095   8.085 -0.0988  0.6271  0.4250
  127OSM   C15F13665   2.965   2.943   8.214 -0.2742 -1.0774 -1.0208
  127OSM   H15F13666   3.061   2.907   8.170  0.1574  1.0356 -1.9260
  127OSM   H15G13667   2.923   2.850   8.258  0.8613 -0.4739  1.5000
  127OSM   C16F13668   3.002   3.043   8.329 -0.0453  0.0051  0.0712
  127OSM   H16F13669   2.909   3.075   8.382  0.2148  2.1952 -0.6774
  127OSM   H16G13670   3.048   3.135   8.286 -1.5232  1.6083  1.7530
  127OSM   C17F13671   3.085   2.982   8.442 -0.4472 -0.9434  0.0977
  127OSM   H17F13672   3.108   3.059   8.518  0.1483  1.0204 -1.9881
  127OSM   H17G13673   3.183   2.954   8.398  0.0072 -1.6005  1.4857
  127OSM   C18F13674   3.029   2.856   8.504 -0.4397  0.1116  0.0648
  127OSM   H18F13675   3.034   2.770   8.434 -3.3202 -0.7849  0.8286
  127OSM   H18G13676   2.921   2.867   8.531 -1.0502 -3.5299 -0.4166
  127OSM   H18H13677   3.080   2.821   8.596 -1.6676  1.5404  1.3614
  128OSM      N13678   4.424   6.361   6.012 -0.3113  0.0937  0.4353
  128OSM    C1513679   4.305   6.303   5.955  0.6863  0.1290  0.6964
  128OSM   H15A13680   4.218   6.302   6.020 -0.3584 -1.0327 -0.6500
  128OSM   H15B13681   4.320   6.198   5.933  2.4530  0.7716 -1.6072
  128OSM   H15C13682   4.286   6.338   5.855 -0.2542  0.3235  0.9347
  128OSM    C1413683   4.532   6.387   5.911  0.0444 -0.0727  0.3417
  128OSM   H14A13684   4.519   6.473   5.846  1.2003 -0.5378 -0.5366
  128OSM   H14B13685   4.538   6.304   5.842 -2.6056  1.7768 -2.3875
  128OSM   H14C13686   4.623   6.403   5.967 -0.0830 -0.8926  0.7993
  128OSM    C1313687   4.377   6.493   6.070 -0.1124  0.6453 -0.8708
  128OSM   H13A13688   4.292   6.469   6.132 -1.3120  1.3623 -2.1813
  128OSM   H13B13689   4.336   6.566   6.001 -0.5827  0.9858 -0.2497
  128OSM   H13C13690   4.450   6.556   6.118 -1.6344  1.0996  0.9658
  128OSM    C1213691   4.486   6.274   6.126  0.1089  0.0872  0.0842
  128OSM   H12A13692   4.507   6.180   6.078  1.4163  0.6107 -0.4116
  128OSM   H12B13693   4.410   6.243   6.196  0.1577 -0.0914  0.0579
  128OSM    C1113694   4.597   6.326   6.216 -0.3449 -0.0562  0.0234
  128OSM   H11A13695   4.630   6.251   6.291  1.4365  0.1086 -0.5472
  128OSM   H11B13696   4.548   6.402   6.279 -0.8341 -1.9186  2.0046
  128OSM      P13697   4.806   6.477   6.201  0.3022 -0.6863  0.4893
  128OSM    O1313698   4.946   6.448   6.159  0.4737  0.2851 -0.0908
  128OSM    O1413699   4.754   6.611   6.165 -0.4381  0.5286  0.2674
  128OSM    O1113700   4.785   6.455   6.359 -0.2575  0.1992  0.7495
  128OSM    O1213701   4.713   6.365   6.142 -0.7035 -0.3396 -0.2534
  128OSM    C1S13702   4.860   6.364   6.438  0.3864 -0.4639  0.4603
  128OSM    H1S13703   4.968   6.378   6.415  0.6386 -2.0960  0.5599
  128OSM    H1T13704   4.821   6.264   6.408  0.7591 -0.3439 -0.4734
  128OSM     NF13705   4.921   6.293   6.665 -0.2264  0.0605  1.0865
  128OSM    HNF13706   4.885   6.200   6.661  1.4937 -0.6748  1.9176
  128OSM    C2S13707   4.840   6.397   6.590 -0.1300  0.7822 -0.9314
  128OSM    H2S13708   4.886   6.496   6.615 -0.2655  0.3214  1.4157
  128OSM    C3S13709   4.691   6.400   6.633  0.6170 -0.8496  0.1389
  128OSM    H3S13710   4.639   6.303   6.621  1.9997 -1.8748  1.9222
  128OSM     O313711   4.614   6.481   6.546  0.3022  0.5511  0.6512
  128OSM    HO313712   4.679   6.521   6.488  2.4241  0.0902  2.5838
  128OSM    C4S13713   4.682   6.443   6.773 -0.0466  0.1675 -0.0392
  128OSM    H4S13714   4.699   6.551   6.782  2.0348  0.0852 -1.9312
  128OSM    C5S13715   4.653   6.364   6.880 -0.9535 -0.1188  0.0494
  128OSM    H5S13716   4.637   6.257   6.864  0.7688 -0.1561 -1.7786
  128OSM    C6S13717   4.649   6.413   7.020 -0.3995  0.3176  0.2385
  128OSM    H6S13718   4.702   6.340   7.085  2.0158 -0.5282 -2.4811
  128OSM    H6T13719   4.541   6.417   7.046 -0.9773 -0.5732 -1.7873
  128OSM    C7S13720   4.699   6.559   7.044 -0.2947 -0.1526  1.4732
  128OSM    H7S13721   4.647   6.624   6.970  0.7242 -0.6065  0.3090
  128OSM    H7T13722   4.807   6.558   7.020 -0.0289  1.4345  2.4470
  128OSM    C8S13723   4.691   6.610   7.189 -0.1608  0.3187 -0.2951
  128OSM    H8S13724   4.588   6.623   7.228  0.7493  1.4885  1.9697
  128OSM    H8T13725   4.728   6.715   7.200 -0.4657  0.4924 -0.9118
  128OSM    C9S13726   4.765   6.520   7.290  0.0925 -0.2208  0.5117
  128OSM    H9S13727   4.872   6.502   7.269  0.7340  2.7691  0.8477
  128OSM    H9T13728   4.711   6.423   7.292  0.1090 -0.2874 -1.0137
  128OSM   C10S13729   4.771   6.575   7.436 -0.0993  0.3002  0.3086
  128OSM   H10S13730   4.673   6.596   7.484  0.0513 -0.4762  0.9762
  128OSM   H10T13731   4.816   6.676   7.435 -0.6716  0.5721 -1.2165
  128OSM   C11S13732   4.841   6.484   7.532  0.9231  0.4048  0.3248
  128OSM   H11S13733   4.949   6.497   7.509  0.7098  3.2247  0.5445
  128OSM   H11T13734   4.803   6.380   7.530 -1.7747  1.3027  0.3590
  128OSM   C12S13735   4.815   6.529   7.678 -0.0962  0.5880 -0.0212
  128OSM   H12S13736   4.710   6.511   7.709 -0.1964 -0.6100 -0.9956
  128OSM   H12T13737   4.838   6.638   7.686  0.7365  0.4127  0.0217
  128OSM   C13S13738   4.896   6.456   7.784 -0.2137 -0.4400  0.3934
  128OSM   H13S13739   5.004   6.450   7.761 -0.0832 -1.3164  1.1874
  128OSM   H13T13740   4.863   6.350   7.780  2.4875 -1.3491 -0.1787
  128OSM   C14S13741   4.881   6.517   7.922 -0.6788 -0.0739 -0.0218
  128OSM   H14S13742   4.774   6.541   7.940 -0.0549  1.6643  1.6457
  128OSM   H14T13743   4.943   6.606   7.943 -0.1342  0.5705 -3.6459
  128OSM   C15S13744   4.919   6.411   8.029  0.0322 -0.5373 -0.2406
  128OSM   H15S13745   5.028   6.390   8.025 -0.1191 -1.3148 -0.6753
  128OSM   H15T13746   4.871   6.313   8.006 -2.3253  1.0124 -2.3404
  128OSM   C16S13747   4.885   6.458   8.172  0.3646  0.1101 -0.0267
  128OSM   H16S13748   4.778   6.486   8.179  0.1634 -0.8094  0.7750
  128OSM   H16T13749   4.945   6.544   8.207  0.9863 -1.0578  1.9532
  128OSM   C17S13750   4.906   6.350   8.276  0.1498  0.4777  0.4220
  128OSM   H17S13751   4.956   6.263   8.227 -0.2872  1.4898 -1.9682
  128OSM   H17T13752   4.805   6.314   8.306 -1.7447  3.8238 -1.3461
  128OSM   C18S13753   4.982   6.393   8.400 -0.0241 -0.1708  0.2659
  128OSM   H18S13754   5.091   6.409   8.382 -0.1247 -0.8113 -1.0522
  128OSM   H18T13755   4.963   6.318   8.480 -2.6231  0.5885  0.4487
  128OSM   H18U13756   4.954   6.493   8.438 -2.0054 -1.2889  1.9043
  128OSM    C1F13757   5.051   6.307   6.677 -1.0383  0.1965  0.5390
  128OSM     OF13758   5.107   6.416   6.672 -0.1225 -0.3322  0.2786
  128OSM    C2F13759   5.136   6.188   6.670 -0.7300  1.0343 -0.2285
  128OSM    H2F13760   5.241   6.223   6.673 -0.4414  0.3542 -1.7655
  128OSM    H2G13761   5.115   6.125   6.581 -1.0972  1.2536 -0.3023
  128OSM    C3F13762   5.116   6.093   6.793  0.0570 -0.3638  0.5040
  128OSM    H3F13763   5.195   6.017   6.773 -0.2137 -0.1211 -1.7187
  128OSM    H3G13764   5.015   6.046   6.788  0.1584 -0.5717  0.3701
  128OSM    C4F13765   5.142   6.165   6.925 -0.1954 -0.1530  0.1556
  128OSM    H4F13766   5.203   6.252   6.893  1.0931 -0.9989  0.2798
  128OSM    H4G13767   5.209   6.094   6.977  0.5499 -0.7502 -1.5504
  128OSM    C5F13768   5.013   6.202   6.992 -0.0877  0.0971  0.1636
  128OSM    H5F13769   4.972   6.106   7.030 -0.1066  0.0270 -0.0330
  128OSM    H5G13770   4.946   6.252   6.918  0.3686 -0.4006 -0.5999
  128OSM    C6F13771   5.043   6.298   7.104  0.0158  0.1009 -0.4722
  128OSM    H6F13772   4.954   6.321   7.167  0.1393  1.7138 -0.8294
  128OSM    H6G13773   5.073   6.392   7.053 -0.3591  0.7646  0.4938
  128OSM    C7F13774   5.146   6.233   7.195 -0.6471  0.2342  0.6253
  128OSM    H7F13775   5.243   6.246   7.142 -0.4426 -2.4940  0.1740
  128OSM    H7G13776   5.113   6.131   7.224 -0.2220  0.3595  1.5905
  128OSM    C8F13777   5.186   6.309   7.323  0.8084  0.3457 -0.5829
  128OSM    H8F13778   5.087   6.335   7.366 -0.7036 -2.4097 -2.0667
  128OSM    H8G13779   5.227   6.403   7.280 -2.2201  1.4346 -1.3454
  128OSM    C9F13780   5.278   6.234   7.415 -0.6410 -0.0351 -0.6006
  128OSM    H9F13781   5.340   6.154   7.373 -1.9236 -1.7497  0.5739
  128OSM   C10F13782   5.288   6.235   7.550 -1.0091 -0.5191 -0.2102
  128OSM   H10F13783   5.366   6.175   7.599 -0.0371  2.1975  1.8022
  128OSM   C11F13784   5.200   6.331   7.636 -0.3611  0.1123 -0.1245
  128OSM   H11F13785   5.157   6.280   7.725 -2.6852  0.3249 -1.0557
  128OSM   H11G13786   5.118   6.360   7.567  0.1290  0.3395 -0.6183
  128OSM   C12F13787   5.269   6.457   7.692 -0.1312  0.2384  0.6982
  128OSM   H12F13788   5.195   6.538   7.712  0.1098  1.7568 -3.4512
  128OSM   H12G13789   5.314   6.496   7.598 -1.6954  0.2204 -0.0859
  128OSM   C13F13790   5.369   6.433   7.811 -0.8409 -0.2713 -0.1165
  128OSM   H13F13791   5.436   6.521   7.808 -0.1281 -0.8243 -2.7600
  128OSM   H13G13792   5.426   6.342   7.784 -0.8404  0.6960 -3.9614
  128OSM   C14F13793   5.309   6.435   7.954 -0.2836  0.0719  0.3530
  128OSM   H14F13794   5.235   6.353   7.950 -2.2446  1.7993 -2.1750
  128OSM   H14G13795   5.244   6.525   7.966  0.6172  1.0752 -1.8153
  128OSM   C15F13796   5.416   6.403   8.058  0.4621 -0.4120 -0.2826
  128OSM   H15F13797   5.505   6.468   8.050  0.4052 -0.5049 -2.2093
  128OSM   H15G13798   5.462   6.303   8.048  2.8481  0.4145  1.6926
  128OSM   C16F13799   5.369   6.432   8.197  0.4924 -0.9611 -0.4404
  128OSM   H16F13800   5.277   6.371   8.214 -1.3651  1.7054 -0.2601
  128OSM   H16G13801   5.325   6.534   8.202 -1.2711 -1.5493 -2.3186
  128OSM   C17F13802   5.475   6.405   8.297 -0.9361 -0.6189  0.3004
  128OSM   H17F13803   5.559   6.472   8.266 -2.9593  2.2620  0.6077
  128OSM   H17G13804   5.506   6.299   8.303 -0.9446 -0.5596  2.6389
  128OSM   C18F13805   5.417   6.435   8.436  0.2211 -0.0553 -0.6142
  128OSM   H18F13806   5.313   6.395   8.442  0.2837 -0.4364 -1.9291
  128OSM   H18G13807   5.407   6.546   8.437  2.1112  0.1452 -1.5914
  128OSM   H18H13808   5.482   6.401   8.519 -0.6190  0.0990  0.1306
  129OSM      N13809   3.655   2.268   6.227  0.5610 -0.1056  0.2130
  129OSM    C1513810   3.698   2.208   6.099 -0.6613 -0.5345 -0.2134
  129OSM   H15A13811   3.805   2.204   6.087 -0.6604 -2.5823  0.1046
  129OSM   H15B13812   3.649   2.259   6.018 -1.5538 -1.8679 -0.5466
  129OSM   H15C13813   3.670   2.104   6.095  0.7685 -0.9102 -2.1163
  129OSM    C1413814   3.682   2.417   6.220  0.9725 -0.2927 -0.3424
  129OSM   H14A13815   3.782   2.432   6.182  1.4160 -1.6333  0.2794
  129OSM   H14B13816   3.669   2.454   6.320 -1.9449  1.5283 -1.2589
  129OSM   H14C13817   3.611   2.463   6.153 -0.1760  1.6353  2.0253
  129OSM    C1313818   3.509   2.257   6.239  0.2268 -1.1695  0.6552
  129OSM   H13A13819   3.461   2.283   6.332 -2.1692 -0.1996 -0.7550
  129OSM   H13B13820   3.482   2.154   6.222 -2.9785 -0.7906  2.7271
  129OSM   H13C13821   3.458   2.311   6.160  0.1805 -0.0199  1.4542
  129OSM    C1213822   3.724   2.215   6.352 -0.3825 -0.9307  0.0359
  129OSM   H12A13823   3.825   2.182   6.335  0.5425  0.8445  1.6369
  129OSM   H12B13824   3.668   2.133   6.395 -0.1147 -0.5537  1.1337
  129OSM    C1113825   3.748   2.303   6.479 -0.5784 -0.2504  0.1431
  129OSM   H11A13826   3.791   2.233   6.553  0.2011 -2.3125 -2.1419
  129OSM   H11B13827   3.649   2.344   6.507  0.0968  1.3597  0.3114
  129OSM      P13828   4.003   2.380   6.444  0.1160 -0.3101  0.3476
  129OSM    O1313829   4.024   2.255   6.372 -0.2423 -0.2830 -0.3233
  129OSM    O1413830   4.061   2.504   6.390  0.0180  0.4906  0.4233
  129OSM    O1113831   4.047   2.363   6.594  0.6113 -0.3304 -0.3280
  129OSM    O1213832   3.844   2.411   6.458 -0.5754 -0.5292 -1.0767
  129OSM    C1S13833   4.168   2.283   6.620  0.1357 -0.5945 -0.0779
  129OSM    H1S13834   4.256   2.346   6.594  0.7550 -1.3985  0.0222
  129OSM    H1T13835   4.180   2.195   6.553  1.5263  0.3269 -1.1232
  129OSM     NF13836   4.308   2.159   6.770  1.3767 -0.3235 -0.2839
  129OSM    HNF13837   4.309   2.062   6.745 -1.0987 -0.5985  0.3758
  129OSM    C2S13838   4.174   2.224   6.764 -0.6553  0.0012  0.3612
  129OSM    H2S13839   4.158   2.303   6.840 -1.0454  2.3688 -2.0351
  129OSM    C3S13840   4.063   2.118   6.784  0.6475  0.2883 -0.2038
  129OSM    H3S13841   4.074   2.045   6.701 -0.9850  1.6094 -1.6871
  129OSM     O313842   3.934   2.179   6.767  0.3938  0.6494  0.4447
  129OSM    HO313843   3.946   2.263   6.722 -0.7562 -0.0702 -1.2863
  129OSM    C4S13844   4.080   2.049   6.915  0.1096 -0.2718  0.1228
  129OSM    H4S13845   4.161   1.975   6.919  3.5533  3.2384  1.9876
  129OSM    C5S13846   4.028   2.085   7.031 -0.2768 -0.0896  0.5891
  129OSM    H5S13847   3.957   2.169   7.029  0.6135  0.6650  0.3710
  129OSM    C6S13848   4.060   2.022   7.165  0.5445  0.2699  0.0735
  129OSM    H6S13849   4.121   1.929   7.164  0.4095  0.1738  0.4631
  129OSM    H6T13850   3.961   1.988   7.203  1.1368  1.1489  2.6278
  129OSM    C7S13851   4.135   2.120   7.254  0.2698 -0.0825  0.1137
  129OSM    H7S13852   4.139   2.088   7.360  0.7923 -1.8092 -0.3831
  129OSM    H7T13853   4.076   2.214   7.253 -0.2752 -0.2769 -4.0806
  129OSM    C8S13854   4.272   2.142   7.203 -0.2115 -0.7662  0.6567
  129OSM    H8S13855   4.267   2.172   7.097 -2.0820 -0.1866  0.8737
  129OSM    H8T13856   4.335   2.052   7.220 -0.4029 -1.3974 -1.7277
  129OSM    C9S13857   4.339   2.269   7.273 -0.1177  0.1908 -0.7713
  129OSM    H9S13858   4.287   2.362   7.241 -2.4133 -0.8727 -0.3211
  129OSM    H9T13859   4.441   2.271   7.228  0.5374 -2.7748  0.3355
  129OSM   C10S13860   4.329   2.256   7.432  0.6159  0.2624 -0.6627
  129OSM   H10S13861   4.365   2.154   7.456 -1.4326 -0.5643 -0.8629
  129OSM   H10T13862   4.220   2.258   7.457  0.4343  1.6897 -1.4980
  129OSM   C11S13863   4.391   2.376   7.503 -0.4754 -0.5923  0.4295
  129OSM   H11S13864   4.335   2.465   7.467 -0.2634 -1.1273 -1.3147
  129OSM   H11T13865   4.501   2.388   7.490 -0.6339 -0.2228 -0.6711
  129OSM   C12S13866   4.378   2.358   7.655  0.6833  0.5919  0.5626
  129OSM   H12S13867   4.411   2.256   7.682 -0.5240  0.3169  1.0789
  129OSM   H12T13868   4.270   2.365   7.683 -0.1578  2.5508 -2.5581
  129OSM   C13S13869   4.456   2.466   7.724 -0.7749  0.3205  0.3269
  129OSM   H13S13870   4.411   2.558   7.681  0.0167 -0.1036 -1.5237
  129OSM   H13T13871   4.562   2.461   7.691 -1.0766  0.4229 -0.6972
  129OSM   C14S13872   4.434   2.469   7.870  0.6265  0.5746  0.4856
  129OSM   H14S13873   4.434   2.365   7.910  1.3279 -1.1083 -3.4335
  129OSM   H14T13874   4.331   2.509   7.885  0.6840  1.4748 -1.2484
  129OSM   C15S13875   4.543   2.550   7.948  0.0587  0.8602  0.4188
  129OSM   H15S13876   4.572   2.644   7.896  0.8818  1.0114  1.1305
  129OSM   H15T13877   4.636   2.492   7.931 -1.3996 -0.9256 -2.1110
  129OSM   C16S13878   4.520   2.569   8.091  0.0159 -0.2615  0.6783
  129OSM   H16S13879   4.502   2.467   8.129  0.6428 -0.5321  0.2613
  129OSM   H16T13880   4.430   2.634   8.101  0.1203 -0.0301  0.1682
  129OSM   C17S13881   4.644   2.623   8.167 -0.3912  0.9160 -0.0067
  129OSM   H17S13882   4.678   2.717   8.119  1.3514 -0.2584 -1.1837
  129OSM   H17T13883   4.730   2.553   8.164 -0.1150  1.2717 -0.4919
  129OSM   C18S13884   4.615   2.652   8.315 -0.2850 -0.0897 -0.4599
  129OSM   H18S13885   4.570   2.570   8.375  1.7954 -0.4678  0.6767
  129OSM   H18T13886   4.552   2.743   8.317 -1.4612 -0.9076  1.0539
  129OSM   H18U13887   4.706   2.670   8.377 -2.1143  1.2086  1.9819
  129OSM    C1F13888   4.422   2.225   6.781  0.9110  0.3671  0.1211
  129OSM     OF13889   4.420   2.346   6.790  0.0522  0.0334  0.1916
  129OSM    C2F13890   4.545   2.140   6.790 -0.6200 -0.1914 -0.4983
  129OSM    H2F13891   4.597   2.166   6.696  1.5630 -1.2391  0.3506
  129OSM    H2G13892   4.520   2.032   6.778 -0.0508 -0.3593 -0.1832
  129OSM    C3F13893   4.632   2.172   6.919  0.3104 -0.2106 -0.0128
  129OSM    H3F13894   4.562   2.157   7.004 -0.6637 -1.1001 -0.9318
  129OSM    H3G13895   4.668   2.277   6.920 -0.3707  0.0209  1.1792
  129OSM    C4F13896   4.750   2.075   6.935 -0.6295 -0.8118 -0.5190
  129OSM    H4F13897   4.811   2.081   6.842 -0.0893 -1.8554 -0.2424
  129OSM    H4G13898   4.720   1.969   6.947 -2.1330 -0.1512  2.6590
  129OSM    C5F13899   4.841   2.108   7.060 -0.6177 -0.4084 -0.4785
  129OSM    H5F13900   4.865   2.217   7.063  3.3889 -1.1348 -0.2836
  129OSM    H5G13901   4.938   2.055   7.046  0.0755  1.2616 -2.6076
  129OSM    C6F13902   4.780   2.068   7.191 -0.2936  0.3641 -0.1592
  129OSM    H6F13903   4.835   1.979   7.227  0.8625 -0.1966 -3.0129
  129OSM    H6G13904   4.676   2.032   7.174  0.1214 -1.2084  0.4364
  129OSM    C7F13905   4.773   2.183   7.292 -0.0828  0.4384 -0.7574
  129OSM    H7F13906   4.699   2.250   7.244 -1.9170 -1.1304 -0.2388
  129OSM    H7G13907   4.877   2.222   7.300  0.0008  0.0418  0.2600
  129OSM    C8F13908   4.701   2.145   7.426 -0.5418 -0.0158  0.1520
  129OSM    H8F13909   4.605   2.091   7.413 -0.8197 -0.2082  2.5404
  129OSM    H8G13910   4.689   2.246   7.470  0.4142  0.3180 -0.3105
  129OSM    C9F13911   4.798   2.067   7.504 -0.0124  0.5458 -0.0192
  129OSM    H9F13912   4.848   1.975   7.470  3.1343  1.6555  1.1869
  129OSM   C10F13913   4.817   2.082   7.636 -0.3841 -0.3943  0.0012
  129OSM   H10F13914   4.891   2.022   7.692 -0.4134  0.0618  0.5340
  129OSM   C11F13915   4.757   2.189   7.725  0.0220  0.3653  0.7563
  129OSM   H11F13916   4.682   2.262   7.687 -0.0186  0.7482  1.5683
  129OSM   H11G13917   4.836   2.244   7.781 -0.1767 -0.9212  2.3679
  129OSM   C12F13918   4.682   2.125   7.845 -0.1380 -0.0843 -0.1871
  129OSM   H12F13919   4.579   2.107   7.809 -0.1125  0.6265 -0.6315
  129OSM   H12G13920   4.679   2.214   7.911  2.9405  1.1983 -1.5794
  129OSM   C13F13921   4.743   2.000   7.918  0.4196  0.7275  0.1738
  129OSM   H13F13922   4.782   1.920   7.852  0.3394 -0.1765  1.1999
  129OSM   H13G13923   4.678   1.944   7.988  0.4391  1.0239  0.4330
  129OSM   C14F13924   4.860   2.044   8.004 -0.0971 -0.1886 -0.4420
  129OSM   H14F13925   4.935   2.102   7.947  1.6076 -1.3555  0.5113
  129OSM   H14G13926   4.905   1.951   8.046 -0.3189  0.0977  0.4704
  129OSM   C15F13927   4.832   2.127   8.126  0.0195  0.5816  0.3880
  129OSM   H15F13928   4.759   2.071   8.190 -0.2782  0.7418  0.1882
  129OSM   H15G13929   4.794   2.225   8.091 -0.9759 -0.0346 -0.3139
  129OSM   C16F13930   4.960   2.158   8.207 -0.6461 -0.6631  0.2245
  129OSM   H16F13931   5.040   2.206   8.148  1.2141 -1.1656  2.2230
  129OSM   H16G13932   4.999   2.062   8.246 -1.1896 -1.5081 -1.2341
  129OSM   C17F13933   4.925   2.252   8.323  0.1628  0.4381  0.1306
  129OSM   H17F13934   4.881   2.344   8.278  0.9891 -1.5492 -5.5329
  129OSM   H17G13935   5.018   2.288   8.373  0.1406 -1.3248  1.5339
  129OSM   C18F13936   4.840   2.186   8.432 -0.4007 -0.5302  0.2484
  129OSM   H18F13937   4.886   2.099   8.484 -0.1275 -0.2519  0.4783
  129OSM   H18G13938   4.737   2.156   8.403  0.3326 -1.3016 -1.6831
  129OSM   H18H13939   4.834   2.263   8.512  3.1932  0.3268 -0.1679
  130OSM      N13940   0.171   5.722   6.446  0.0689  0.1879  0.1393
  130OSM    C1513941   0.267   5.608   6.417  0.5746  0.2000 -0.1542
  130OSM   H15A13942   0.334   5.596   6.500  0.7096 -0.6616 -0.3785
  130OSM   H15B13943   0.322   5.622   6.325 -0.2558  2.3309 -0.3859
  130OSM   H15C13944   0.212   5.516   6.406  1.1227 -0.2524  0.7977
  130OSM    C1413945   0.077   5.734   6.333 -0.1049 -0.1736 -0.2644
  130OSM   H14A13946   0.052   5.838   6.317  1.1439  0.4611  1.5224
  130OSM   H14B13947  -0.010   5.671   6.345  1.3019 -2.2493 -0.5734
  130OSM   H14C13948   0.123   5.702   6.241 -0.9201  2.5789 -1.7517
  130OSM    C1313949   0.086   5.703   6.567  0.2714  0.0998 -0.2417
  130OSM   H13A13950   0.023   5.615   6.561  1.0476 -0.7176  2.1938
  130OSM   H13B13951   0.029   5.790   6.596  0.0108  0.2421 -1.1528
  130OSM   H13C13952   0.160   5.692   6.645  0.5240  2.1829 -0.1435
  130OSM    C1213953   0.252   5.852   6.458  0.3079 -0.2582 -0.5821
  130OSM   H12A13954   0.336   5.828   6.522 -0.8842 -1.0247  0.7689
  130OSM   H12B13955   0.191   5.924   6.510 -0.8281 -1.4476 -0.1808
  130OSM    C1113956   0.315   5.908   6.321 -0.2556 -0.2225 -0.6334
  130OSM   H11A13957   0.378   5.821   6.292 -0.4004  0.0006 -1.6567
  130OSM   H11B13958   0.385   5.990   6.348  0.0251  0.3501 -2.9397
  130OSM      P13959   0.146   6.079   6.209 -0.2034 -0.4544  0.3227
  130OSM    O1313960   0.230   6.185   6.146  0.3455  0.1329  0.2079
  130OSM    O1413961   0.021   6.047   6.146  0.0744 -0.1228 -0.1155
  130OSM    O1113962   0.127   6.133   6.359  0.8169 -0.0382  0.0310
  130OSM    O1213963   0.223   5.944   6.218  0.4761 -0.6350  0.1367
  130OSM    C1S13964   0.011   6.100   6.437 -0.1246 -0.1414 -0.0456
  130OSM    H1S13965   0.017   5.995   6.473 -0.3550  0.2620  1.2194
  130OSM    H1T13966  -0.081   6.115   6.377  0.8550  1.8202 -1.1669
  130OSM     NF13967  -0.076   6.112   6.670 -0.7508 -0.4129  0.4858
  130OSM    HNF13968  -0.170   6.141   6.689 -0.4251  0.4780  0.7881
  130OSM    C2S13969   0.005   6.191   6.565 -0.0206  0.1688  0.4868
  130OSM    H2S13970   0.111   6.202   6.596 -0.2974 -0.7234  1.8319
  130OSM    C3S13971  -0.060   6.320   6.522 -0.0028  0.5562 -0.1684
  130OSM    H3S13972  -0.167   6.295   6.505  0.2504  0.1207 -1.2168
  130OSM     O313973  -0.000   6.385   6.408 -0.3625  0.2856  0.1198
  130OSM    HO313974   0.071   6.326   6.383  0.6034  2.1603 -1.9856
  130OSM    C4S13975  -0.048   6.417   6.641 -0.9599 -0.2204 -0.5950
  130OSM    H4S13976  -0.139   6.408   6.702 -0.3396 -0.9230  0.2367
  130OSM    C5S13977   0.058   6.498   6.674  0.5265  0.0930  0.2566
  130OSM    H5S13978   0.142   6.484   6.605 -0.0479 -0.6249 -0.3076
  130OSM    C6S13979   0.074   6.591   6.789 -0.5639  0.2504  0.2485
  130OSM    H6S13980  -0.010   6.570   6.859 -0.7908 -1.4816 -0.5047
  130OSM    H6T13981   0.064   6.698   6.762 -0.4610  0.6150  1.5808
  130OSM    C7S13982   0.216   6.573   6.859  0.0363 -0.2812  0.0369
  130OSM    H7S13983   0.298   6.615   6.797  1.2637  0.0644  1.8480
  130OSM    H7T13984   0.231   6.468   6.892 -0.5798 -0.0673  1.0373
  130OSM    C8S13985   0.219   6.667   6.982 -0.0550 -0.0305 -0.2791
  130OSM    H8S13986   0.144   6.626   7.053  1.4979  0.6291  1.8677
  130OSM    H8T13987   0.194   6.771   6.954 -2.4689 -0.4093  0.2949
  130OSM    C9S13988   0.353   6.647   7.062  0.4875 -0.5635 -0.2892
  130OSM    H9S13989   0.411   6.739   7.042 -0.7616 -0.1772 -2.3786
  130OSM    H9T13990   0.411   6.560   7.025  0.1832 -0.0593 -2.0233
  130OSM   C10S13991   0.325   6.632   7.215  0.6570  0.6858  0.1452
  130OSM   H10S13992   0.261   6.544   7.241  1.4157  0.2541  0.5624
  130OSM   H10T13993   0.269   6.722   7.247  1.1132  1.1167 -0.2600
  130OSM   C11S13994   0.457   6.626   7.292  0.6757  0.1699 -0.9348
  130OSM   H11S13995   0.525   6.710   7.267 -0.5721  1.8689  1.0551
  130OSM   H11T13996   0.506   6.532   7.258  0.9043 -0.2424  0.4726
  130OSM   C12S13997   0.447   6.621   7.443  0.8326 -0.3062 -0.4499
  130OSM   H12S13998   0.382   6.535   7.470  1.1239 -0.2753  0.3901
  130OSM   H12T13999   0.407   6.719   7.477  0.6949 -0.8667  1.0676
  130OSM   C13S14000   0.576   6.608   7.523 -0.1481  0.3818 -0.5339
  130OSM   H13S14001   0.659   6.671   7.484 -0.0038 -0.3343 -1.4033
  130OSM   H13T14002   0.616   6.505   7.514 -0.6486  0.3369 -2.6867
  130OSM   C14S14003   0.559   6.635   7.668  0.4212  0.8276  0.1841
  130OSM   H14S14004   0.481   6.566   7.708  1.3373 -0.5420 -0.3308
  130OSM   H14T14005   0.506   6.732   7.673 -3.4050 -0.9622 -1.9234
  130OSM   C15S14006   0.685   6.617   7.749 -0.2629 -0.0948 -0.6014
  130OSM   H15S14007   0.778   6.668   7.717  0.1217 -0.0846  0.5010
  130OSM   H15T14008   0.715   6.511   7.763 -1.4987 -0.1830  1.8917
  130OSM   C16S14009   0.659   6.654   7.899  0.2550  0.0647  0.0117
  130OSM   H16S14010   0.593   6.578   7.945 -2.6725  0.8467 -2.5462
  130OSM   H16T14011   0.598   6.747   7.899 -1.8458 -1.2410 -0.4531
  130OSM   C17S14012   0.788   6.669   7.971 -0.0586  0.2770 -0.1143
  130OSM   H17S14013   0.849   6.744   7.916  0.7018 -0.0941  0.1986
  130OSM   H17T14014   0.841   6.572   7.976 -2.7276 -1.2506  0.3365
  130OSM   C18S14015   0.769   6.712   8.112  0.1148 -0.6982  0.2353
  130OSM   H18S14016   0.865   6.733   8.165  0.0963 -2.5573  1.0983
  130OSM   H18T14017   0.707   6.653   8.182  0.1393 -0.2681  0.6292
  130OSM   H18U14018   0.726   6.813   8.096  3.1436  0.4245 -1.7665
  130OSM    C1F14019  -0.032   6.015   6.739 -0.6727 -0.1042  0.4390
  130OSM     OF14020   0.073   5.953   6.712 -0.1237 -0.8545 -0.0693
  130OSM    C2F14021  -0.123   5.953   6.840  0.2739 -1.0447  0.2933
  130OSM    H2F14022  -0.127   5.844   6.818 -2.2438 -1.0799  0.6561
  130OSM    H2G14023  -0.225   5.988   6.814 -0.0262 -1.0100  1.4726
  130OSM    C3F14024  -0.086   5.992   6.987  0.1217 -1.0096 -0.4892
  130OSM    H3F14025   0.018   5.959   7.006  0.4136 -0.5780 -1.3157
  130OSM    H3G14026  -0.162   5.936   7.046  0.1842  0.5139  1.0973
  130OSM    C4F14027  -0.095   6.142   7.021 -0.2303 -0.2247  0.1249
  130OSM    H4F14028  -0.176   6.197   6.968 -1.4828 -0.9973  1.1851
  130OSM    H4G14029  -0.006   6.203   6.993 -0.1648  1.0939  2.8734
  130OSM    C5F14030  -0.111   6.155   7.180  0.4056  1.4921 -0.3851
  130OSM    H5F14031  -0.031   6.088   7.218 -0.6247 -0.6444 -1.7846
  130OSM    H5G14032  -0.205   6.102   7.206  0.8153  0.3444 -1.1442
  130OSM    C6F14033  -0.100   6.294   7.238  0.2513  0.6016 -0.0923
  130OSM    H6F14034  -0.173   6.362   7.188 -0.9376  0.0952  0.8996
  130OSM    H6G14035  -0.002   6.346   7.224  0.3187  0.8271  1.1074
  130OSM    C7F14036  -0.143   6.297   7.391  1.5672  0.0746  0.2783
  130OSM    H7F14037  -0.078   6.222   7.441  2.0450 -0.8474 -1.5971
  130OSM    H7G14038  -0.246   6.258   7.380  1.4567  0.5695 -0.5523
  130OSM    C8F14039  -0.145   6.429   7.457  0.4388 -1.2024  0.0502
  130OSM    H8F14040  -0.175   6.408   7.562  2.3659 -0.6758  0.7483
  130OSM    H8G14041  -0.227   6.481   7.403  2.7263  1.8985 -0.6866
  130OSM    C9F14042  -0.013   6.503   7.460  0.3051  0.2990  0.0633
  130OSM    H9F14043   0.061   6.461   7.390 -0.6578 -0.6809 -0.4076
  130OSM   C10F14044   0.031   6.604   7.542  0.4849 -0.3977  0.1970
  130OSM   H10F14045   0.133   6.638   7.518  0.7178 -1.7575 -0.9244
  130OSM   C11F14046  -0.031   6.676   7.664  0.8269 -0.2360 -0.3432
  130OSM   H11F14047  -0.128   6.628   7.691  0.8109 -0.3967 -0.6889
  130OSM   H11G14048  -0.055   6.783   7.648 -1.3733 -0.8498 -1.5668
  130OSM   C12F14049   0.064   6.653   7.780 -0.7998 -0.2688  0.5119
  130OSM   H12F14050   0.095   6.546   7.787  0.1149  0.0151  0.9571
  130OSM   H12G14051   0.015   6.679   7.877 -2.2337 -2.9776  0.6042
  130OSM   C13F14052   0.187   6.747   7.786 -0.3110 -0.3078  0.4353
  130OSM   H13F14053   0.149   6.850   7.797  0.6123  0.0958 -0.0295
  130OSM   H13G14054   0.250   6.745   7.695  1.1843  0.2289  1.4033
  130OSM   C14F14055   0.289   6.724   7.899  0.0504 -0.1634  0.7709
  130OSM   H14F14056   0.388   6.760   7.864 -1.0420 -0.1316 -2.7014
  130OSM   H14G14057   0.295   6.613   7.899  0.3762 -0.1484  0.0896
  130OSM   C15F14058   0.234   6.769   8.037 -0.1422  0.1550  0.0276
  130OSM   H15F14059   0.138   6.716   8.058 -0.1220  0.3554  0.6720
  130OSM   H15G14060   0.221   6.880   8.044  1.5653  0.3650  0.1859
  130OSM   C16F14061   0.337   6.741   8.152  0.0602 -0.2843  0.2076
  130OSM   H16F14062   0.433   6.796   8.140  0.1303  0.1807  2.4794
  130OSM   H16G14063   0.366   6.634   8.148  0.9780 -0.0416  0.1988
  130OSM   C17F14064   0.272   6.791   8.284  0.1509  0.8767  0.1091
  130OSM   H17F14065   0.224   6.887   8.254 -1.8613 -0.5558 -1.5980
  130OSM   H17G14066   0.346   6.808   8.364 -0.5244 -2.3329  1.5661
  130OSM   C18F14067   0.169   6.691   8.338 -0.4550  0.3963 -0.0127
  130OSM   H18F14068   0.215   6.590   8.339  2.4864  1.6185 -0.5931
  130OSM   H18G14069   0.083   6.695   8.268 -0.8716  2.1074  0.5658
  130OSM   H18H14070   0.141   6.721   8.441  2.1563  0.5304  0.7170
  131OSM      N14071   3.567   0.358   5.720 -0.1294 -0.0331  0.0705
  131OSM    C1514072   3.701   0.401   5.657 -0.4725  0.1585 -0.2396
  131OSM   H15A14073   3.729   0.504   5.677  1.7645 -0.4993  0.3901
  131OSM   H15B14074   3.705   0.366   5.555 -0.6658 -0.5547 -0.0067
  131OSM   H15C14075   3.788   0.350   5.696  0.3525  0.8867 -1.0754
  131OSM    C1414076   3.454   0.444   5.667  0.2374  0.0807  0.7723
  131OSM   H14A14077   3.476   0.443   5.561 -2.1081 -1.0863  0.2430
  131OSM   H14B14078   3.464   0.543   5.709  3.3313  0.7306 -1.1752
  131OSM   H14C14079   3.358   0.404   5.696  0.2960  0.4036  1.4206
  131OSM    C1314080   3.525   0.219   5.678  0.3694 -0.3114 -0.2638
  131OSM   H13A14081   3.423   0.201   5.710  1.3310 -1.2802  2.5232
  131OSM   H13B14082   3.591   0.142   5.715  0.6856 -0.1613 -0.5124
  131OSM   H13C14083   3.526   0.218   5.570  1.5528 -0.3643 -0.2555
  131OSM    C1214084   3.572   0.364   5.874 -0.2666  0.7175  0.6809
  131OSM   H12A14085   3.625   0.281   5.918 -0.0346  0.8802  0.7112
  131OSM   H12B14086   3.470   0.353   5.908 -0.2247  1.9923  1.2741
  131OSM    C1114087   3.608   0.500   5.940  0.1366  0.0435 -0.3509
  131OSM   H11A14088   3.714   0.517   5.913  0.4470 -0.4639  0.5126
  131OSM   H11B14089   3.591   0.472   6.046 -1.0003  0.2106 -0.4771
  131OSM      P14090   3.586   0.739   5.838  0.2349 -0.6670  0.0255
  131OSM    O1314091   3.722   0.716   5.783  0.4685  0.0661  0.2565
  131OSM    O1414092   3.478   0.783   5.747  0.3198  0.5927  0.3174
  131OSM    O1114093   3.590   0.846   5.958  0.1829 -0.2105 -0.4058
  131OSM    O1214094   3.526   0.609   5.906 -0.2174 -0.2331 -0.0218
  131OSM    C1S14095   3.526   0.811   6.084  0.1898  0.3545 -0.1425
  131OSM    H1S14096   3.429   0.762   6.066 -0.0005  1.1463 -1.3890
  131OSM    H1T14097   3.498   0.909   6.129 -1.1112  0.0884 -0.3488
  131OSM     NF14098   3.536   0.730   6.313  0.0530  0.2259  0.9367
  131OSM    HNF14099   3.550   0.807   6.375 -0.3305 -1.3463  3.0692
  131OSM    C2S14100   3.609   0.729   6.192 -0.0738 -0.7172  0.0051
  131OSM    H2S14101   3.622   0.623   6.162  2.1923 -1.2014  2.3497
  131OSM    C3S14102   3.751   0.794   6.209  0.2034  0.1793  0.1143
  131OSM    H3S14103   3.740   0.892   6.260  1.7789 -0.4477  1.7729
  131OSM     O314104   3.815   0.818   6.083  0.4983  0.2154  0.7765
  131OSM    HO314105   3.746   0.798   6.019 -0.0698  2.0810  0.7566
  131OSM    C4S14106   3.840   0.706   6.295 -0.6747  0.1378  0.5186
  131OSM    H4S14107   3.885   0.620   6.244 -1.5640 -0.2159  0.3344
  131OSM    C5S14108   3.874   0.733   6.423 -0.1129  0.3609 -0.0164
  131OSM    H5S14109   3.838   0.825   6.472 -0.2933 -0.3474  1.2417
  131OSM    C6S14110   3.955   0.642   6.512 -0.1397 -0.1972  1.0842
  131OSM    H6S14111   4.061   0.674   6.520 -0.5591  1.1019  1.8133
  131OSM    H6T14112   3.946   0.540   6.468  1.4467  0.2322 -0.3283
  131OSM    C7S14113   3.910   0.622   6.659  0.3086 -0.9570  0.2082
  131OSM    H7S14114   3.969   0.556   6.725 -0.3064 -0.3770  1.3682
  131OSM    H7T14115   3.805   0.586   6.666 -0.3713  1.1496  2.0790
  131OSM    C8S14116   3.903   0.762   6.728 -0.2595 -0.4718 -0.1131
  131OSM    H8S14117   3.828   0.813   6.664 -2.8483 -3.1503  0.5910
  131OSM    H8T14118   4.004   0.806   6.717 -0.8201  0.5337 -1.5882
  131OSM    C9S14119   3.866   0.763   6.876 -0.9792 -0.6572  0.4952
  131OSM    H9S14120   3.871   0.867   6.915 -1.2598 -1.1461  1.9174
  131OSM    H9T14121   3.932   0.693   6.933 -0.1388  1.5497  2.3748
  131OSM   C10S14122   3.721   0.731   6.903  0.4469 -0.4818  0.5530
  131OSM   H10S14123   3.703   0.626   6.869 -1.2422 -0.3761  1.0274
  131OSM   H10T14124   3.644   0.798   6.860  1.6527 -0.6252 -2.0347
  131OSM   C11S14125   3.686   0.738   7.053 -0.0259 -0.3591 -0.4642
  131OSM   H11S14126   3.579   0.710   7.061 -0.7488  1.9287 -1.4534
  131OSM   H11T14127   3.703   0.843   7.082  2.5874 -0.6011 -0.8958
  131OSM   C12S14128   3.776   0.655   7.147 -0.1474  0.6118  0.2023
  131OSM   H12S14129   3.840   0.580   7.095 -3.0453 -2.9100  1.2823
  131OSM   H12T14130   3.713   0.596   7.217  1.1913  0.7092  1.5387
  131OSM   C13S14131   3.868   0.747   7.232 -0.3842  0.2516 -0.4108
  131OSM   H13S14132   3.798   0.809   7.293 -1.8042 -1.6247 -0.0534
  131OSM   H13T14133   3.933   0.816   7.174  1.2712  0.6705  1.8127
  131OSM   C14S14134   3.949   0.651   7.320 -0.0727 -0.1855 -0.2678
  131OSM   H14S14135   4.009   0.596   7.245 -1.9710 -0.5179 -1.6221
  131OSM   H14T14136   3.876   0.577   7.362 -0.2515 -0.8138 -1.6232
  131OSM   C15S14137   4.027   0.725   7.427  0.1851  0.4936  0.1365
  131OSM   H15S14138   3.949   0.764   7.495 -2.0612 -0.3756 -1.7781
  131OSM   H15T14139   4.076   0.810   7.375 -0.5097  0.6835 -0.2328
  131OSM   C16S14140   4.135   0.647   7.504 -0.2527  0.8134 -0.6907
  131OSM   H16S14141   4.172   0.724   7.575 -1.2021  0.4911  0.1790
  131OSM   H16T14142   4.219   0.618   7.436  0.1961  3.5972 -1.4504
  131OSM   C17S14143   4.084   0.512   7.569 -0.2149  0.0087 -0.6525
  131OSM   H17S14144   4.068   0.441   7.485  1.2588 -1.4209  0.2328
  131OSM   H17T14145   3.990   0.537   7.622  0.7009 -2.8155  2.5916
  131OSM   C18S14146   4.178   0.442   7.668 -0.0675  0.4415 -0.0297
  131OSM   H18S14147   4.156   0.333   7.676  2.8540 -0.5721 -3.1840
  131OSM   H18T14148   4.188   0.482   7.771 -0.5463 -1.1889  0.6893
  131OSM   H18U14149   4.283   0.440   7.632  0.2652  1.3148  0.8552
  131OSM    C1F14150   3.421   0.670   6.325  0.0680  0.2852 -0.3128
  131OSM     OF14151   3.372   0.583   6.252 -0.2317 -0.0840 -0.2990
  131OSM    C2F14152   3.343   0.703   6.450  0.3388 -0.6327  0.1944
  131OSM    H2F14153   3.261   0.772   6.421 -0.7479 -0.6792  2.9069
  131OSM    H2G14154   3.408   0.759   6.519  0.4123 -1.5021  0.8528
  131OSM    C3F14155   3.286   0.578   6.516 -0.0755  0.0936 -0.2517
  131OSM    H3F14156   3.357   0.493   6.511 -0.5829 -0.5406  2.1189
  131OSM    H3G14157   3.201   0.548   6.451  1.0876 -1.3731 -1.1640
  131OSM    C4F14158   3.243   0.603   6.655 -0.1612 -0.1730 -0.1707
  131OSM    H4F14159   3.188   0.513   6.690 -1.3614  0.6246  0.0667
  131OSM    H4G14160   3.178   0.693   6.661 -1.0888 -0.9081  1.5493
  131OSM    C5F14161   3.363   0.637   6.753  0.2254 -0.1532  0.1306
  131OSM    H5F14162   3.413   0.725   6.707 -0.2302 -0.5186 -1.1241
  131OSM    H5G14163   3.432   0.550   6.759  0.8832  0.3869  0.4405
  131OSM    C6F14164   3.322   0.679   6.900 -0.5711  0.2424 -0.4644
  131OSM    H6F14165   3.418   0.684   6.956  2.0329 -3.8808 -3.8119
  131OSM    H6G14166   3.262   0.597   6.944  1.9455 -1.0349  0.7981
  131OSM    C7F14167   3.255   0.816   6.906  0.1407  0.4192 -0.0302
  131OSM    H7F14168   3.223   0.806   7.012 -0.2969  1.0975 -0.0902
  131OSM    H7G14169   3.167   0.825   6.838 -0.2680  0.3572  0.4824
  131OSM    C8F14170   3.353   0.928   6.880 -0.2327  0.5560  0.2289
  131OSM    H8F14171   3.381   0.951   6.775 -0.9258 -0.2478 -0.1459
  131OSM    H8G14172   3.451   0.891   6.918  0.5184  0.8786 -1.3200
  131OSM    C9F14173   3.313   1.052   6.955  0.7020 -0.1934 -0.4716
  131OSM    H9F14174   3.290   1.133   6.885  0.0809 -0.5768 -0.7267
  131OSM   C10F14175   3.305   1.064   7.087  0.0476 -0.3471 -0.1346
  131OSM   H10F14176   3.290   1.155   7.146 -0.9986 -2.4671  3.1951
  131OSM   C11F14177   3.345   0.948   7.177 -0.3073 -1.2775 -0.2864
  131OSM   H11F14178   3.430   0.888   7.137 -0.6158 -0.8748 -1.5729
  131OSM   H11G14179   3.257   0.885   7.200  0.9323 -2.9298  0.1508
  131OSM   C12F14180   3.387   1.006   7.319  0.3563 -0.2048 -0.0324
  131OSM   H12F14181   3.315   1.081   7.358  1.1026  1.2809 -1.3679
  131OSM   H12G14182   3.485   1.056   7.306  0.1434  0.3434  0.4195
  131OSM   C13F14183   3.398   0.896   7.425 -0.7620  0.6014  0.3513
  131OSM   H13F14184   3.298   0.849   7.433 -0.3345 -0.1506  1.6339
  131OSM   H13G14185   3.413   0.946   7.524  0.4733  0.0673  0.4528
  131OSM   C14F14186   3.514   0.791   7.411  0.1592  0.1118  0.3923
  131OSM   H14F14187   3.610   0.847   7.414 -0.9031  2.5305 -3.9083
  131OSM   H14G14188   3.507   0.751   7.308  1.5462  0.8239 -0.0053
  131OSM   C15F14189   3.516   0.684   7.520  0.3120 -0.1973  0.1766
  131OSM   H15F14190   3.542   0.592   7.464 -0.8049  1.2612 -2.9512
  131OSM   H15G14191   3.417   0.656   7.562  1.1882 -0.3758  2.2500
  131OSM   C16F14192   3.616   0.707   7.631 -0.2772 -0.4000 -0.5493
  131OSM   H16F14193   3.571   0.789   7.689 -2.7940 -1.6082 -0.6541
  131OSM   H16G14194   3.711   0.745   7.587  0.0229 -2.2119 -1.5658
  131OSM   C17F14195   3.661   0.590   7.708 -0.1914 -0.0298  0.0472
  131OSM   H17F14196   3.740   0.532   7.656 -0.9860  0.2534 -1.5212
  131OSM   H17G14197   3.572   0.528   7.736 -1.6249  1.7680 -0.3422
  131OSM   C18F14198   3.721   0.633   7.839 -0.7822  0.3058 -0.5920
  131OSM   H18F14199   3.735   0.551   7.914 -0.4465 -0.5254 -1.5348
  131OSM   H18G14200   3.650   0.707   7.881 -1.4203 -0.7360  0.2268
  131OSM   H18H14201   3.811   0.694   7.816 -0.9282  0.6036 -0.3719
  132OSM      N14202   5.596   3.434   6.476  0.3518  0.0115  0.0530
  132OSM    C1514203   5.678   3.552   6.442 -0.0381 -0.3978  0.3507
  132OSM   H15A14204   5.647   3.643   6.492  1.5498  1.1331 -1.2769
  132OSM   H15B14205   5.676   3.576   6.336  0.9710  1.8890  0.7961
  132OSM   H15C14206   5.779   3.521   6.460 -0.7365 -2.4093  1.0359
  132OSM    C1414207   5.657   3.310   6.406  0.5640 -0.3118 -0.1556
  132OSM   H14A14208   5.764   3.305   6.414  0.5244 -0.8770 -0.0025
  132OSM   H14B14209   5.635   3.315   6.300  1.2985  0.1288 -0.2966
  132OSM   H14C14210   5.616   3.217   6.440  1.6436 -1.6508 -2.3317
  132OSM    C1314211   5.613   3.424   6.622 -0.3868 -0.7436 -0.0469
  132OSM   H13A14212   5.547   3.363   6.682 -1.7847 -0.0040 -0.7867
  132OSM   H13B14213   5.584   3.520   6.664 -2.8981 -1.4657  0.0386
  132OSM   H13C14214   5.716   3.406   6.652  0.3115 -1.2154 -2.5409
  132OSM    C1214215   5.449   3.452   6.436 -0.2943  0.7341  0.2972
  132OSM   H12A14216   5.443   3.459   6.328  0.6594 -1.1135  0.0880
  132OSM   H12B14217   5.417   3.549   6.473 -1.8454  0.5411 -0.4727
  132OSM    C1114218   5.343   3.346   6.484  0.0877 -0.4918 -0.3346
  132OSM   H11A14219   5.242   3.385   6.461  0.0620 -0.1845  0.2763
  132OSM   H11B14220   5.347   3.343   6.595  1.8794 -0.8284 -0.3692
  132OSM      P14221   5.282   3.157   6.326  0.3007  0.2868 -0.1686
  132OSM    O1314222   5.266   3.259   6.216 -0.0603  0.1190 -0.0039
  132OSM    O1414223   5.325   3.023   6.294 -0.1985 -0.7705  0.6509
  132OSM    O1114224   5.150   3.147   6.401  0.1492  0.2485  0.2698
  132OSM    O1214225   5.376   3.212   6.437 -0.0655 -0.1682  0.0531
  132OSM    C1S14226   5.125   3.074   6.519  0.2062 -0.4621  0.2069
  132OSM    H1S14227   5.218   3.027   6.556 -0.2261 -1.6697 -0.2098
  132OSM    H1T14228   5.050   2.993   6.507 -0.0705 -0.3457  1.0973
  132OSM     NF14229   5.061   3.101   6.767 -0.0950 -0.7032 -0.3794
  132OSM    HNF14230   4.974   3.078   6.809 -0.5154  2.0286  0.4103
  132OSM    C2S14231   5.064   3.165   6.637 -0.5587 -0.1628 -0.5130
  132OSM    H2S14232   5.139   3.246   6.649  0.1818 -1.0072  0.8894
  132OSM    C3S14233   4.925   3.226   6.594 -0.3335  0.0576 -0.0591
  132OSM    H3S14234   4.854   3.141   6.605  0.8254 -1.2048 -1.8359
  132OSM     O314235   4.920   3.296   6.470 -0.0161 -0.0672 -0.5887
  132OSM    HO314236   5.007   3.283   6.431  0.4198 -0.1585  0.3905
  132OSM    C4S14237   4.886   3.334   6.693 -0.1915  0.2353 -0.6965
  132OSM    H4S14238   4.966   3.403   6.723 -2.3708  2.5575  0.1315
  132OSM    C5S14239   4.769   3.349   6.755  0.9309  0.9067 -0.2075
  132OSM    H5S14240   4.685   3.283   6.728  0.7486  0.6053  1.0311
  132OSM    C6S14241   4.743   3.454   6.863  0.1168 -0.3627  0.5308
  132OSM    H6S14242   4.703   3.401   6.951 -0.9792 -0.6180 -0.0986
  132OSM    H6T14243   4.666   3.527   6.829 -0.0092 -0.9019 -0.3668
  132OSM    C7S14244   4.861   3.541   6.906  0.0763 -0.4053 -0.5387
  132OSM    H7S14245   4.881   3.620   6.830  2.1148 -0.8699 -0.5572
  132OSM    H7T14246   4.952   3.484   6.936  0.7981  0.9169 -0.1388
  132OSM    C8S14247   4.818   3.624   7.033 -0.0310  0.1206  0.2686
  132OSM    H8S14248   4.730   3.689   7.011 -0.2506 -1.0462 -2.8687
  132OSM    H8T14249   4.903   3.691   7.058 -0.1382  0.6678 -0.7663
  132OSM    C9S14250   4.796   3.548   7.168  0.2177 -0.0168 -0.2112
  132OSM    H9S14251   4.887   3.488   7.187  0.7399 -0.5431 -3.7722
  132OSM    H9T14252   4.716   3.471   7.166  2.7858 -3.0697  2.7189
  132OSM   C10S14253   4.770   3.649   7.284  0.3241  0.7537 -0.0767
  132OSM   H10S14254   4.669   3.695   7.293  0.7644  2.0538 -1.5181
  132OSM   H10T14255   4.837   3.735   7.268  3.2833 -1.5061 -0.6141
  132OSM   C11S14256   4.812   3.584   7.416 -0.3312  0.4331  0.0053
  132OSM   H11S14257   4.910   3.532   7.404  1.2370  2.0865  3.8707
  132OSM   H11T14258   4.738   3.504   7.435 -0.5162  0.4273 -0.7274
  132OSM   C12S14259   4.806   3.666   7.545  0.4415  0.0846 -0.1532
  132OSM   H12S14260   4.702   3.685   7.578  0.1045 -1.9097  0.0083
  132OSM   H12T14261   4.853   3.763   7.517 -0.2777  0.6480  0.5221
  132OSM   C13S14262   4.885   3.594   7.665 -0.7368  0.8362  0.1925
  132OSM   H13S14263   4.982   3.555   7.629 -0.3078  1.8703  0.2009
  132OSM   H13T14264   4.824   3.503   7.686  0.5661 -0.5214 -1.5784
  132OSM   C14S14265   4.895   3.684   7.785  0.4667  0.2143 -0.1968
  132OSM   H14S14266   4.792   3.707   7.818  1.1550  1.6948  1.0373
  132OSM   H14T14267   4.944   3.781   7.762 -1.5071  0.9473 -1.5456
  132OSM   C15S14268   4.962   3.601   7.897 -0.0129  0.3369 -0.6786
  132OSM   H15S14269   5.070   3.594   7.872  0.2643  2.0835 -0.1076
  132OSM   H15T14270   4.928   3.495   7.890  0.4755  0.1574 -0.3784
  132OSM   C16S14271   4.933   3.660   8.038  0.2711 -0.5210 -0.0097
  132OSM   H16S14272   4.992   3.601   8.112  0.9051 -0.9814 -0.8643
  132OSM   H16T14273   4.824   3.651   8.056  0.2497  0.3463  0.3113
  132OSM   C17S14274   4.964   3.809   8.053 -0.1601 -0.3881 -0.1002
  132OSM   H17S14275   4.908   3.871   7.979  0.2444 -0.1628 -0.2210
  132OSM   H17T14276   5.073   3.833   8.047 -0.7256  2.1207 -1.4705
  132OSM   C18S14277   4.909   3.849   8.185 -0.0376 -0.0975 -0.6078
  132OSM   H18S14278   4.956   3.809   8.277 -0.2435 -0.7581 -0.7843
  132OSM   H18T14279   4.801   3.822   8.179 -0.0974  0.0982 -0.4370
  132OSM   H18U14280   4.919   3.959   8.201 -2.6562 -0.0411  1.2782
  132OSM    C1F14281   5.174   3.079   6.838  0.0274  0.3129  0.2801
  132OSM     OF14282   5.288   3.108   6.800 -0.4255  0.0097 -0.5463
  132OSM    C2F14283   5.153   3.016   6.968 -0.2721  0.1570 -0.4035
  132OSM    H2F14284   5.049   2.977   6.974 -0.8437  1.7428  0.5772
  132OSM    H2G14285   5.154   3.093   7.048 -3.5178  2.2153 -2.0907
  132OSM    C3F14286   5.257   2.907   7.008  0.0723  0.6991  0.1965
  132OSM    H3F14287   5.363   2.936   6.990  0.3214  0.6015  1.4483
  132OSM    H3G14288   5.235   2.817   6.946 -2.8394  0.5225  1.3238
  132OSM    C4F14289   5.240   2.843   7.149 -0.1359  0.3806  0.1768
  132OSM    H4F14290   5.304   2.752   7.145 -0.0434  0.4910 -2.2922
  132OSM    H4G14291   5.138   2.802   7.159  0.5646 -1.4873  0.0781
  132OSM    C5F14292   5.269   2.944   7.259  0.1632 -0.1439  0.7218
  132OSM    H5F14293   5.176   2.998   7.288  0.4909  0.1190  1.2774
  132OSM    H5G14294   5.346   3.017   7.224 -0.2577 -0.0780 -0.1146
  132OSM    C6F14295   5.319   2.874   7.388 -0.1189 -0.0098  0.2968
  132OSM    H6F14296   5.387   2.793   7.355 -0.4441 -0.2107  0.1130
  132OSM    H6G14297   5.239   2.821   7.443  0.4719 -1.4560 -0.1895
  132OSM    C7F14298   5.382   2.972   7.476 -0.7803 -0.0524  0.2720
  132OSM    H7F14299   5.321   3.063   7.495  1.6688  1.3875  1.7115
  132OSM    H7G14300   5.472   3.017   7.429  1.0948 -1.8324  2.0018
  132OSM    C8F14301   5.445   2.908   7.604 -0.2303  0.5241  0.6429
  132OSM    H8F14302   5.481   3.002   7.652 -0.4461  0.8538  0.1611
  132OSM    H8G14303   5.526   2.835   7.584 -1.2017 -0.2499 -0.5517
  132OSM    C9F14304   5.339   2.851   7.693 -1.0032  0.3843  0.0195
  132OSM    H9F14305   5.307   2.750   7.664 -0.0890 -0.2592  1.1689
  132OSM   C10F14306   5.307   2.912   7.808  0.2157 -0.0977  0.2452
  132OSM   H10F14307   5.241   2.851   7.872  0.3599 -1.4092 -0.8136
  132OSM   C11F14308   5.358   3.040   7.874 -0.2896  0.1569  0.0673
  132OSM   H11F14309   5.274   3.111   7.891 -0.6017 -0.3632  0.7301
  132OSM   H11G14310   5.435   3.093   7.815 -0.3095  1.5855  1.2463
  132OSM   C12F14311   5.417   3.020   8.009  0.4727 -0.7917 -0.7773
  132OSM   H12F14312   5.516   2.971   8.000  0.2618 -1.2446 -0.6390
  132OSM   H12G14313   5.351   2.956   8.072 -1.7582  1.7759 -0.2964
  132OSM   C13F14314   5.439   3.157   8.077  0.3553  0.0745 -0.4196
  132OSM   H13F14315   5.343   3.212   8.066 -0.9060 -1.8159  0.4614
  132OSM   H13G14316   5.513   3.219   8.022  0.6208  0.4617  0.3467
  132OSM   C14F14317   5.479   3.147   8.225  0.1852 -0.0793  0.1517
  132OSM   H14F14318   5.392   3.097   8.272  0.2878 -0.8149 -0.4262
  132OSM   H14G14319   5.488   3.247   8.274 -0.0310 -1.0789  2.3356
  132OSM   C15F14320   5.612   3.073   8.248 -0.2861  0.0346  0.2431
  132OSM   H15F14321   5.693   3.136   8.205 -1.4761 -0.3374 -2.7578
  132OSM   H15G14322   5.608   2.985   8.181 -2.1405 -0.1693  0.5655
  132OSM   C16F14323   5.636   3.045   8.403  0.6079  0.3768 -0.0606
  132OSM   H16F14324   5.543   2.991   8.433 -0.7009  0.8918 -2.8585
  132OSM   H16G14325   5.643   3.146   8.448  2.1717  0.5666 -0.6692
  132OSM   C17F14326   5.760   2.974   8.430 -0.6197 -0.6892  0.1761
  132OSM   H17F14327   5.844   3.017   8.371 -0.5875 -0.5049  0.3558
  132OSM   H17G14328   5.761   2.868   8.396  2.6438 -0.3170 -1.2555
  132OSM   C18F14329   5.806   2.967   8.578 -0.6631  0.2815  0.4058
  132OSM   H18F14330   5.837   3.064   8.623  0.0845  0.0444  0.4143
  132OSM   H18G14331   5.883   2.887   8.581 -0.5004  0.2398 -2.1616
  132OSM   H18H14332   5.718   2.935   8.637  0.7860 -0.6880  2.1348
  133OSM      N14333   5.483   4.093   5.981  0.6565  0.3864  0.7763
  133OSM    C1514334   5.385   4.104   5.871  0.0938  0.3144 -0.0641
  133OSM   H15A14335   5.302   4.039   5.894  0.0948  0.0175 -0.8518
  133OSM   H15B14336   5.422   4.069   5.775  2.3140  1.1800  0.4172
  133OSM   H15C14337   5.347   4.204   5.854 -1.5030 -0.1611  0.5093
  133OSM    C1414338   5.524   3.950   5.975  0.5076  0.3350 -0.1543
  133OSM   H14A14339   5.570   3.921   5.883  1.8913 -1.2356  0.9799
  133OSM   H14B14340   5.444   3.881   5.998  1.1962 -0.4566 -0.0872
  133OSM   H14C14341   5.592   3.936   6.058  2.0990  2.7734 -0.9380
  133OSM    C1314342   5.599   4.180   5.953  0.5641  0.1798 -0.0522
  133OSM   H13A14343   5.557   4.277   5.927  0.7583 -0.3718 -2.6421
  133OSM   H13B14344   5.652   4.139   5.869 -1.1578  1.0756 -1.6694
  133OSM   H13C14345   5.665   4.186   6.038  1.6652 -0.0077 -0.8783
  133OSM    C1214346   5.413   4.127   6.109  0.2942 -0.0791 -0.2138
  133OSM   H12A14347   5.322   4.070   6.121  0.9962 -0.9055  1.4888
  133OSM   H12B14348   5.382   4.230   6.099  0.9809 -0.0002 -1.8566
  133OSM    C1114349   5.485   4.107   6.245 -0.2588 -0.6104  0.3716
  133OSM   H11A14350   5.407   4.140   6.317 -0.3432 -0.7422  0.3410
  133OSM   H11B14351   5.569   4.179   6.238 -0.1924 -0.6057  1.1384
  133OSM      P14352   5.444   3.858   6.319 -0.1740  0.0135 -0.2917
  133OSM    O1314353   5.305   3.878   6.293  0.4180  0.1832  0.5825
  133OSM    O1414354   5.491   3.725   6.275 -0.3992 -0.8965 -0.2552
  133OSM    O1114355   5.463   3.871   6.481 -0.0752  0.4022 -0.5736
  133OSM    O1214356   5.537   3.976   6.263  0.0853  0.4320  0.4064
  133OSM    C1S14357   5.520   3.984   6.546  0.2341  0.4457  0.0454
  133OSM    H1S14358   5.466   4.074   6.510 -1.5859 -0.0200  1.4780
  133OSM    H1T14359   5.624   3.996   6.508 -0.1198  1.6117 -0.5919
  133OSM     NF14360   5.550   4.113   6.756  0.4327  0.0169  0.4241
  133OSM    HNF14361   5.636   4.120   6.806  1.2455 -1.8372 -0.6336
  133OSM    C2S14362   5.510   3.977   6.700 -0.5741 -1.2718 -0.5300
  133OSM    H2S14363   5.405   3.958   6.732 -0.7190  2.2150  1.5732
  133OSM    C3S14364   5.599   3.860   6.756  0.1384 -0.5547  0.0681
  133OSM    H3S14365   5.698   3.861   6.705  0.3260 -1.4172  0.3935
  133OSM     O314366   5.547   3.731   6.731 -0.1485 -0.1681  0.4203
  133OSM    HO314367   5.514   3.739   6.642  0.8060  2.9684  0.2554
  133OSM    C4S14368   5.611   3.880   6.907 -0.9241 -0.0761  0.0125
  133OSM    H4S14369   5.516   3.891   6.962 -0.5201 -0.0034  0.7137
  133OSM    C5S14370   5.722   3.922   6.975 -0.0482 -0.7000  0.6135
  133OSM    H5S14371   5.809   3.952   6.913 -1.3706 -0.3207 -1.1476
  133OSM    C6S14372   5.738   3.942   7.122  0.1946 -0.4856 -0.3415
  133OSM    H6S14373   5.791   4.035   7.151 -0.5407 -0.7007  1.8772
  133OSM    H6T14374   5.804   3.861   7.161 -0.9089 -1.8692 -1.2454
  133OSM    C7S14375   5.619   3.936   7.220  0.8117 -0.4740  0.7060
  133OSM    H7S14376   5.565   3.839   7.220 -0.7099  0.1965 -2.8613
  133OSM    H7T14377   5.543   4.010   7.187  3.3703  1.1677 -2.0338
  133OSM    C8S14378   5.657   3.981   7.369  0.6172  0.7807  0.1200
  133OSM    H8S14379   5.720   4.073   7.360  1.2957  0.3795  0.6754
  133OSM    H8T14380   5.732   3.905   7.398 -0.2241 -0.8985 -1.8088
  133OSM    C9S14381   5.549   3.998   7.468 -0.1533 -0.6193  1.1953
  133OSM    H9S14382   5.484   3.907   7.465  1.8018 -2.0598 -0.7274
  133OSM    H9T14383   5.479   4.075   7.429  0.1458  0.3822  2.5687
  133OSM   C10S14384   5.584   4.038   7.611 -0.1765 -0.3124 -0.0694
  133OSM   H10S14385   5.588   4.148   7.622 -0.5620 -0.1420 -1.4049
  133OSM   H10T14386   5.687   3.997   7.624  0.3238  1.4887  2.3701
  133OSM   C11S14387   5.502   3.968   7.719  0.2136  0.3330  0.2344
  133OSM   H11S14388   5.503   3.857   7.706 -1.9053  0.2752  0.1053
  133OSM   H11T14389   5.393   3.990   7.715  0.1970  0.1824 -0.1824
  133OSM   C12S14390   5.557   3.986   7.858 -0.5144 -0.7838  0.0001
  133OSM   H12S14391   5.474   3.967   7.929 -0.5309 -1.2093 -0.1300
  133OSM   H12T14392   5.591   4.087   7.889 -0.3717 -0.8574  0.0832
  133OSM   C13S14393   5.682   3.898   7.882  0.2339 -0.1537 -0.1918
  133OSM   H13S14394   5.752   3.921   7.798 -2.6142  0.9959 -2.4344
  133OSM   H13T14395   5.654   3.790   7.874 -3.8403  0.7341 -0.1653
  133OSM   C14S14396   5.742   3.923   8.020  0.6009 -0.5713 -0.0190
  133OSM   H14S14397   5.670   3.903   8.103  1.2328 -0.6235  0.5196
  133OSM   H14T14398   5.778   4.028   8.024 -0.7848  0.0376 -1.8532
  133OSM   C15S14399   5.862   3.824   8.040  0.0222 -0.5992 -0.2050
  133OSM   H15S14400   5.933   3.823   7.954  0.8734  0.4497  0.4455
  133OSM   H15T14401   5.809   3.727   8.043 -2.1623  0.5228 -0.7460
  133OSM   C16S14402   5.927   3.854   8.171 -0.1539 -0.2835 -0.1572
  133OSM   H16S14403   5.853   3.843   8.253  1.6821 -0.2789  1.5858
  133OSM   H16T14404   5.955   3.962   8.175 -0.7188 -0.0473 -1.8041
  133OSM   C17S14405   6.056   3.771   8.208  0.2184  0.4997 -0.3230
  133OSM   H17S14406   6.143   3.801   8.146  0.8700  0.6881  0.6519
  133OSM   H17T14407   6.029   3.664   8.202 -0.5399  0.4147  2.6778
  133OSM   C18S14408   6.089   3.792   8.354 -0.5272  0.4463 -0.5665
  133OSM   H18S14409   6.084   3.900   8.382  1.7982  0.9976 -1.9910
  133OSM   H18T14410   6.188   3.749   8.379 -0.4240 -0.1464 -1.8811
  133OSM   H18U14411   6.009   3.743   8.414 -0.6079  0.2065 -0.8655
  133OSM    C1F14412   5.479   4.224   6.727 -0.0454  0.5558  0.2363
  133OSM     OF14413   5.370   4.228   6.673  0.4599  0.3255  0.5756
  133OSM    C2F14414   5.543   4.353   6.792  0.4045 -0.0047 -0.4122
  133OSM    H2F14415   5.470   4.437   6.788  1.5606  1.1435  1.2803
  133OSM    H2G14416   5.617   4.387   6.717  1.3776  1.5259  1.1599
  133OSM    C3F14417   5.602   4.330   6.930  0.3063 -0.1061  0.1064
  133OSM    H3F14418   5.637   4.431   6.961 -2.7290  1.3747 -0.9261
  133OSM    H3G14419   5.691   4.264   6.940 -0.3505 -0.9146  0.8231
  133OSM    C4F14420   5.502   4.290   7.043 -0.2561  0.5219 -0.3628
  133OSM    H4F14421   5.498   4.180   7.060 -0.2031  0.7513  1.3915
  133OSM    H4G14422   5.399   4.330   7.030 -0.5058  0.7008  1.7707
  133OSM    C5F14423   5.556   4.344   7.177 -0.6662 -0.1095 -0.9991
  133OSM    H5F14424   5.575   4.452   7.166 -0.3731 -0.0468  0.0129
  133OSM    H5G14425   5.655   4.299   7.200 -1.3534 -0.3969  1.6761
  133OSM    C6F14426   5.456   4.341   7.292  0.3009 -0.1457 -0.1279
  133OSM    H6F14427   5.412   4.239   7.294  0.8147 -0.4008 -0.9169
  133OSM    H6G14428   5.377   4.410   7.257  2.4600  2.1345 -0.8311
  133OSM    C7F14429   5.515   4.377   7.427 -0.0580 -0.1217 -0.2078
  133OSM    H7F14430   5.553   4.481   7.415  1.2615 -0.4723  0.7060
  133OSM    H7G14431   5.608   4.325   7.456  1.4181  2.6126  0.3072
  133OSM    C8F14432   5.415   4.367   7.547 -0.7033 -0.0742  0.0029
  133OSM    H8F14433   5.369   4.266   7.554  0.5709 -0.6209  0.9971
  133OSM    H8G14434   5.332   4.439   7.528 -0.2302  0.9391  1.5725
  133OSM    C9F14435   5.489   4.408   7.672  0.3359  0.4770 -0.2300
  133OSM    H9F14436   5.572   4.344   7.706 -0.7233 -0.7357  0.1838
  133OSM   C10F14437   5.450   4.507   7.752 -0.6976  0.6868 -0.3936
  133OSM   H10F14438   5.520   4.550   7.825 -0.8229  0.4429 -0.1305
  133OSM   C11F14439   5.328   4.595   7.743 -0.7715 -0.1299  0.4087
  133OSM   H11F14440   5.264   4.570   7.656  0.8464 -2.4546 -0.2247
  133OSM   H11G14441   5.367   4.696   7.719  0.0601 -0.2761  1.0605
  133OSM   C12F14442   5.228   4.614   7.865 -0.1970 -0.2666  0.0904
  133OSM   H12F14443   5.223   4.527   7.933 -1.0699  0.9516  1.6740
  133OSM   H12G14444   5.130   4.621   7.814 -0.0488  1.4413 -0.0247
  133OSM   C13F14445   5.268   4.730   7.948 -0.1472 -0.4952 -0.2028
  133OSM   H13F14446   5.280   4.818   7.881  1.0636  0.1082  0.7599
  133OSM   H13G14447   5.365   4.713   8.001  2.0726  1.6297 -3.2095
  133OSM   C14F14448   5.164   4.777   8.052 -0.4132  0.6600  0.4653
  133OSM   H14F14449   5.139   4.686   8.111  2.0691 -0.9244 -0.7526
  133OSM   H14G14450   5.077   4.808   7.991 -1.6090 -1.3187  1.0680
  133OSM   C15F14451   5.220   4.893   8.131  0.0064  0.2094  0.2999
  133OSM   H15F14452   5.164   4.981   8.093  0.6942  1.2060  1.4979
  133OSM   H15G14453   5.328   4.912   8.117  0.1803  0.0526  1.3337
  133OSM   C16F14454   5.188   4.892   8.285  0.2577 -0.4616  0.9316
  133OSM   H16F14455   5.232   4.796   8.319  1.9501 -0.4856 -1.1088
  133OSM   H16G14456   5.080   4.891   8.310 -0.1587  0.2239 -0.7071
  133OSM   C17F14457   5.238   5.014   8.364  0.7793 -0.6597 -0.6308
  133OSM   H17F14458   5.228   4.995   8.473 -1.5292  0.0654 -0.6687
  133OSM   H17G14459   5.184   5.108   8.337  1.0105 -0.2059  0.4378
  133OSM   C18F14460   5.389   5.034   8.351  0.5594  0.1625  0.3659
  133OSM   H18F14461   5.441   4.936   8.367  1.9341  0.4067 -2.0143
  133OSM   H18G14462   5.430   5.116   8.414 -2.6700  1.8408  0.4467
  133OSM   H18H14463   5.420   5.057   8.247  2.0752  0.1079  0.7800
  134OSM      N14464   5.478   6.524   6.319  0.2286 -0.5579 -0.1021
  134OSM    C1514465   5.592   6.608   6.373 -0.2189 -0.6043 -0.0311
  134OSM   H15A14466   5.555   6.708   6.392 -0.0718 -0.6357  0.4325
  134OSM   H15B14467   5.678   6.604   6.308  0.2980  0.2699  0.5799
  134OSM   H15C14468   5.620   6.567   6.469 -2.3185  2.2713  1.9618
  134OSM    C1414469   5.366   6.537   6.421  0.0341 -0.7748  0.3876
  134OSM   H14A14470   5.301   6.451   6.417  0.5945 -1.1635 -1.4952
  134OSM   H14B14471   5.310   6.625   6.391  2.3060 -0.2379 -2.8250
  134OSM   H14C14472   5.392   6.557   6.524 -1.1347  0.8917  0.4044
  134OSM    C1314473   5.436   6.593   6.195 -0.0887  0.6762  0.1324
  134OSM   H13A14474   5.501   6.576   6.111 -0.5586  0.7516 -0.2503
  134OSM   H13B14475   5.425   6.700   6.209  1.4087  0.8411  0.1590
  134OSM   H13C14476   5.338   6.555   6.170 -0.6999  1.1029  1.7434
  134OSM    C1214477   5.509   6.379   6.293  0.8992  0.1184  0.5322
  134OSM   H12A14478   5.599   6.373   6.232  0.4246  1.7275 -0.3780
  134OSM   H12B14479   5.429   6.341   6.231 -0.5103  0.8043  1.9031
  134OSM    C1114480   5.524   6.279   6.405  0.4761  0.2889 -0.7237
  134OSM   H11A14481   5.518   6.179   6.357 -0.3369  0.4299 -0.9410
  134OSM   H11B14482   5.438   6.291   6.475 -0.3573 -0.8516 -1.5174
  134OSM      P14483   5.777   6.231   6.423  0.1445 -0.0168  0.1706
  134OSM    O1314484   5.792   6.100   6.488 -0.6949 -0.6036 -0.0486
  134OSM    O1414485   5.789   6.234   6.275 -0.0904  0.1632  0.2367
  134OSM    O1114486   5.893   6.319   6.482  0.3496 -0.5836  0.5230
  134OSM    O1214487   5.640   6.305   6.475  0.3263  0.2161  0.1410
  134OSM    C1S14488   5.863   6.383   6.612 -0.0817  0.9329  0.2633
  134OSM    H1S14489   5.836   6.314   6.695 -1.0575  0.9161 -0.0564
  134OSM    H1T14490   5.771   6.444   6.601 -2.3795 -2.4191 -0.6711
  134OSM     NF14491   5.965   6.515   6.801  0.1510 -0.1617 -0.1965
  134OSM    HNF14492   5.963   6.613   6.818 -0.8717 -0.0087 -1.1289
  134OSM    C2S14493   5.986   6.460   6.662 -0.2683  0.5272  0.2737
  134OSM    H2S14494   6.072   6.392   6.679 -0.5093  0.5363  1.7192
  134OSM    C3S14495   6.038   6.564   6.560 -0.1020  0.3205 -0.7405
  134OSM    H3S14496   5.951   6.631   6.544 -1.4513 -1.1577  0.2080
  134OSM     O314497   6.066   6.518   6.432  0.3964 -0.2492  0.1513
  134OSM    HO314498   6.021   6.433   6.429  2.2204 -1.2847  0.7457
  134OSM    C4S14499   6.165   6.633   6.617  0.5167 -0.5833  1.3357
  134OSM    H4S14500   6.147   6.732   6.661  0.6319 -0.8397  1.9648
  134OSM    C5S14501   6.297   6.590   6.624  0.6681 -0.3822 -0.3166
  134OSM    H5S14502   6.329   6.492   6.584 -0.0818 -1.2609  1.1453
  134OSM    C6S14503   6.399   6.685   6.691  0.1629 -0.4747  0.6337
  134OSM    H6S14504   6.357   6.784   6.719 -3.4861 -2.0573  1.4487
  134OSM    H6T14505   6.484   6.704   6.622 -0.5140 -0.7302 -0.3043
  134OSM    C7S14506   6.440   6.607   6.820  0.5062  0.3689 -0.6571
  134OSM    H7S14507   6.519   6.667   6.871  1.3856 -2.1130  1.1517
  134OSM    H7T14508   6.494   6.514   6.794  0.2049  0.1497 -0.5037
  134OSM    C8S14509   6.325   6.593   6.918  0.7076 -0.0621  0.1986
  134OSM    H8S14510   6.252   6.516   6.886  0.1968  0.5739 -0.1930
  134OSM    H8T14511   6.269   6.689   6.909  4.2770  2.4100  1.7821
  134OSM    C9S14512   6.371   6.584   7.063 -0.3540 -0.1928 -0.3043
  134OSM    H9S14513   6.435   6.674   7.076 -0.5291 -0.2370  0.9149
  134OSM    H9T14514   6.438   6.495   7.069 -0.3648 -0.4333 -2.6072
  134OSM   C10S14515   6.263   6.586   7.167  0.8388 -0.2157  0.3165
  134OSM   H10S14516   6.193   6.504   7.140  0.8938 -1.1426  2.6897
  134OSM   H10T14517   6.221   6.689   7.163  0.4106 -0.4176 -0.7455
  134OSM   C11S14518   6.323   6.564   7.314 -0.0071  0.6900 -0.0377
  134OSM   H11S14519   6.410   6.634   7.319  1.4617 -1.0298 -0.6112
  134OSM   H11T14520   6.352   6.458   7.329  0.2320  0.8493  0.6724
  134OSM   C12S14521   6.234   6.591   7.433 -0.1167  0.4606  0.4333
  134OSM   H12S14522   6.162   6.507   7.433 -1.4817  1.5815 -0.9517
  134OSM   H12T14523   6.177   6.683   7.410 -0.3209  0.3038  0.3102
  134OSM   C13S14524   6.312   6.599   7.569 -0.6352  0.8008  0.2258
  134OSM   H13S14525   6.369   6.694   7.565 -1.8107  1.5512  0.7109
  134OSM   H13T14526   6.376   6.509   7.579 -0.4552  0.9054  0.0212
  134OSM   C14S14527   6.219   6.623   7.688 -0.1923 -0.7451 -0.3461
  134OSM   H14S14528   6.139   6.547   7.673  0.5745 -1.6515  0.0319
  134OSM   H14T14529   6.195   6.730   7.671  0.2246 -0.2941  1.6100
  134OSM   C15S14530   6.285   6.609   7.821  0.0106 -0.2530 -0.5717
  134OSM   H15S14531   6.375   6.672   7.837  1.2039 -2.0353  0.1180
  134OSM   H15T14532   6.312   6.501   7.829 -0.9580 -0.4621  0.0814
  134OSM   C16S14533   6.187   6.644   7.943 -0.4791  0.3718  0.6180
  134OSM   H16S14534   6.090   6.596   7.918  0.4449 -0.5554 -1.4044
  134OSM   H16T14535   6.180   6.754   7.945  0.8486  0.4745  1.8568
  134OSM   C17S14536   6.254   6.604   8.079  0.6009  0.6943 -0.1496
  134OSM   H17S14537   6.360   6.635   8.060  0.7212 -0.6302 -1.8756
  134OSM   H17T14538   6.261   6.495   8.095 -0.6903  0.4659 -1.0296
  134OSM   C18S14539   6.191   6.672   8.196 -0.0079 -0.3029 -0.0195
  134OSM   H18S14540   6.171   6.777   8.165  2.0476  0.5726  1.3916
  134OSM   H18T14541   6.260   6.667   8.283 -0.8951 -0.5101  0.6935
  134OSM   H18U14542   6.095   6.626   8.229  0.4802 -0.0119  1.9077
  134OSM    C1F14543   5.946   6.441   6.909 -0.3592 -0.2494 -0.4480
  134OSM     OF14544   5.976   6.322   6.911  0.1009 -0.2493 -0.7730
  134OSM    C2F14545   5.890   6.510   7.030 -0.4921  0.1008 -0.7022
  134OSM    H2F14546   5.813   6.584   6.999  0.3069  0.4730 -1.8641
  134OSM    H2G14547   5.976   6.555   7.084 -0.3615 -1.1015  0.1212
  134OSM    C3F14548   5.817   6.413   7.126 -0.7164  0.2440 -0.0204
  134OSM    H3F14549   5.886   6.328   7.148 -1.5132 -1.0730 -2.3186
  134OSM    H3G14550   5.732   6.370   7.069 -0.9571  0.4949  0.1514
  134OSM    C4F14551   5.782   6.477   7.264  0.1018 -0.5496  0.4609
  134OSM    H4F14552   5.697   6.426   7.314  1.1079 -0.6439  2.1355
  134OSM    H4G14553   5.750   6.580   7.236  1.4230  0.1244  1.3370
  134OSM    C5F14554   5.900   6.491   7.363  0.2087  0.0276 -0.5062
  134OSM    H5F14555   5.942   6.593   7.350 -1.8051  0.7048 -2.2521
  134OSM    H5G14556   5.971   6.414   7.328 -1.4399 -0.9504 -1.8014
  134OSM    C6F14557   5.856   6.468   7.508 -0.5042  0.0693 -0.0731
  134OSM    H6F14558   5.945   6.462   7.574 -0.7047  0.4847  0.2320
  134OSM    H6G14559   5.806   6.369   7.512  0.2884 -0.3017  2.1720
  134OSM    C7F14560   5.777   6.583   7.578  0.3169  0.0275  0.3683
  134OSM    H7F14561   5.703   6.621   7.504  0.5776  0.1643  0.1745
  134OSM    H7G14562   5.834   6.671   7.615  0.1575  0.7329 -0.9851
  134OSM    C8F14563   5.692   6.530   7.698  0.5414  0.1073 -0.5975
  134OSM    H8F14564   5.630   6.443   7.667 -1.6156  0.9124  1.1455
  134OSM    H8G14565   5.619   6.609   7.727  0.8366  0.6583 -1.3122
  134OSM    C9F14566   5.780   6.481   7.818 -0.2086 -0.7479  0.3312
  134OSM    H9F14567   5.835   6.387   7.804  0.4634 -0.3619  0.3009
  134OSM   C10F14568   5.806   6.559   7.928 -0.2352  0.0245 -0.0767
  134OSM   H10F14569   5.877   6.524   8.004  0.2012  1.2602  0.1167
  134OSM   C11F14570   5.747   6.689   7.966 -0.5355 -0.6483  0.3496
  134OSM   H11F14571   5.637   6.673   7.972 -0.4434 -1.6422 -0.3896
  134OSM   H11G14572   5.740   6.759   7.880 -1.4450 -0.4316  0.5803
  134OSM   C12F14573   5.793   6.754   8.093 -0.8108  0.7291 -0.5137
  134OSM   H12F14574   5.756   6.858   8.107 -2.5364  0.2078 -0.9801
  134OSM   H12G14575   5.904   6.761   8.098 -0.4855 -2.1993 -1.6321
  134OSM   C13F14576   5.746   6.676   8.216 -0.0989 -0.5513 -1.0007
  134OSM   H13F14577   5.796   6.577   8.216  2.6485  0.6967  1.4309
  134OSM   H13G14578   5.635   6.664   8.215 -0.0359 -1.1774 -1.0642
  134OSM   C14F14579   5.798   6.745   8.344  0.6650 -0.3463 -0.5130
  134OSM   H14F14580   5.908   6.751   8.351  0.6487  0.5103 -0.8693
  134OSM   H14G14581   5.765   6.685   8.431 -0.2090  0.0158 -0.5828
  134OSM   C15F14582   5.722   6.885   8.356  0.7999  0.1764  0.4374
  134OSM   H15F14583   5.613   6.867   8.353  0.6562  1.1656 -1.0641
  134OSM   H15G14584   5.762   6.945   8.272 -1.7233  0.7428 -0.4395
  134OSM   C16F14585   5.750   6.958   8.494  0.0257 -0.4285 -0.0783
  134OSM   H16F14586   5.725   7.064   8.475  0.1673 -0.5308 -0.8558
  134OSM   H16G14587   5.860   6.958   8.510  0.6409  1.1010 -3.4832
  134OSM   C17F14588   5.664   6.903   8.611 -0.4453  0.3273  0.0823
  134OSM   H17F14589   5.688   6.796   8.628 -0.2029  0.4659  0.6122
  134OSM   H17G14590   5.557   6.901   8.581  0.1106 -2.7129 -2.2805
  134OSM   C18F14591   5.681   6.964   8.752 -0.3710 -0.4251  0.6350
  134OSM   H18F14592   5.783   6.952   8.795  0.0305 -1.4611 -0.5510
  134OSM   H18G14593   5.606   6.906   8.809 -0.1154 -1.9752 -0.5558
  134OSM   H18H14594   5.650   7.070   8.744 -1.7138 -0.9375 -2.1883
  135OSM      N14595   6.565   6.381   6.043  0.1157 -0.6803 -0.5257
  135OSM    C1514596   6.568   6.460   5.913 -0.0721  0.1263 -0.1870
  135OSM   H15A14597   6.523   6.415   5.826 -3.5768  3.6254 -0.4709
  135OSM   H15B14598   6.672   6.481   5.896  0.1424  0.1151  1.0463
  135OSM   H15C14599   6.506   6.548   5.916 -0.1836  0.0435 -0.0318
  135OSM    C1414600   6.587   6.240   6.018  0.5183  0.6444  0.7521
  135OSM   H14A14601   6.592   6.188   6.112  1.6826 -1.0087 -0.1784
  135OSM   H14B14602   6.677   6.225   5.961  2.0173 -1.6843  3.4834
  135OSM   H14C14603   6.499   6.198   5.971 -0.1987  1.0371  1.7220
  135OSM    C1314604   6.671   6.438   6.127  0.5040 -0.2882  0.1386
  135OSM   H13A14605   6.650   6.540   6.155  0.8802  0.0650 -0.7919
  135OSM   H13B14606   6.767   6.446   6.077  1.0788  1.8974  1.4796
  135OSM   H13C14607   6.679   6.380   6.218  1.2985 -1.5191 -0.6827
  135OSM    C1214608   6.422   6.385   6.110  0.2463  0.5271 -0.3140
  135OSM   H12A14609   6.361   6.327   6.042 -0.1841 -0.7462  1.1207
  135OSM   H12B14610   6.390   6.487   6.118 -0.8927  0.0412  2.1126
  135OSM    C1114611   6.411   6.318   6.252  0.1148 -0.6536 -0.0818
  135OSM   H11A14612   6.315   6.350   6.299  1.0770  0.1836  1.3979
  135OSM   H11B14613   6.499   6.354   6.309 -0.4937 -0.2228  0.6075
  135OSM      P14614   6.332   6.068   6.311  0.3587 -0.1715 -0.2259
  135OSM    O1314615   6.212   6.066   6.235  0.5613 -0.0572 -0.7223
  135OSM    O1414616   6.401   5.937   6.334 -0.3992 -0.5765 -0.2259
  135OSM    O1114617   6.321   6.137   6.451 -0.2413 -0.1802 -0.0087
  135OSM    O1214618   6.434   6.175   6.239  0.6411  0.2367 -0.0451
  135OSM    C1S14619   6.196   6.162   6.528 -0.2632 -0.0254  0.5940
  135OSM    H1S14620   6.113   6.100   6.487  0.7031  0.1527 -1.7986
  135OSM    H1T14621   6.177   6.271   6.531  1.2649  0.2493  1.0015
  135OSM     NF14622   6.087   6.107   6.745  0.6503  0.0848 -0.1226
  135OSM    HNF14623   6.053   6.178   6.806  0.8046  0.0439  0.0092
  135OSM    C2S14624   6.214   6.118   6.683  0.6805  0.3629  0.3490
  135OSM    H2S14625   6.255   6.015   6.671  0.9194  0.7599 -3.1802
  135OSM    C3S14626   6.314   6.201   6.760 -0.5918 -0.3824 -0.4357
  135OSM    H3S14627   6.279   6.307   6.763 -0.4824 -0.3255 -1.0534
  135OSM     O314628   6.435   6.213   6.696 -0.8388 -0.2939 -0.1226
  135OSM    HO314629   6.424   6.171   6.610 -0.8333  0.7121 -0.6194
  135OSM    C4S14630   6.332   6.141   6.903 -0.1752  0.0393  0.4404
  135OSM    H4S14631   6.362   6.035   6.908 -1.2468 -0.4294 -1.7769
  135OSM    C5S14632   6.297   6.208   7.015  0.5543  0.6515 -0.0639
  135OSM    H5S14633   6.259   6.310   7.002 -1.9734 -0.4143 -1.6588
  135OSM    C6S14634   6.318   6.154   7.156 -0.6267  0.1717  0.1437
  135OSM    H6S14635   6.405   6.213   7.192 -1.0808  1.3898 -0.6934
  135OSM    H6T14636   6.329   6.043   7.150 -1.7964  0.0411  0.2744
  135OSM    C7S14637   6.205   6.171   7.258  0.4014  0.0131  0.6501
  135OSM    H7S14638   6.110   6.126   7.222  0.5090  0.7346 -0.5766
  135OSM    H7T14639   6.182   6.280   7.258 -0.0999 -0.0781 -0.4358
  135OSM    C8S14640   6.256   6.126   7.397  0.4571 -0.4579 -0.5674
  135OSM    H8S14641   6.364   6.148   7.414  0.6401 -1.6130 -0.1164
  135OSM    H8T14642   6.269   6.016   7.387  2.8569 -0.3079  0.0814
  135OSM    C9S14643   6.156   6.181   7.503 -0.3450  0.5952  0.3423
  135OSM    H9S14644   6.057   6.146   7.467 -0.1678  0.3670  0.0740
  135OSM    H9T14645   6.148   6.292   7.503 -0.7052  0.5725  0.1204
  135OSM   C10S14646   6.201   6.136   7.639  0.5448 -0.4996 -0.0303
  135OSM   H10S14647   6.312   6.146   7.650  0.5216  0.0368 -0.2660
  135OSM   H10T14648   6.159   6.034   7.649 -0.0994 -0.3076 -0.7379
  135OSM   C11S14649   6.140   6.229   7.752  0.4603  0.1397 -0.1440
  135OSM   H11S14650   6.035   6.252   7.723 -0.2717 -2.1126  0.5152
  135OSM   H11T14651   6.190   6.328   7.746  0.9417 -0.1411 -0.9659
  135OSM   C12S14652   6.152   6.182   7.893 -0.2910 -0.4447 -1.1294
  135OSM   H12S14653   6.258   6.199   7.921 -0.5087 -0.2607 -0.4008
  135OSM   H12T14654   6.130   6.074   7.879  2.0010 -0.6790 -3.8328
  135OSM   C13S14655   6.063   6.250   7.998 -0.2430  0.5379  0.5561
  135OSM   H13S14656   5.958   6.224   7.973 -0.6339  2.6150 -0.1352
  135OSM   H13T14657   6.073   6.360   7.990  1.0553  0.2871 -2.1124
  135OSM   C14S14658   6.091   6.213   8.142 -0.5171  0.6679  0.2473
  135OSM   H14S14659   6.193   6.250   8.167 -1.7347  2.4166  3.2825
  135OSM   H14T14660   6.093   6.102   8.144 -2.9241  0.3728 -3.7550
  135OSM   C15S14661   5.985   6.279   8.241  0.3545  0.4255 -0.3092
  135OSM   H15S14662   5.881   6.255   8.210 -0.0379  2.5946 -0.8445
  135OSM   H15T14663   5.992   6.387   8.218  0.1346  0.0950 -2.1274
  135OSM   C16S14664   6.007   6.219   8.385 -0.3128 -0.4173 -0.2988
  135OSM   H16S14665   6.114   6.236   8.410  0.3536  1.1376 -3.6651
  135OSM   H16T14666   5.986   6.110   8.373 -0.8152 -0.2080 -1.4645
  135OSM   C17S14667   5.911   6.276   8.484 -0.2701 -0.1184  0.9295
  135OSM   H17S14668   5.941   6.382   8.497  3.3620 -0.8598 -0.2624
  135OSM   H17T14669   5.928   6.225   8.582  2.4654  1.1824  1.2072
  135OSM   C18S14670   5.755   6.262   8.462 -0.7371  0.5588 -1.0110
  135OSM   H18S14671   5.729   6.155   8.444  0.4849  0.1910 -0.7471
  135OSM   H18T14672   5.719   6.312   8.369  0.8052  0.0629 -1.9153
  135OSM   H18U14673   5.704   6.306   8.550  0.7565  1.6505 -0.6619
  135OSM    C1F14674   6.006   5.998   6.739 -0.8250  0.1268 -0.4166
  135OSM     OF14675   6.041   5.901   6.667  0.0882 -0.1707 -0.0317
  135OSM    C2F14676   5.887   6.004   6.824  0.1017  0.3080  0.8296
  135OSM    H2F14677   5.799   5.986   6.758  1.2149 -0.0627 -0.5893
  135OSM    H2G14678   5.870   6.100   6.877  0.3935 -0.0774  1.6354
  135OSM    C3F14679   5.898   5.889   6.928  0.0769 -0.0907 -0.5704
  135OSM    H3F14680   5.924   5.790   6.885  0.4353  0.3181 -1.3174
  135OSM    H3G14681   5.802   5.874   6.983 -1.0770  0.6976 -2.2711
  135OSM    C4F14682   5.996   5.922   7.038 -0.5820 -0.2332  0.0538
  135OSM    H4F14683   5.970   6.014   7.095 -1.2049 -1.7881  2.4253
  135OSM    H4G14684   6.101   5.926   7.001 -0.3155 -0.7271  0.7415
  135OSM    C5F14685   5.998   5.803   7.134 -0.6673 -0.2749 -0.0026
  135OSM    H5F14686   6.038   5.710   7.087  2.1420  1.0374 -0.3481
  135OSM    H5G14687   5.889   5.782   7.144 -0.9829  1.5903  0.8998
  135OSM    C6F14688   6.067   5.828   7.268 -0.1932 -0.6247  0.5682
  135OSM    H6F14689   6.022   5.911   7.327  1.6748  0.9918 -0.1711
  135OSM    H6G14690   6.169   5.858   7.234 -0.9290 -0.5302 -1.7646
  135OSM    C7F14691   6.070   5.700   7.355  0.6548  0.4833  0.0243
  135OSM    H7F14692   6.154   5.634   7.324  0.6781 -0.2584  1.5838
  135OSM    H7G14693   5.980   5.639   7.330  1.0658  0.5572 -1.7876
  135OSM    C8F14694   6.083   5.723   7.503 -0.3133  0.1091 -0.3723
  135OSM    H8F14695   6.017   5.806   7.535 -2.4152 -1.5985 -0.0554
  135OSM    H8G14696   6.187   5.761   7.518 -0.7022  2.0316 -2.2013
  135OSM    C9F14697   6.065   5.601   7.598 -0.0109 -0.3859 -0.3079
  135OSM    H9F14698   6.048   5.503   7.550 -2.9320 -0.9157  1.5679
  135OSM   C10F14699   6.066   5.599   7.741 -0.1369  0.1575 -0.1635
  135OSM   H10F14700   6.059   5.507   7.800  1.9204  0.4033  0.5500
  135OSM   C11F14701   6.083   5.725   7.824 -0.3183  0.4368  0.5574
  135OSM   H11F14702   5.996   5.744   7.890 -0.2855 -1.9193  1.3843
  135OSM   H11G14703   6.093   5.820   7.766  0.0888 -0.8693 -1.6518
  135OSM   C12F14704   6.214   5.721   7.902  0.1609  0.6541 -0.4383
  135OSM   H12F14705   6.296   5.702   7.830 -1.0925 -0.9375 -1.5006
  135OSM   H12G14706   6.203   5.632   7.967  0.1490 -1.1838 -2.8330
  135OSM   C13F14707   6.245   5.850   7.981  0.1207  0.5323 -0.6435
  135OSM   H13F14708   6.153   5.886   8.032 -0.2748 -0.0313 -0.9436
  135OSM   H13G14709   6.277   5.927   7.908 -1.0304  0.4045 -1.3076
  135OSM   C14F14710   6.350   5.820   8.091 -0.2094  0.8227 -0.0169
  135OSM   H14F14711   6.442   5.780   8.043  0.7115  0.6322  1.8281
  135OSM   H14G14712   6.319   5.748   8.169  0.4645  3.6561  3.0757
  135OSM   C15F14713   6.386   5.950   8.163 -0.2374 -0.2534 -0.3977
  135OSM   H15F14714   6.296   5.984   8.219 -0.2675 -2.1952  0.8156
  135OSM   H15G14715   6.419   6.030   8.093  3.4259 -2.2243 -1.1825
  135OSM   C16F14716   6.486   5.915   8.274  0.0220  0.1383  0.4025
  135OSM   H16F14717   6.588   5.957   8.258  1.5353 -2.9532  1.2330
  135OSM   H16G14718   6.500   5.806   8.286 -1.7615 -0.4969 -2.4500
  135OSM   C17F14719   6.450   5.958   8.410  0.6706  0.2576  0.4031
  135OSM   H17F14720   6.518   5.911   8.484  1.6114  0.4993 -0.2778
  135OSM   H17G14721   6.353   5.909   8.433  0.8555  0.6122  2.0119
  135OSM   C18F14722   6.460   6.109   8.436 -0.4013 -0.5413 -0.0911
  135OSM   H18F14723   6.407   6.140   8.529  1.1829 -0.6573  0.8965
  135OSM   H18G14724   6.413   6.167   8.354  0.2686 -0.2225 -0.2526
  135OSM   H18H14725   6.565   6.144   8.440 -0.2091 -1.1687  1.3620
  136OSM      N14726   3.170   5.904   5.890  0.0896  0.0348  0.1777
  136OSM    C1514727   3.245   5.992   5.804 -0.5733 -0.7277  0.5140
  136OSM   H15A14728   3.343   6.017   5.842 -0.1791  0.9302 -1.4079
  136OSM   H15B14729   3.198   6.089   5.792  0.5566 -0.4669 -2.7718
  136OSM   H15C14730   3.257   5.950   5.705  0.1945 -0.7997  0.6291
  136OSM    C1414731   3.037   5.900   5.823  0.1728  0.5319 -0.4518
  136OSM   H14A14732   3.052   5.883   5.717  0.8217 -1.2303 -0.1002
  136OSM   H14B14733   2.988   5.997   5.830  0.4885  0.5853  1.3029
  136OSM   H14C14734   2.976   5.827   5.873 -1.2232  1.6307 -0.4862
  136OSM    C1314735   3.239   5.767   5.892 -0.1101  0.5677  0.3363
  136OSM   H13A14736   3.340   5.787   5.925  0.8690 -3.1757  0.0756
  136OSM   H13B14737   3.245   5.716   5.797  3.9368  1.5163 -0.1081
  136OSM   H13C14738   3.192   5.701   5.963  1.7446  0.5111  1.5690
  136OSM    C1214739   3.166   5.958   6.032  0.3336  0.0979 -0.3237
  136OSM   H12A14740   3.095   5.908   6.095 -0.6558 -0.6008 -1.9346
  136OSM   H12B14741   3.107   6.048   6.021 -1.3000 -1.1570 -2.8093
  136OSM    C1114742   3.298   5.966   6.116  0.3551 -0.5436 -0.2518
  136OSM   H11A14743   3.324   5.867   6.159 -0.4436 -0.5512  0.2302
  136OSM   H11B14744   3.275   6.015   6.213  1.5569  1.2075 -0.8144
  136OSM      P14745   3.414   6.194   6.089 -0.0736 -0.2797  0.0712
  136OSM    O1314746   3.495   6.257   5.987 -0.5006  0.2377  0.1042
  136OSM    O1414747   3.282   6.251   6.104  0.1304 -0.1229  0.1044
  136OSM    O1114748   3.488   6.208   6.223 -0.1837  0.8972 -0.7404
  136OSM    O1214749   3.408   6.042   6.060  0.1873  0.1571 -0.2708
  136OSM    C1S14750   3.566   6.103   6.286 -0.4997  0.2047  0.4107
  136OSM    H1S14751   3.668   6.122   6.248 -0.8612  0.1968 -0.6036
  136OSM    H1T14752   3.522   6.006   6.254 -0.1042 -0.2021  1.0895
  136OSM     NF14753   3.692   6.035   6.485  0.0642 -0.1762 -0.2700
  136OSM    HNF14754   3.664   5.950   6.530 -2.7447  0.4552 -0.6884
  136OSM    C2S14755   3.580   6.111   6.435 -0.2134  0.3411  0.2003
  136OSM    H2S14756   3.598   6.220   6.451 -2.1501  0.8365 -0.5699
  136OSM    C3S14757   3.442   6.065   6.498 -0.2312 -0.8926  1.0041
  136OSM    H3S14758   3.419   5.960   6.470  0.1066 -0.5523 -0.6118
  136OSM     O314759   3.331   6.138   6.436  0.5235  0.0947  0.1742
  136OSM    HO314760   3.370   6.190   6.366  1.7087  1.2620  1.6383
  136OSM    C4S14761   3.445   6.096   6.643 -0.6790  0.4475  0.9393
  136OSM    H4S14762   3.427   6.203   6.657  0.1899  1.2218 -2.7138
  136OSM    C5S14763   3.478   6.018   6.749 -0.4446  0.3238 -0.4190
  136OSM    H5S14764   3.504   5.912   6.735  1.0864  0.8335 -1.8632
  136OSM    C6S14765   3.483   6.051   6.894 -0.2701  0.0015  0.2207
  136OSM    H6S14766   3.588   6.070   6.925 -0.5783  2.2330  0.0767
  136OSM    H6T14767   3.438   5.971   6.956  0.1430  0.3827  1.0263
  136OSM    C7S14768   3.407   6.175   6.934  0.3316  0.4420 -0.8734
  136OSM    H7S14769   3.309   6.173   6.882 -0.3703 -1.8889  0.3895
  136OSM    H7T14770   3.455   6.271   6.905 -2.6342  2.1522 -0.5080
  136OSM    C8S14771   3.370   6.175   7.087  0.3903  0.1888  0.2899
  136OSM    H8S14772   3.314   6.080   7.097 -1.1558  0.7445 -2.2467
  136OSM    H8T14773   3.306   6.265   7.102  3.5869  2.9328 -1.1593
  136OSM    C9S14774   3.496   6.185   7.183  0.4698 -0.3009 -0.2144
  136OSM    H9S14775   3.518   6.293   7.191 -0.5695 -0.0926 -0.0709
  136OSM    H9T14776   3.576   6.126   7.132 -0.3351 -1.2665 -0.4021
  136OSM   C10S14777   3.481   6.115   7.317 -0.0593 -0.6312  0.4674
  136OSM   H10S14778   3.570   6.132   7.381  0.3804  0.4722 -0.3979
  136OSM   H10T14779   3.471   6.005   7.305 -1.0746 -0.6077  0.9944
  136OSM   C11S14780   3.357   6.163   7.385  0.0485  0.3203  0.6460
  136OSM   H11S14781   3.281   6.107   7.328 -0.7763  1.7417  0.2921
  136OSM   H11T14782   3.337   6.272   7.371 -3.3614 -0.5910 -3.8904
  136OSM   C12S14783   3.357   6.120   7.534  0.2615 -0.2846 -0.1531
  136OSM   H12S14784   3.458   6.150   7.571  0.9194 -0.3868 -1.7715
  136OSM   H12T14785   3.358   6.010   7.548 -1.2013 -0.5934 -2.0535
  136OSM   C13S14786   3.235   6.181   7.613 -0.4065 -0.5405  0.3137
  136OSM   H13S14787   3.144   6.128   7.577 -0.5375 -0.5985  0.7262
  136OSM   H13T14788   3.230   6.291   7.605 -0.3534 -0.2229  3.3681
  136OSM   C14S14789   3.245   6.160   7.767  0.6066 -0.2950  0.2694
  136OSM   H14S14790   3.294   6.255   7.797  0.0348  0.7708 -1.9753
  136OSM   H14T14791   3.312   6.074   7.791 -0.3368 -0.7118  1.5703
  136OSM   C15S14792   3.110   6.177   7.839 -0.2291 -0.2022  0.4326
  136OSM   H15S14793   3.043   6.096   7.803 -0.4348  0.1732 -0.0483
  136OSM   H15T14794   3.066   6.270   7.795  0.6806  1.2627  2.4652
  136OSM   C16S14795   3.121   6.194   7.988  0.8712  0.2778 -0.2453
  136OSM   H16S14796   3.219   6.241   8.011  0.4029  0.1481  2.3253
  136OSM   H16T14797   3.125   6.100   8.047 -1.3920  0.0874 -0.2948
  136OSM   C17S14798   3.020   6.293   8.039 -0.0530  0.0486 -0.1679
  136OSM   H17S14799   3.044   6.385   7.982 -0.7608  0.3351 -0.0158
  136OSM   H17T14800   3.031   6.314   8.148 -0.5281 -0.2550 -0.0545
  136OSM   C18S14801   2.875   6.260   8.012 -0.2965 -0.2879  0.3061
  136OSM   H18S14802   2.813   6.351   7.997  0.6484  0.2708 -0.3398
  136OSM   H18T14803   2.825   6.207   8.096  0.6090  0.4992  1.3812
  136OSM   H18U14804   2.870   6.205   7.916 -1.0895  1.2812 -0.5860
  136OSM    C1F14805   3.820   6.061   6.473  0.3217 -0.1633  0.3136
  136OSM     OF14806   3.861   6.142   6.391 -0.1675  0.1140  0.1921
  136OSM    C2F14807   3.910   5.970   6.549  0.4308 -0.1630  0.0891
  136OSM    H2F14808   3.981   5.926   6.475  1.8588  0.3071  1.1411
  136OSM    H2G14809   3.860   5.890   6.607  0.8416 -1.3405 -1.1093
  136OSM    C3F14810   3.981   6.064   6.659 -0.1830 -0.1039  0.1681
  136OSM    H3F14811   3.905   6.110   6.725  2.2917 -0.3083  3.3599
  136OSM    H3G14812   4.042   6.141   6.607  1.5172 -1.6873 -0.3242
  136OSM    C4F14813   4.079   5.973   6.737  0.3008  0.5106 -0.3092
  136OSM    H4F14814   4.156   6.028   6.794  0.5595  0.2977 -0.4557
  136OSM    H4G14815   4.129   5.904   6.666  1.4022  0.1919  0.7444
  136OSM    C5F14816   4.013   5.873   6.838  1.1151 -0.3933  0.0244
  136OSM    H5F14817   4.101   5.835   6.894  0.7318 -1.7452 -0.2525
  136OSM    H5G14818   3.947   5.801   6.785 -1.6527  1.2347  1.0756
  136OSM    C6F14819   3.921   5.942   6.953  0.3496  0.3992  0.5159
  136OSM    H6F14820   3.822   5.975   6.915 -0.6095 -0.1586  2.4271
  136OSM    H6G14821   3.974   6.037   6.976  1.8786  0.2386 -1.9400
  136OSM    C7F14822   3.902   5.866   7.084 -0.5178 -0.2773  0.3395
  136OSM    H7F14823   3.866   5.944   7.153 -0.0991  0.2460 -0.0246
  136OSM    H7G14824   3.996   5.824   7.126  0.4293  0.0397 -1.3366
  136OSM    C8F14825   3.811   5.746   7.073  0.0848  0.6621 -0.3045
  136OSM    H8F14826   3.847   5.670   7.145 -0.6310 -0.8279 -1.4620
  136OSM    H8G14827   3.818   5.688   6.978 -1.1390 -0.3558  0.1953
  136OSM    C9F14828   3.664   5.780   7.084 -0.7087 -0.8123  0.2937
  136OSM    H9F14829   3.625   5.868   7.032 -1.3332 -1.8946 -1.1288
  136OSM   C10F14830   3.569   5.710   7.144 -0.0244 -0.1826 -0.4529
  136OSM   H10F14831   3.467   5.752   7.141  1.8172  4.9142 -0.7229
  136OSM   C11F14832   3.584   5.579   7.227 -0.8026  0.1384  0.3091
  136OSM   H11F14833   3.690   5.552   7.245 -0.0388  1.5487 -1.7389
  136OSM   H11G14834   3.542   5.495   7.168  0.8403 -0.4051 -0.1353
  136OSM   C12F14835   3.517   5.594   7.359  0.2767 -0.6107  1.3041
  136OSM   H12F14836   3.512   5.500   7.418 -1.1621 -0.1813  1.9135
  136OSM   H12G14837   3.414   5.635   7.351  1.2681  2.0895  1.5489
  136OSM   C13F14838   3.603   5.676   7.454 -0.6123 -0.3589 -0.0259
  136OSM   H13F14839   3.579   5.784   7.437  1.1625  0.0204 -0.4006
  136OSM   H13G14840   3.711   5.655   7.438  0.8231  3.9789  2.3181
  136OSM   C14F14841   3.592   5.650   7.602  0.4999  0.3935 -0.0453
  136OSM   H14F14842   3.600   5.541   7.620  1.3047  0.6057  1.0538
  136OSM   H14G14843   3.493   5.679   7.642  1.7763  3.3720  1.2537
  136OSM   C15F14844   3.695   5.731   7.678  0.1854  0.6876 -0.7812
  136OSM   H15F14845   3.656   5.834   7.694  1.6103  0.8414  2.7019
  136OSM   H15G14846   3.783   5.735   7.611 -0.3720  3.4189 -1.4556
  136OSM   C16F14847   3.731   5.674   7.810 -0.6957  0.5577  0.4373
  136OSM   H16F14848   3.828   5.724   7.832 -1.0372  1.1994  0.5219
  136OSM   H16G14849   3.729   5.563   7.801  0.3761  0.5523  0.1361
  136OSM   C17F14850   3.646   5.724   7.930 -0.6723  0.2028  0.7872
  136OSM   H17F14851   3.545   5.687   7.903 -0.7962 -1.0034  2.7051
  136OSM   H17G14852   3.632   5.834   7.923 -0.4257  0.2335  0.7605
  136OSM   C18F14853   3.696   5.689   8.067 -0.4216  1.0158 -0.0114
  136OSM   H18F14854   3.724   5.581   8.061 -0.0800  1.1901 -2.5516
  136OSM   H18G14855   3.614   5.715   8.137 -0.0263  1.1258  0.4192
  136OSM   H18H14856   3.784   5.753   8.088 -0.8490  1.6922 -0.2621
  137OSM      N14857   0.577   5.098   5.973 -0.1590  0.5324  1.2590
  137OSM    C1514858   0.464   5.021   5.910  0.1004 -0.0786  0.6533
  137OSM   H15A14859   0.488   4.988   5.810  4.0664  0.9261  1.0872
  137OSM   H15B14860   0.382   5.086   5.884 -0.6390 -1.6156 -1.0076
  137OSM   H15C14861   0.437   4.928   5.957 -0.1270 -1.0100 -1.2213
  137OSM    C1414862   0.689   4.999   5.988 -0.3199  0.1421 -0.0740
  137OSM   H14A14863   0.738   4.987   5.893  0.2672  3.7475 -0.3622
  137OSM   H14B14864   0.664   4.907   6.038 -1.4394 -0.5846 -1.8907
  137OSM   H14C14865   0.762   5.045   6.054 -0.7370 -2.1325  2.1282
  137OSM    C1314866   0.612   5.215   5.887 -0.7568 -0.5345  0.5993
  137OSM   H13A14867   0.692   5.274   5.927 -0.0107 -0.7450 -0.5388
  137OSM   H13B14868   0.526   5.280   5.883  0.1551  0.6939  0.4159
  137OSM   H13C14869   0.647   5.181   5.791  1.1690 -0.4727  1.2500
  137OSM    C1214870   0.540   5.141   6.117  0.2671  1.1370  0.5756
  137OSM   H12A14871   0.513   5.053   6.174  0.6430  0.7659  0.1968
  137OSM   H12B14872   0.445   5.189   6.103 -0.6031 -0.9735 -1.6145
  137OSM    C1114873   0.642   5.228   6.194  0.5469 -0.3907  0.2620
  137OSM   H11A14874   0.589   5.228   6.292 -1.2282 -1.6412 -0.6485
  137OSM   H11B14875   0.639   5.330   6.151 -1.9577 -1.2561 -1.8936
  137OSM      P14876   0.849   5.073   6.292  0.2154 -0.3413  0.2211
  137OSM    O1314877   0.779   4.943   6.263  0.7527 -0.0668 -0.8759
  137OSM    O1414878   0.997   5.081   6.262  0.3616 -0.3720  0.0626
  137OSM    O1114879   0.821   5.113   6.440  0.0552  0.0404 -0.4134
  137OSM    O1214880   0.779   5.181   6.197  0.3239  0.4299  0.2847
  137OSM    C1S14881   0.705   5.071   6.512 -0.2075 -0.2951 -0.0430
  137OSM    H1S14882   0.692   4.961   6.508  0.9432 -0.5336  1.6562
  137OSM    H1T14883   0.610   5.110   6.470  0.4175  1.0023 -0.3249
  137OSM     NF14884   0.639   5.005   6.739  0.1785 -0.0518  0.1707
  137OSM    HNF14885   0.566   5.050   6.790 -0.4545  0.8207 -1.4103
  137OSM    C2S14886   0.723   5.092   6.665 -0.0637 -0.3772  1.0888
  137OSM    H2S14887   0.823   5.066   6.706  0.6016  0.5682  0.1330
  137OSM    C3S14888   0.699   5.242   6.683  0.2412 -0.0406 -0.7138
  137OSM    H3S14889   0.598   5.271   6.648 -0.5052 -0.9499  0.5615
  137OSM     O314890   0.782   5.327   6.609 -0.5076  0.7303 -0.6020
  137OSM    HO314891   0.806   5.279   6.530 -2.1781 -0.1884 -0.5986
  137OSM    C4S14892   0.733   5.269   6.821  0.7384 -0.2246  0.0029
  137OSM    H4S14893   0.834   5.255   6.862  0.4521 -0.6074  0.5831
  137OSM    C5S14894   0.650   5.321   6.916  0.3667  0.1062 -0.3196
  137OSM    H5S14895   0.544   5.348   6.901  0.4222  0.4215 -0.1379
  137OSM    C6S14896   0.700   5.335   7.058 -0.3050  0.2283 -0.6805
  137OSM    H6S14897   0.684   5.441   7.088 -0.1674 -0.0141  0.2946
  137OSM    H6T14898   0.808   5.324   7.083 -0.3220  2.3878  0.6517
  137OSM    C7S14899   0.613   5.249   7.151  0.3748 -0.3680  0.0755
  137OSM    H7S14900   0.625   5.143   7.119 -0.7157 -0.6124  0.4132
  137OSM    H7T14901   0.506   5.274   7.131  0.9640 -0.0553 -3.1429
  137OSM    C8S14902   0.652   5.262   7.298 -0.1625 -0.0460 -0.1830
  137OSM    H8S14903   0.762   5.263   7.316  0.1019 -1.1121 -1.5609
  137OSM    H8T14904   0.600   5.179   7.349 -1.7375  1.0542  0.0692
  137OSM    C9S14905   0.599   5.398   7.354  0.4720 -0.6475  0.2526
  137OSM    H9S14906   0.492   5.403   7.324  0.5989  1.2677 -0.0122
  137OSM    H9T14907   0.657   5.478   7.302  3.2238 -2.1773  0.7344
  137OSM   C10S14908   0.609   5.418   7.503 -0.1532 -0.8639  0.0346
  137OSM   H10S14909   0.549   5.337   7.550  0.1718 -1.4900 -0.6064
  137OSM   H10T14910   0.560   5.514   7.529 -1.5267 -1.4171 -0.4281
  137OSM   C11S14911   0.752   5.408   7.564  0.3735 -0.6297  0.0588
  137OSM   H11S14912   0.837   5.464   7.520  2.2173 -1.8260  1.9574
  137OSM   H11T14913   0.780   5.302   7.581 -1.9061 -0.9543  2.3943
  137OSM   C12S14914   0.759   5.484   7.698 -0.3774 -0.5770 -0.1154
  137OSM   H12S14915   0.699   5.415   7.760 -1.1674 -0.9935 -1.3023
  137OSM   H12T14916   0.708   5.583   7.694 -0.8652 -0.8422 -0.9005
  137OSM   C13S14917   0.906   5.493   7.753 -0.1742  0.3484 -0.0001
  137OSM   H13S14918   0.969   5.568   7.700 -0.3672  1.0350  0.7242
  137OSM   H13T14919   0.966   5.402   7.734  0.1858  0.1816  1.8086
  137OSM   C14S14920   0.910   5.539   7.900 -0.3815 -0.6070 -0.2769
  137OSM   H14S14921   1.007   5.525   7.952 -0.3165 -1.1043 -0.5220
  137OSM   H14T14922   0.843   5.478   7.964  1.9072  0.1959  3.1370
  137OSM   C15S14923   0.862   5.683   7.936 -0.4497  0.2404  0.1940
  137OSM   H15S14924   0.754   5.699   7.916 -0.8383 -0.7234  1.3941
  137OSM   H15T14925   0.919   5.747   7.866  0.9455  1.0804  2.0207
  137OSM   C16S14926   0.889   5.704   8.086  0.1755 -0.2932 -0.0660
  137OSM   H16S14927   0.994   5.699   8.120 -0.5533 -1.3041  2.2168
  137OSM   H16T14928   0.833   5.631   8.148  2.1042 -0.4581  1.5705
  137OSM   C17S14929   0.838   5.845   8.129 -1.0400 -0.4170 -0.2020
  137OSM   H17S14930   0.729   5.851   8.107 -0.8708  0.9036 -0.7715
  137OSM   H17T14931   0.885   5.926   8.070 -1.8580 -0.5504 -1.0712
  137OSM   C18S14932   0.870   5.866   8.281  0.4169 -0.7352  0.3773
  137OSM   H18S14933   0.979   5.883   8.295  0.2985  0.8774 -0.4093
  137OSM   H18T14934   0.846   5.783   8.350  0.0831 -0.3580  0.7202
  137OSM   H18U14935   0.818   5.962   8.304  2.0424  0.4934 -0.8346
  137OSM    C1F14936   0.656   4.875   6.753  0.4352  0.2105 -0.3889
  137OSM     OF14937   0.757   4.814   6.727  0.4736 -0.0119 -0.3956
  137OSM    C2F14938   0.542   4.802   6.822  0.6930  0.0629  0.1844
  137OSM    H2F14939   0.498   4.730   6.750 -2.3831  1.3291  0.6281
  137OSM    H2G14940   0.469   4.875   6.864 -0.0592 -1.0466  0.8244
  137OSM    C3F14941   0.581   4.725   6.946  0.2319 -0.0861 -0.5193
  137OSM    H3F14942   0.680   4.675   6.939  0.9935  0.0879  4.8130
  137OSM    H3G14943   0.508   4.642   6.960  1.0513 -0.5514  1.2571
  137OSM    C4F14944   0.594   4.814   7.072  0.5636  0.3995  0.3252
  137OSM    H4F14945   0.511   4.888   7.079 -0.0972 -0.4457  1.8005
  137OSM    H4G14946   0.698   4.853   7.068 -0.0652  2.1142 -0.1900
  137OSM    C5F14947   0.583   4.735   7.199 -0.2273  0.1175  0.6335
  137OSM    H5F14948   0.654   4.650   7.205  0.0116  0.3407  0.9247
  137OSM    H5G14949   0.479   4.695   7.208  0.4131 -1.7486  0.2454
  137OSM    C6F14950   0.608   4.824   7.318 -0.8172  0.2481 -0.2116
  137OSM    H6F14951   0.567   4.781   7.412  0.0009 -0.3191 -0.1081
  137OSM    H6G14952   0.569   4.928   7.308  0.6597  0.8805  0.3175
  137OSM    C7F14953   0.765   4.836   7.343  0.6508 -0.2863  0.2559
  137OSM    H7F14954   0.801   4.910   7.268  0.1196  0.9235  1.1568
  137OSM    H7G14955   0.810   4.736   7.327 -1.9193 -1.5222  0.2660
  137OSM    C8F14956   0.796   4.900   7.481 -0.3167  0.6153 -0.4561
  137OSM    H8F14957   0.726   4.986   7.495  0.9471  1.8879 -1.6286
  137OSM    H8G14958   0.899   4.941   7.479 -0.0889  0.1419  0.7710
  137OSM    C9F14959   0.783   4.805   7.603  0.3899  0.4947 -0.1661
  137OSM    H9F14960   0.702   4.731   7.593  0.4811  0.0653  1.8941
  137OSM   C10F14961   0.871   4.798   7.710  0.2747 -0.4229  1.2820
  137OSM   H10F14962   0.838   4.726   7.786  0.5913 -2.8362 -0.7357
  137OSM   C11F14963   0.987   4.902   7.729  0.5080  0.0648 -0.3191
  137OSM   H11F14964   0.986   4.986   7.658 -1.6012  2.8046  2.6599
  137OSM   H11G14965   1.085   4.848   7.728  0.5616  0.0912  1.1856
  137OSM   C12F14966   0.982   4.968   7.865  0.1766  0.8457  0.1859
  137OSM   H12F14967   1.062   5.044   7.873 -0.2010  1.0420  3.5215
  137OSM   H12G14968   1.004   4.896   7.947 -0.1216 -2.0574 -2.1586
  137OSM   C13F14969   0.858   5.055   7.894  0.8258  1.2862 -0.5706
  137OSM   H13F14970   0.764   4.998   7.878  1.0252  0.5815  0.6119
  137OSM   H13G14971   0.866   5.147   7.833 -0.5051  2.6774  1.2330
  137OSM   C14F14972   0.857   5.111   8.039  0.4190 -0.4561 -0.2576
  137OSM   H14F14973   0.939   5.185   8.043 -1.1877  1.3518  3.0830
  137OSM   H14G14974   0.881   5.025   8.105  0.7718  0.9208  1.4466
  137OSM   C15F14975   0.737   5.198   8.080 -0.2604  0.3708 -0.4695
  137OSM   H15F14976   0.646   5.134   8.081  1.1358 -1.7570  1.0810
  137OSM   H15G14977   0.724   5.287   8.015 -1.9709 -1.1966 -2.4175
  137OSM   C16F14978   0.749   5.259   8.222  0.0859 -0.2426  0.2406
  137OSM   H16F14979   0.851   5.304   8.223  0.6495 -1.4136 -1.1452
  137OSM   H16G14980   0.746   5.171   8.290 -0.3213 -0.1264  0.3743
  137OSM   C17F14981   0.637   5.361   8.247  0.0185  0.0013  0.1722
  137OSM   H17F14982   0.538   5.313   8.231  0.1151 -0.2979  0.4417
  137OSM   H17G14983   0.645   5.446   8.176  0.0527 -1.0087 -1.0706
  137OSM   C18F14984   0.637   5.438   8.383  0.1263 -0.3455  0.2416
  137OSM   H18F14985   0.544   5.498   8.388  1.1922  1.2733  1.9080
  137OSM   H18G14986   0.717   5.515   8.379  0.4107 -0.7126 -2.4951
  137OSM   H18H14987   0.653   5.365   8.465 -0.9048 -1.1157 -0.2251
  138OSM      N14988   0.810   0.884   6.060  0.3039 -0.3083 -0.2158
  138OSM    C1514989   0.769   1.001   5.971  0.4040  0.1049  0.0800
  138OSM   H15A14990   0.732   0.970   5.874  0.3149  0.2127  0.0793
  138OSM   H15B14991   0.851   1.070   5.957  0.2564  0.6198  1.5898
  138OSM   H15C14992   0.690   1.058   6.017 -2.6011 -2.0599 -2.0152
  138OSM    C1414993   0.930   0.818   5.995 -0.1238  1.1978  0.7838
  138OSM   H14A14994   0.978   0.744   6.057  1.2178  0.8613 -0.5949
  138OSM   H14B14995   1.008   0.889   5.972  0.9246  0.1438  0.9681
  138OSM   H14C14996   0.907   0.770   5.901 -0.4303  0.5745  1.1691
  138OSM    C1314997   0.864   0.944   6.190 -0.1877  0.0782 -0.4825
  138OSM   H13A14998   0.794   1.005   6.245  1.5774  1.2557  0.5698
  138OSM   H13B14999   0.959   0.993   6.176  0.1483 -0.5457 -0.4272
  138OSM   H13C15000   0.888   0.867   6.263 -1.0167 -1.9899 -2.2767
  138OSM    C1215001   0.701   0.795   6.091 -0.0224  0.1518 -0.0253
  138OSM   H12A15002   0.663   0.761   5.996 -0.0646  0.0251  0.0374
  138OSM   H12B15003   0.627   0.853   6.145  0.2645  0.4504  0.0547
  138OSM    C1115004   0.732   0.667   6.167 -0.6815  0.0983 -1.1629
  138OSM   H11A15005   0.664   0.645   6.252  0.2710  0.5421 -0.2602
  138OSM   H11B15006   0.820   0.691   6.230 -0.6813 -0.5320 -0.9201
  138OSM      P15007   0.649   0.477   6.005 -0.1035  0.0778 -0.3394
  138OSM    O1315008   0.540   0.560   5.958  0.4380  0.0276 -0.0756
  138OSM    O1415009   0.714   0.379   5.913 -0.5772 -0.0847 -0.0422
  138OSM    O1115010   0.594   0.400   6.138 -0.0978  0.6471 -0.1914
  138OSM    O1215011   0.765   0.562   6.074  0.4542 -0.2030 -0.3166
  138OSM    C1S15012   0.685   0.337   6.227  0.4368  0.0948 -0.3822
  138OSM    H1S15013   0.783   0.389   6.231 -0.0580  1.0096  3.0298
  138OSM    H1T15014   0.698   0.228   6.207  1.0191  0.0738  0.0593
  138OSM     NF15015   0.737   0.297   6.457 -0.5554  0.6643  0.1794
  138OSM    HNF15016   0.748   0.203   6.490  2.3483  0.2840 -1.4807
  138OSM    C2S15017   0.626   0.328   6.368  0.1604  0.0460 -1.3317
  138OSM    H2S15018   0.589   0.430   6.393  2.0392  0.7611 -1.2853
  138OSM    C3S15019   0.502   0.236   6.370  0.1961  0.1352 -0.1049
  138OSM    H3S15020   0.532   0.130   6.352  0.1063 -0.0460  0.7514
  138OSM     O315021   0.412   0.263   6.262  0.2415 -0.2866  0.3502
  138OSM    HO315022   0.455   0.336   6.217  0.7282 -0.3246  0.7491
  138OSM    C4S15023   0.428   0.245   6.501  0.3654  0.5589 -0.2134
  138OSM    H4S15024   0.384   0.345   6.506  0.0575  0.4252 -0.2300
  138OSM    C5S15025   0.419   0.163   6.608 -0.1158 -0.0392  0.2476
  138OSM    H5S15026   0.471   0.066   6.605 -0.2115 -0.0783 -0.2115
  138OSM    C6S15027   0.347   0.195   6.733  0.0257  0.3649 -0.4059
  138OSM    H6S15028   0.288   0.107   6.768  2.7877 -1.0676  1.0248
  138OSM    H6T15029   0.282   0.285   6.727  0.0037  0.5085  1.3008
  138OSM    C7S15030   0.450   0.214   6.848  0.8986 -0.0364 -0.5978
  138OSM    H7S15031   0.526   0.290   6.820  0.3609  0.7902  0.1320
  138OSM    H7T15032   0.499   0.115   6.859  1.3788  0.3879  1.5253
  138OSM    C8S15033   0.384   0.246   6.979 -0.1778  0.9461  0.3921
  138OSM    H8S15034   0.316   0.161   7.000 -1.3797  1.1805 -2.2118
  138OSM    H8T15035   0.331   0.344   6.977  0.2082  1.1660  0.7402
  138OSM    C9S15036   0.479   0.254   7.101  0.1037  1.9414  0.1882
  138OSM    H9S15037   0.541   0.346   7.106 -1.2787  2.8902  0.2920
  138OSM    H9T15038   0.556   0.174   7.097 -0.0773  1.5583  2.6675
  138OSM   C10S15039   0.394   0.250   7.228  0.2631  0.1117  0.7060
  138OSM   H10S15040   0.335   0.156   7.233 -0.2062  0.3406 -0.2434
  138OSM   H10T15041   0.329   0.339   7.210 -1.4600 -1.3880 -0.8543
  138OSM   C11S15042   0.480   0.270   7.357  0.5750  0.8447  0.1836
  138OSM   H11S15043   0.552   0.352   7.341  2.2872 -0.3228  1.5449
  138OSM   H11T15044   0.531   0.171   7.364 -0.8491  0.0989  0.6027
  138OSM   C12S15045   0.383   0.294   7.474 -0.5921  0.9640  0.3677
  138OSM   H12S15046   0.300   0.220   7.477  0.3048 -0.1046 -0.1889
  138OSM   H12T15047   0.347   0.399   7.469 -1.0283  0.8502  0.9869
  138OSM   C13S15048   0.468   0.276   7.601 -0.5555  0.6047  0.7835
  138OSM   H13S15049   0.557   0.342   7.596 -0.3390  0.5254  2.6684
  138OSM   H13T15050   0.504   0.172   7.621  1.7017  1.6354  2.4372
  138OSM   C14S15051   0.381   0.316   7.728  0.2529 -0.0876  0.4659
  138OSM   H14S15052   0.291   0.251   7.737 -0.4441  0.9487  1.2548
  138OSM   H14T15053   0.350   0.421   7.713 -0.8658 -0.3711  0.6935
  138OSM   C15S15054   0.457   0.287   7.859 -1.4598 -0.1754  0.0773
  138OSM   H15S15055   0.558   0.334   7.849 -0.7387 -1.7258 -0.3164
  138OSM   H15T15056   0.452   0.177   7.871 -2.8274 -0.5006 -2.7246
  138OSM   C16S15057   0.383   0.345   7.975  0.0171  0.3089 -1.0147
  138OSM   H16S15058   0.280   0.303   7.976  0.1069  0.1066 -0.4430
  138OSM   H16T15059   0.376   0.456   7.965  1.2021  0.3013 -2.2480
  138OSM   C17S15060   0.445   0.325   8.121  0.4804 -0.1485 -0.2970
  138OSM   H17S15061   0.546   0.369   8.133  1.8032 -3.6066  4.3099
  138OSM   H17T15062   0.453   0.218   8.152  1.1382 -0.4379 -1.4101
  138OSM   C18S15063   0.349   0.388   8.225  0.3767 -0.0513  0.4760
  138OSM   H18S15064   0.335   0.493   8.189 -0.4091 -0.8589 -1.7650
  138OSM   H18T15065   0.393   0.391   8.327  0.7596 -0.5608  0.3334
  138OSM   H18U15066   0.245   0.350   8.214  0.2232  0.5467 -0.2475
  138OSM    C1F15067   0.838   0.381   6.476  0.2935  0.1284 -0.3211
  138OSM     OF15068   0.827   0.502   6.460 -0.0290 -0.0818  0.4588
  138OSM    C2F15069   0.961   0.315   6.529 -0.4884 -0.4536  0.0012
  138OSM    H2F15070   1.027   0.285   6.445 -1.3036 -0.7958 -0.5257
  138OSM    H2G15071   0.930   0.226   6.588 -2.0495  0.9597  1.4218
  138OSM    C3F15072   1.044   0.397   6.632 -0.3467  0.5677  0.3831
  138OSM    H3F15073   0.977   0.435   6.712 -2.3366  0.4224 -1.1315
  138OSM    H3G15074   1.095   0.488   6.593 -0.3279  1.0460  1.4689
  138OSM    C4F15075   1.168   0.325   6.697 -0.1426  0.7979 -0.5507
  138OSM    H4F15076   1.241   0.297   6.618  2.7123 -1.1704  2.5182
  138OSM    H4G15077   1.140   0.231   6.749 -3.8080  1.3246 -1.2886
  138OSM    C5F15078   1.244   0.414   6.796 -0.7788  0.1400  0.2242
  138OSM    H5F15079   1.285   0.506   6.750 -1.4310  0.3246 -0.0081
  138OSM    H5G15080   1.329   0.349   6.828 -2.4386 -2.9187 -1.0836
  138OSM    C6F15081   1.160   0.465   6.913 -0.0643 -0.0177 -0.4669
  138OSM    H6F15082   1.107   0.384   6.967  1.5476 -1.1852 -0.5608
  138OSM    H6G15083   1.075   0.518   6.864 -0.3412 -1.3135 -1.4399
  138OSM    C7F15084   1.228   0.558   7.015  0.4013 -0.1013 -0.6012
  138OSM    H7F15085   1.164   0.640   7.054  0.4819 -0.4401  0.2722
  138OSM    H7G15086   1.312   0.614   6.969  1.2394 -0.3107  0.6150
  138OSM    C8F15087   1.285   0.486   7.131 -0.1627 -0.5982  0.1406
  138OSM    H8F15088   1.364   0.550   7.176 -0.3817  0.0815 -0.4303
  138OSM    H8G15089   1.331   0.390   7.097  0.2226  0.2811 -1.9511
  138OSM    C9F15090   1.181   0.454   7.229 -0.2453 -0.2948 -0.2992
  138OSM    H9F15091   1.093   0.401   7.190  0.6551 -0.9203 -1.5604
  138OSM   C10F15092   1.187   0.460   7.365 -0.2396 -1.1158  0.4194
  138OSM   H10F15093   1.099   0.428   7.423  1.3637 -0.0689  3.7172
  138OSM   C11F15094   1.300   0.511   7.443 -0.3252 -0.1484  0.6534
  138OSM   H11F15095   1.333   0.607   7.400  3.2042  0.6521  4.4983
  138OSM   H11G15096   1.388   0.442   7.442  1.6102  2.1841  0.8059
  138OSM   C12F15097   1.277   0.534   7.586  0.1071 -0.6689 -0.4703
  138OSM   H12F15098   1.271   0.438   7.640  1.1322 -0.0374  0.8184
  138OSM   H12G15099   1.180   0.586   7.604  0.9478  0.5446  0.8141
  138OSM   C13F15100   1.383   0.632   7.642  0.3721  0.2316 -0.0648
  138OSM   H13F15101   1.413   0.712   7.571  0.8817 -0.0704 -0.1961
  138OSM   H13G15102   1.481   0.580   7.655 -0.3060 -1.5153 -1.4111
  138OSM   C14F15103   1.350   0.689   7.783  1.0009  0.1511  0.3016
  138OSM   H14F15104   1.347   0.615   7.866  0.6571 -0.0257  0.1407
  138OSM   H14G15105   1.246   0.728   7.773  0.8335 -0.5718 -1.1123
  138OSM   C15F15106   1.449   0.807   7.823  0.6115 -0.0585 -0.4186
  138OSM   H15F15107   1.414   0.895   7.766  0.1815  1.4960  2.1237
  138OSM   H15G15108   1.556   0.779   7.812  0.1866 -1.4213 -1.3582
  138OSM   C16F15109   1.438   0.842   7.969 -0.6987 -0.1818  0.5181
  138OSM   H16F15110   1.495   0.770   8.031  0.1452  1.6001  1.9163
  138OSM   H16G15111   1.334   0.831   8.006 -1.2975 -2.4385 -1.5883
  138OSM   C17F15112   1.493   0.980   8.012  0.5179 -0.2958 -0.4251
  138OSM   H17F15113   1.475   1.061   7.938  0.6119 -0.2777 -0.4282
  138OSM   H17G15114   1.604   0.971   8.011  0.4941 -0.5991 -0.7522
  138OSM   C18F15115   1.460   1.037   8.146  0.0649 -0.2958 -0.2322
  138OSM   H18F15116   1.516   0.988   8.228 -2.4336 -1.6010  0.8114
  138OSM   H18G15117   1.354   1.012   8.170 -0.5979  0.8599 -1.7696
  138OSM   H18H15118   1.471   1.147   8.157 -0.1584 -0.3988  1.3422
  139OSM      N15119   0.268   2.770   5.969  0.5419  0.3369  0.5922
  139OSM    C1515120   0.192   2.787   5.832 -0.1858 -0.2249  0.9335
  139OSM   H15A15121   0.085   2.773   5.839 -0.3265 -0.6391 -1.2466
  139OSM   H15B15122   0.234   2.713   5.765 -0.0034  1.0209 -0.3805
  139OSM   H15C15123   0.213   2.885   5.793  0.2405 -1.0798 -1.1171
  139OSM    C1415124   0.420   2.779   5.940 -0.1204  0.1732 -0.1057
  139OSM   H14A15125   0.452   2.686   5.895  1.9790  0.9413 -0.2898
  139OSM   H14B15126   0.478   2.803   6.028  1.8610  0.3356 -1.3850
  139OSM   H14C15127   0.431   2.865   5.875 -0.6067  1.3440  1.3121
  139OSM    C1315128   0.226   2.884   6.053  0.6297 -0.2972 -0.1258
  139OSM   H13A15129   0.119   2.882   6.066  0.5967  1.9519  0.2427
  139OSM   H13B15130   0.253   2.973   5.999 -0.1709  1.1384  1.7396
  139OSM   H13C15131   0.274   2.875   6.149  1.2935 -2.0539 -0.5719
  139OSM    C1215132   0.223   2.640   6.039  0.1752  0.0367  0.4869
  139OSM   H12A15133   0.232   2.548   5.984  1.7030  0.3048  0.2556
  139OSM   H12B15134   0.116   2.653   6.049 -0.0121 -0.4921 -0.6988
  139OSM    C1115135   0.291   2.611   6.174  0.7268  0.0747  0.7489
  139OSM   H11A15136   0.237   2.518   6.203 -1.3366 -1.4021 -5.9431
  139OSM   H11B15137   0.257   2.691   6.244 -1.0725  0.8290 -0.8714
  139OSM      P15138   0.493   2.467   6.104  0.0237 -0.4181 -0.1299
  139OSM    O1315139   0.396   2.413   6.007  0.0889 -0.5705  0.3669
  139OSM    O1415140   0.628   2.488   6.050  0.2114 -0.0203 -0.0509
  139OSM    O1115141   0.515   2.376   6.236  1.1869  0.4492 -0.1111
  139OSM    O1215142   0.433   2.601   6.169  0.5177  0.2895 -0.2314
  139OSM    C1S15143   0.588   2.420   6.355  0.3390 -0.1140  0.3787
  139OSM    H1S15144   0.649   2.511   6.339 -1.8803  1.6908  1.5560
  139OSM    H1T15145   0.666   2.345   6.379 -1.4863 -3.2365 -2.5658
  139OSM     NF15146   0.594   2.494   6.588  0.6016 -0.1586 -0.1561
  139OSM    HNF15147   0.637   2.431   6.652 -1.5154 -1.3152  0.1995
  139OSM    C2S15148   0.501   2.439   6.486 -0.5393 -0.1491  0.5939
  139OSM    H2S15149   0.425   2.520   6.475  0.1547  0.3695 -0.5108
  139OSM    C3S15150   0.436   2.297   6.525 -0.4207 -0.7844  0.3201
  139OSM    H3S15151   0.523   2.230   6.544 -0.5655 -1.1766 -0.3734
  139OSM     O315152   0.355   2.230   6.419  0.4207  0.4125 -0.3535
  139OSM    HO315153   0.347   2.299   6.353  2.2736 -0.9639 -2.1688
  139OSM    C4S15154   0.366   2.304   6.653  0.2722  0.0053 -1.3119
  139OSM    H4S15155   0.428   2.283   6.741 -1.6865  3.8445  1.2377
  139OSM    C5S15156   0.239   2.339   6.669 -0.0177 -0.7003 -0.4926
  139OSM    H5S15157   0.181   2.382   6.586 -2.0734  0.7272  1.5457
  139OSM    C6S15158   0.159   2.350   6.805  0.0289 -0.1755  0.1872
  139OSM    H6S15159   0.061   2.297   6.806 -1.0979  1.6203 -2.7281
  139OSM    H6T15160   0.127   2.455   6.822  2.1157  0.3892  0.8369
  139OSM    C7S15161   0.242   2.308   6.935  0.6219 -0.3884  0.2683
  139OSM    H7S15162   0.345   2.349   6.928  0.6866 -0.7574 -1.3304
  139OSM    H7T15163   0.247   2.197   6.944  1.1690 -0.3952 -0.0366
  139OSM    C8S15164   0.160   2.359   7.059 -0.3490  0.1852 -0.5093
  139OSM    H8S15165   0.069   2.295   7.070 -1.5839  1.9284 -0.1535
  139OSM    H8T15166   0.113   2.459   7.053 -1.2457  0.1509  3.3952
  139OSM    C9S15167   0.233   2.353   7.191  0.7977  0.7996  0.3249
  139OSM    H9S15168   0.319   2.421   7.172  0.3022  1.2528 -0.3702
  139OSM    H9T15169   0.264   2.246   7.197  2.0456  1.0546 -1.0305
  139OSM   C10S15170   0.150   2.402   7.302 -0.2723  0.0270  0.1317
  139OSM   H10S15171   0.061   2.336   7.304  0.6109 -1.2167 -0.4344
  139OSM   H10T15172   0.129   2.509   7.282  0.5789  0.4685  1.4826
  139OSM   C11S15173   0.219   2.400   7.441  0.0733  0.2246  0.7126
  139OSM   H11S15174   0.249   2.297   7.472  0.8770  0.4008  0.5516
  139OSM   H11T15175   0.140   2.445   7.505  1.3972  1.5715  1.4716
  139OSM   C12S15176   0.341   2.494   7.451 -0.2848 -0.0497  0.6408
  139OSM   H12S15177   0.325   2.599   7.419  1.0200  0.5898  1.9460
  139OSM   H12T15178   0.423   2.442   7.396 -1.9922 -2.2993  0.0478
  139OSM   C13S15179   0.383   2.496   7.598  0.1467 -1.0298  0.3840
  139OSM   H13S15180   0.479   2.549   7.614 -1.7971  2.0093  3.4657
  139OSM   H13T15181   0.399   2.393   7.637 -2.3820 -2.0631 -1.0736
  139OSM   C14S15182   0.286   2.563   7.691  0.0322 -0.6905 -0.1283
  139OSM   H14S15183   0.201   2.491   7.693 -0.6896  0.1228 -0.8443
  139OSM   H14T15184   0.248   2.661   7.655 -2.0653 -1.2650  0.4146
  139OSM   C15S15185   0.346   2.575   7.836 -1.0280 -0.0396  0.3275
  139OSM   H15S15186   0.411   2.665   7.839 -1.0537 -0.0351  1.6181
  139OSM   H15T15187   0.404   2.484   7.864 -2.6968 -1.1556  0.3339
  139OSM   C16S15188   0.246   2.595   7.947  0.2274  0.1595  0.3428
  139OSM   H16S15189   0.167   2.520   7.927 -1.3532  1.6017  1.0269
  139OSM   H16T15190   0.204   2.697   7.950 -1.5564 -0.5765  2.1023
  139OSM   C17S15191   0.309   2.569   8.084 -0.4724 -1.1655 -0.1405
  139OSM   H17S15192   0.403   2.625   8.098 -2.2066  2.2213 -0.8882
  139OSM   H17T15193   0.341   2.463   8.077  0.7686 -0.8296  0.2895
  139OSM   C18S15194   0.218   2.584   8.201  0.1413 -0.2900  0.4332
  139OSM   H18S15195   0.201   2.481   8.240 -2.3522 -0.9419 -2.0380
  139OSM   H18T15196   0.116   2.613   8.167  0.6105 -0.3866 -1.1064
  139OSM   H18U15197   0.260   2.653   8.277  0.7262 -0.4338  0.2420
  139OSM    C1F15198   0.633   2.626   6.600 -1.0534  0.9465 -1.0687
  139OSM     OF15199   0.602   2.703   6.515 -0.9251  0.0215 -0.3160
  139OSM    C2F15200   0.716   2.661   6.728 -0.5986 -0.2260 -0.4177
  139OSM    H2F15201   0.820   2.625   6.710 -1.1409 -0.9287 -2.3992
  139OSM    H2G15202   0.683   2.600   6.814 -0.6847 -1.0602 -1.0298
  139OSM    C3F15203   0.717   2.809   6.764 -0.7479  0.1357 -0.2546
  139OSM    H3F15204   0.615   2.848   6.786 -1.4602 -1.6831 -0.1592
  139OSM    H3G15205   0.736   2.863   6.668 -1.2981 -1.7793 -1.5087
  139OSM    C4F15206   0.810   2.854   6.881 -0.4849 -0.2560 -0.2545
  139OSM    H4F15207   0.804   2.965   6.890  1.3779 -0.1835  0.5904
  139OSM    H4G15208   0.917   2.832   6.864 -0.3279 -0.3225  0.7543
  139OSM    C5F15209   0.764   2.805   7.021 -0.3796  0.7582  0.3909
  139OSM    H5F15210   0.747   2.695   7.022  2.8117  0.1185 -1.6584
  139OSM    H5G15211   0.665   2.853   7.036 -0.2521  0.6510  1.6606
  139OSM    C6F15212   0.856   2.838   7.133  0.1981 -0.0979  0.5031
  139OSM    H6F15213   0.906   2.932   7.102  0.2304 -1.2338 -3.3155
  139OSM    H6G15214   0.943   2.770   7.141  1.2610  1.4136  2.8216
  139OSM    C7F15215   0.779   2.848   7.265 -0.2303  0.6494 -0.1146
  139OSM    H7F15216   0.689   2.913   7.251 -0.1885  0.7506  0.0868
  139OSM    H7G15217   0.844   2.905   7.335 -0.5096  0.4006  0.3510
  139OSM    C8F15218   0.754   2.719   7.345 -0.2076  0.1931  0.0793
  139OSM    H8F15219   0.689   2.655   7.281  0.9701 -0.9522 -0.0034
  139OSM    H8G15220   0.700   2.739   7.440  0.3109 -0.5135  0.5352
  139OSM    C9F15221   0.877   2.626   7.371 -0.0149  0.1742  0.0280
  139OSM    H9F15222   0.889   2.555   7.288 -3.7363 -0.6702  0.0246
  139OSM   C10F15223   0.961   2.633   7.477 -0.3294 -0.7913  0.2714
  139OSM   H10F15224   1.043   2.559   7.476  0.4901  0.0898  0.3817
  139OSM   C11F15225   0.958   2.734   7.582  0.1845 -0.0244 -0.2903
  139OSM   H11F15226   0.876   2.802   7.553 -0.5260 -1.4938 -1.8716
  139OSM   H11G15227   1.061   2.777   7.581  0.5167 -0.7929 -2.0949
  139OSM   C12F15228   0.919   2.660   7.712 -0.2736 -0.5039  0.5390
  139OSM   H12F15229   0.921   2.734   7.796  2.4317 -0.2450  0.3372
  139OSM   H12G15230   0.995   2.581   7.731  0.4922  0.1713  0.3605
  139OSM   C13F15231   0.770   2.606   7.705 -0.6130 -0.1789  0.6003
  139OSM   H13F15232   0.749   2.557   7.608  0.5919  0.7403 -0.1435
  139OSM   H13G15233   0.696   2.688   7.717 -0.9321 -0.2642 -0.6697
  139OSM   C14F15234   0.742   2.518   7.822 -0.2865  0.5806 -0.0437
  139OSM   H14F15235   0.818   2.440   7.842 -0.8141 -0.2993 -1.3164
  139OSM   H14G15236   0.641   2.475   7.804 -1.8474  3.3472  1.2849
  139OSM   C15F15237   0.725   2.603   7.954  0.6510 -0.6839  0.2496
  139OSM   H15F15238   0.652   2.687   7.945  1.9258  0.8150  2.7825
  139OSM   H15G15239   0.824   2.652   7.964  0.7834  0.6205 -4.5740
  139OSM   C16F15240   0.689   2.517   8.076  0.0192  0.4526  0.0302
  139OSM   H16F15241   0.611   2.442   8.052  0.8953 -0.3024 -0.5029
  139OSM   H16G15242   0.647   2.586   8.154  0.6505  1.7870 -0.7782
  139OSM   C17F15243   0.823   2.462   8.144 -0.6719  0.3696  0.1050
  139OSM   H17F15244   0.894   2.543   8.170  0.5285  0.0748 -2.0017
  139OSM   H17G15245   0.866   2.389   8.073  0.0872 -0.3968  1.3245
  139OSM   C18F15246   0.785   2.379   8.274 -0.1402  0.0168 -0.3624
  139OSM   H18F15247   0.885   2.339   8.302 -0.3410 -0.5843 -0.4845
  139OSM   H18G15248   0.702   2.306   8.261 -1.6784  1.4625  0.7401
  139OSM   H18H15249   0.741   2.454   8.343 -0.3541  1.6268 -2.1699
  140OSM      N15250   6.422   4.083   6.351 -0.8970 -0.4035 -0.6908
  140OSM    C1515251   6.480   4.027   6.479  1.0731 -0.0412 -0.7240
  140OSM   H15A15252   6.500   4.104   6.552  0.6560 -0.7671  0.1770
  140OSM   H15B15253   6.571   3.974   6.455 -1.0336 -3.2973 -2.3006
  140OSM   H15C15254   6.410   3.960   6.527 -0.6655  3.4129  1.9397
  140OSM    C1415255   6.301   4.163   6.394  0.3192 -0.2916  0.3067
  140OSM   H14A15256   6.210   4.110   6.416 -0.0627 -0.9653 -2.5249
  140OSM   H14B15257   6.281   4.221   6.305  1.6356 -1.5359 -0.8487
  140OSM   H14C15258   6.330   4.238   6.466  1.9914  0.5453 -1.1636
  140OSM    C1315259   6.530   4.174   6.292  0.4895 -0.4837 -0.0436
  140OSM   H13A15260   6.503   4.212   6.195 -0.3531  0.6996  0.6194
  140OSM   H13B15261   6.620   4.117   6.274  0.6861 -0.7751  1.7174
  140OSM   H13C15262   6.553   4.258   6.357  0.4341 -0.1461 -0.4519
  140OSM    C1215263   6.381   3.970   6.258 -0.3906 -0.1254  0.5741
  140OSM   H12A15264   6.359   4.014   6.162  0.4258  1.5876  1.1346
  140OSM   H12B15265   6.289   3.921   6.286 -0.5962 -0.3485 -0.4317
  140OSM    C1115266   6.480   3.852   6.227  0.1571  0.0498 -0.2965
  140OSM   H11A15267   6.583   3.894   6.230  0.6492 -1.1139 -0.5956
  140OSM   H11B15268   6.466   3.806   6.127 -1.9109 -1.0639  0.4566
  140OSM      P15269   6.350   3.653   6.332  0.2907  0.0548 -0.0079
  140OSM    O1315270   6.229   3.735   6.309  0.1348 -0.0688 -0.3076
  140OSM    O1415271   6.374   3.549   6.238  1.2524  0.6561  0.4164
  140OSM    O1115272   6.346   3.600   6.478  0.4221 -0.0175  0.1354
  140OSM    O1215273   6.475   3.747   6.327  0.2414 -0.3381 -0.3036
  140OSM    C1S15274   6.386   3.704   6.569  1.1757 -0.4684  0.5655
  140OSM    H1S15275   6.317   3.791   6.566  0.9071 -0.7084 -0.6084
  140OSM    H1T15276   6.488   3.746   6.564  1.3795 -0.6679  2.3329
  140OSM     NF15277   6.414   3.770   6.811 -1.1316  0.3333 -0.7121
  140OSM    HNF15278   6.504   3.797   6.846 -1.4282  1.9475 -1.1000
  140OSM    C2S15279   6.399   3.655   6.720  0.8264 -0.5849 -0.0443
  140OSM    H2S15280   6.303   3.605   6.744 -0.9853  1.0688 -3.2395
  140OSM    C3S15281   6.511   3.538   6.720 -0.8256 -0.0693 -0.5560
  140OSM    H3S15282   6.604   3.595   6.697 -1.5745  1.4648  0.0693
  140OSM     O315283   6.491   3.439   6.616 -0.0025  0.1006 -0.2569
  140OSM    HO315284   6.427   3.487   6.563  3.6665  3.7210 -1.9179
  140OSM    C4S15285   6.513   3.479   6.862  0.0406  0.4584  0.2842
  140OSM    H4S15286   6.567   3.529   6.943  1.1172  2.0913 -1.3844
  140OSM    C5S15287   6.451   3.362   6.893 -0.5592  0.0673  0.2639
  140OSM    H5S15288   6.398   3.311   6.811 -1.1566  0.6105  0.3089
  140OSM    C6S15289   6.424   3.300   7.031  0.1647  0.0060  0.3772
  140OSM    H6S15290   6.475   3.203   7.046 -0.1855 -0.0150  1.5237
  140OSM    H6T15291   6.316   3.275   7.035 -0.0010  0.8130  1.3108
  140OSM    C7S15292   6.450   3.386   7.155  0.1592 -0.0919 -0.1520
  140OSM    H7S15293   6.422   3.493   7.142 -0.3010 -0.0555  1.0746
  140OSM    H7T15294   6.560   3.399   7.159  0.3688 -0.7268 -2.2505
  140OSM    C8S15295   6.402   3.337   7.287 -0.5775 -0.0718  0.1055
  140OSM    H8S15296   6.450   3.241   7.313 -0.1230  0.3757  0.9632
  140OSM    H8T15297   6.292   3.320   7.288 -0.0524 -4.8012  2.0129
  140OSM    C9S15298   6.447   3.427   7.404  0.1902 -0.6048 -0.3387
  140OSM    H9S15299   6.434   3.534   7.377  0.5631  0.1505  2.2312
  140OSM    H9T15300   6.555   3.403   7.412  0.0046 -1.6643 -0.8862
  140OSM   C10S15301   6.381   3.415   7.544 -0.1074 -0.6526  0.0415
  140OSM   H10S15302   6.422   3.337   7.612  0.3377 -0.3364  0.1363
  140OSM   H10T15303   6.274   3.388   7.529 -0.0309 -1.8489  1.4517
  140OSM   C11S15304   6.388   3.537   7.632 -0.0974 -0.2973 -0.3865
  140OSM   H11S15305   6.377   3.632   7.574 -2.2090  0.3519  0.9409
  140OSM   H11T15306   6.487   3.536   7.680  0.9598  0.9726 -2.3786
  140OSM   C12S15307   6.268   3.536   7.722 -0.2370 -0.1821 -0.6855
  140OSM   H12S15308   6.172   3.541   7.665 -0.3435  0.1749 -0.4787
  140OSM   H12T15309   6.271   3.628   7.785  0.1491 -0.8987  0.3726
  140OSM   C13S15310   6.270   3.421   7.828 -0.0420 -0.4270  0.1734
  140OSM   H13S15311   6.267   3.323   7.776 -0.3902 -0.4424  0.2207
  140OSM   H13T15312   6.182   3.444   7.893 -0.0252  2.5513 -0.7070
  140OSM   C14S15313   6.404   3.408   7.910  0.0257 -1.0751 -0.5813
  140OSM   H14S15314   6.497   3.391   7.851 -0.0684 -0.0914 -1.0244
  140OSM   H14T15315   6.391   3.318   7.974 -0.8584  1.6506  3.4598
  140OSM   C15S15316   6.423   3.539   7.990  1.4446  0.1843  0.3969
  140OSM   H15S15317   6.334   3.540   8.057  2.2551  0.8653  1.4966
  140OSM   H15T15318   6.432   3.630   7.927 -1.4993  0.0611 -0.3583
  140OSM   C16S15319   6.547   3.533   8.080  0.0142 -0.0899 -0.7222
  140OSM   H16S15320   6.559   3.634   8.124  1.6406 -1.3456  2.0112
  140OSM   H16T15321   6.630   3.520   8.009 -0.7151  2.4540 -2.1662
  140OSM   C17S15322   6.546   3.427   8.188  0.8483  0.3079  0.6588
  140OSM   H17S15323   6.538   3.328   8.138 -1.6932  0.0393  1.4127
  140OSM   H17T15324   6.459   3.436   8.258  0.8967  0.0639  0.7524
  140OSM   C18S15325   6.679   3.427   8.266  0.4648 -0.6656  0.6116
  140OSM   H18S15326   6.689   3.533   8.299 -0.8140  0.2397 -1.6786
  140OSM   H18T15327   6.758   3.390   8.198  0.6834  0.1386  0.4197
  140OSM   H18U15328   6.666   3.358   8.352  0.3853 -1.4280 -0.0001
  140OSM    C1F15329   6.308   3.856   6.832 -0.4274  0.1153 -0.4901
  140OSM     OF15330   6.209   3.843   6.766  0.2356 -0.3120  0.3541
  140OSM    C2F15331   6.324   3.960   6.941  0.2225 -0.3004 -0.0961
  140OSM    H2F15332   6.415   4.014   6.908 -0.1150  0.0905 -0.4018
  140OSM    H2G15333   6.351   3.908   7.035  0.5476  1.4964  0.8574
  140OSM    C3F15334   6.198   4.048   6.954  0.1452 -0.4546 -0.2903
  140OSM    H3F15335   6.109   3.989   6.986 -0.0388  0.2249  0.4604
  140OSM    H3G15336   6.170   4.111   6.867  1.9142 -1.7641 -1.9116
  140OSM    C4F15337   6.219   4.149   7.075 -0.3968 -0.9965 -0.2413
  140OSM    H4F15338   6.284   4.099   7.150  3.0096 -0.5140 -2.6210
  140OSM    H4G15339   6.117   4.186   7.101  0.5094  0.7277  1.0058
  140OSM    C5F15340   6.314   4.267   7.034  0.8420 -0.3242 -0.0553
  140OSM    H5F15341   6.264   4.308   6.944  0.3273  1.3981  0.9686
  140OSM    H5G15342   6.413   4.228   7.000  0.7831 -1.0786  0.5902
  140OSM    C6F15343   6.317   4.370   7.146 -0.0172 -0.3242 -0.1587
  140OSM    H6F15344   6.208   4.382   7.165 -0.2997 -0.6157 -1.4958
  140OSM    H6G15345   6.361   4.469   7.119  0.1204 -0.4047 -0.2325
  140OSM    C7F15346   6.375   4.315   7.282 -0.1764 -1.5456 -0.4802
  140OSM    H7F15347   6.468   4.258   7.262  0.6783 -0.4773  0.3494
  140OSM    H7G15348   6.305   4.241   7.326 -0.3986 -1.8964 -1.3972
  140OSM    C8F15349   6.428   4.422   7.386 -0.0970  0.9651  0.1926
  140OSM    H8F15350   6.348   4.488   7.425 -1.2289 -0.4333  0.2827
  140OSM    H8G15351   6.509   4.487   7.346  0.5685  0.4715  0.6968
  140OSM    C9F15352   6.482   4.345   7.504  0.1807  0.4546 -0.2335
  140OSM    H9F15353   6.549   4.262   7.478  0.1997  0.8609 -1.5788
  140OSM   C10F15354   6.457   4.361   7.635  0.5169 -0.0867 -0.4122
  140OSM   H10F15355   6.489   4.279   7.701 -0.4750 -1.6959 -1.8446
  140OSM   C11F15356   6.383   4.468   7.711 -0.4865  0.1730 -0.2257
  140OSM   H11F15357   6.303   4.418   7.770 -0.5982  0.8453  0.1993
  140OSM   H11G15358   6.345   4.547   7.643 -1.7646 -0.2506 -0.0357
  140OSM   C12F15359   6.463   4.546   7.818 -0.6865  0.0012  0.0748
  140OSM   H12F15360   6.413   4.643   7.839 -1.5129 -0.0734 -1.4079
  140OSM   H12G15361   6.557   4.576   7.766 -1.2632  1.8039 -0.0043
  140OSM   C13F15362   6.503   4.464   7.946 -0.0067 -0.9623 -0.0438
  140OSM   H13F15363   6.575   4.387   7.913  1.7966 -0.5755  2.7198
  140OSM   H13G15364   6.412   4.411   7.981 -0.6899  0.1326 -0.1010
  140OSM   C14F15365   6.564   4.547   8.059  0.0077 -0.3393  0.1519
  140OSM   H14F15366   6.482   4.609   8.100  0.2687  0.8393 -1.0442
  140OSM   H14G15367   6.640   4.610   8.008 -0.2324 -0.2134 -0.0482
  140OSM   C15F15368   6.643   4.478   8.171  0.0880 -0.4880 -0.6293
  140OSM   H15F15369   6.731   4.420   8.134 -0.6232 -1.9898 -0.0733
  140OSM   H15G15370   6.576   4.397   8.208 -0.0416  0.2472  0.7793
  140OSM   C16F15371   6.695   4.573   8.272 -0.4496 -0.2396 -0.0733
  140OSM   H16F15372   6.746   4.656   8.217  0.3112 -0.0749  0.8664
  140OSM   H16G15373   6.764   4.526   8.345 -1.3424 -1.9391 -0.2872
  140OSM   C17F15374   6.590   4.651   8.358 -0.1861  0.5877 -0.2848
  140OSM   H17F15375   6.521   4.695   8.283 -0.5150  0.1073 -0.2746
  140OSM   H17G15376   6.648   4.733   8.405 -0.2436  1.3323 -1.4678
  140OSM   C18F15377   6.521   4.553   8.457  0.6443 -0.2875 -0.8635
  140OSM   H18F15378   6.460   4.476   8.405  0.4846  0.6308 -2.0729
  140OSM   H18G15379   6.459   4.613   8.528  0.4984  0.2320 -1.4275
  140OSM   H18H15380   6.591   4.498   8.523 -0.3854  0.1133  0.6260
  141OSM      N15381   0.708   6.473   5.879 -0.2987 -0.1655  0.1703
  141OSM    C1515382   0.577   6.504   5.940 -0.7312 -0.3836 -0.6998
  141OSM   H15A15383   0.516   6.571   5.883 -0.5772  2.3081  2.0368
  141OSM   H15B15384   0.600   6.541   6.039 -0.4436 -0.2107 -0.8307
  141OSM   H15C15385   0.530   6.409   5.962 -0.1100 -0.4006  0.7131
  141OSM    C1415386   0.692   6.411   5.741 -0.0157 -0.4712  0.0130
  141OSM   H14A15387   0.648   6.313   5.748  0.3810 -0.7068 -0.6878
  141OSM   H14B15388   0.786   6.409   5.687  0.3662 -0.1039  0.6498
  141OSM   H14C15389   0.629   6.472   5.677  0.8905  1.0114  0.4694
  141OSM    C1315390   0.785   6.601   5.871  0.5763 -0.1777  0.9091
  141OSM   H13A15391   0.877   6.588   5.815 -0.2569  0.1453 -0.5839
  141OSM   H13B15392   0.780   6.646   5.969 -4.7904  0.8862  0.4434
  141OSM   H13C15393   0.743   6.676   5.806  3.7405  2.1552  1.3127
  141OSM    C1215394   0.779   6.376   5.967 -0.8703 -0.7737  0.1707
  141OSM   H12A15395   0.865   6.333   5.918 -0.8551 -0.3220 -0.2122
  141OSM   H12B15396   0.706   6.299   5.984 -0.4017 -1.4705 -0.8804
  141OSM    C1115397   0.815   6.411   6.110  0.8424  0.3041 -0.9205
  141OSM   H11A15398   0.886   6.496   6.115  2.2891 -0.7931 -1.6465
  141OSM   H11B15399   0.874   6.337   6.169 -1.2075 -0.9456 -0.3360
  141OSM      P15400   0.612   6.356   6.260 -0.4316  0.5133  0.2261
  141OSM    O1315401   0.494   6.415   6.326  0.2591  0.2253  0.9108
  141OSM    O1415402   0.585   6.242   6.169 -0.2554 -0.0435  0.1704
  141OSM    O1115403   0.708   6.311   6.373  0.0440  0.3456  0.2653
  141OSM    O1215404   0.702   6.456   6.183  0.7156  0.0623 -0.0551
  141OSM    C1S15405   0.748   6.381   6.491  0.5633  0.4524  0.1764
  141OSM    H1S15406   0.778   6.485   6.466 -0.2472  0.5878 -0.2742
  141OSM    H1T15407   0.836   6.328   6.531 -0.2732  0.0142  1.4710
  141OSM     NF15408   0.662   6.457   6.723 -0.3113  0.9262 -0.3179
  141OSM    HNF15409   0.705   6.414   6.802 -0.1597 -2.0628 -1.9021
  141OSM    C2S15410   0.639   6.371   6.605  0.3381  0.2900  0.2488
  141OSM    H2S15411   0.544   6.414   6.567 -0.3252  3.0370  4.3339
  141OSM    C3S15412   0.621   6.225   6.649  0.6207  0.0938 -0.1256
  141OSM    H3S15413   0.715   6.183   6.689  0.3283 -1.7527 -1.2353
  141OSM     O315414   0.579   6.145   6.536  0.0826 -0.4892 -0.5449
  141OSM    HO315415   0.592   6.205   6.462  2.0791 -1.9855 -1.5205
  141OSM    C4S15416   0.525   6.218   6.768 -0.5521  0.6667 -0.4726
  141OSM    H4S15417   0.583   6.204   6.860 -0.3162  4.3591  0.1044
  141OSM    C5S15418   0.392   6.213   6.773  0.0094  0.9899  0.9006
  141OSM    H5S15419   0.331   6.218   6.681 -1.5148 -0.1376  1.8120
  141OSM    C6S15420   0.314   6.202   6.902 -0.0313  0.0940  0.7799
  141OSM    H6S15421   0.248   6.113   6.895 -0.9420  0.8717 -0.9688
  141OSM    H6T15422   0.239   6.284   6.901  0.2495  0.3531  0.0714
  141OSM    C7S15423   0.387   6.196   7.034 -0.2705  0.2195  0.3756
  141OSM    H7S15424   0.448   6.289   7.032 -3.2246  2.3867  2.5833
  141OSM    H7T15425   0.439   6.099   7.048 -0.8230 -0.0990  0.2583
  141OSM    C8S15426   0.288   6.212   7.154 -0.5675  0.0011 -0.6467
  141OSM    H8S15427   0.200   6.143   7.150 -0.6638  0.1631 -1.5021
  141OSM    H8T15428   0.243   6.312   7.139 -0.1965  0.2972  0.1910
  141OSM    C9S15429   0.350   6.216   7.296 -0.4036  0.4336  0.1142
  141OSM    H9S15430   0.431   6.290   7.310  2.2413 -2.2789  0.2754
  141OSM    H9T15431   0.400   6.116   7.298  1.8696  1.5248  1.6019
  141OSM   C10S15432   0.255   6.225   7.411  0.1878  0.5957 -1.0508
  141OSM   H10S15433   0.200   6.129   7.413  2.5879 -0.8478 -0.6099
  141OSM   H10T15434   0.187   6.311   7.393 -1.0814  0.2106  1.4300
  141OSM   C11S15435   0.322   6.230   7.547 -0.6922 -0.3073  0.0686
  141OSM   H11S15436   0.387   6.320   7.548 -0.1084 -0.7140 -0.2133
  141OSM   H11T15437   0.388   6.142   7.566  1.1726  1.1281  0.4711
  141OSM   C12S15438   0.219   6.254   7.659 -0.1298 -0.3619 -0.7603
  141OSM   H12S15439   0.180   6.152   7.680  1.6304 -1.0205 -0.4641
  141OSM   H12T15440   0.134   6.315   7.622 -0.8424 -0.9114 -0.0479
  141OSM   C13S15441   0.281   6.308   7.789 -0.7284  0.6210 -0.5371
  141OSM   H13S15442   0.204   6.302   7.869 -0.1553 -1.4514 -0.0806
  141OSM   H13T15443   0.319   6.411   7.773 -0.4958  0.6352  0.0758
  141OSM   C14S15444   0.392   6.210   7.836 -0.0165  0.6028  0.4385
  141OSM   H14S15445   0.474   6.205   7.762 -1.7275 -0.6730 -1.4986
  141OSM   H14T15446   0.350   6.107   7.828  3.2399 -0.8003 -0.1537
  141OSM   C15S15447   0.450   6.237   7.975  0.2486  0.1396  0.3355
  141OSM   H15S15448   0.367   6.213   8.045 -1.0242 -2.0141 -1.7514
  141OSM   H15T15449   0.475   6.345   7.983  0.2573  0.1835 -0.2514
  141OSM   C16S15450   0.584   6.152   7.989 -0.2512 -0.7625  0.0905
  141OSM   H16S15451   0.666   6.202   7.935 -2.1714 -1.1046 -3.4598
  141OSM   H16T15452   0.568   6.054   7.940  1.7630 -0.0020 -2.2554
  141OSM   C17S15453   0.647   6.140   8.128 -0.0030  0.1694  0.3100
  141OSM   H17S15454   0.663   6.240   8.174 -1.1549  1.2989 -1.5923
  141OSM   H17T15455   0.743   6.089   8.106  0.5677  2.4595 -3.4801
  141OSM   C18S15456   0.558   6.066   8.235 -0.4505  0.2477  0.2652
  141OSM   H18S15457   0.620   6.055   8.327 -1.3682  1.7951  1.1222
  141OSM   H18T15458   0.534   5.962   8.203 -0.1117  0.6692 -1.4264
  141OSM   H18U15459   0.470   6.130   8.257 -1.2489 -1.6705  3.3490
  141OSM    C1F15460   0.657   6.594   6.719 -0.1166  0.1321  0.7892
  141OSM     OF15461   0.616   6.653   6.619 -0.2868  0.0857  0.3165
  141OSM    C2F15462   0.713   6.672   6.832 -0.4983 -0.3112 -0.1387
  141OSM    H2F15463   0.769   6.606   6.901  3.8179  1.9188 -1.1391
  141OSM    H2G15464   0.622   6.714   6.880 -0.4323  2.3427 -2.0724
  141OSM    C3F15465   0.797   6.791   6.796 -0.4330 -1.1174  1.0048
  141OSM    H3F15466   0.762   6.860   6.716 -3.7148 -1.0440  2.3499
  141OSM    H3G15467   0.900   6.761   6.766 -0.7543 -0.0259 -1.4374
  141OSM    C4F15468   0.832   6.885   6.912  0.2842  0.5771  0.0118
  141OSM    H4F15469   0.734   6.885   6.963  0.3484  0.9326  0.1386
  141OSM    H4G15470   0.860   6.983   6.867  1.0461  0.7401  0.8164
  141OSM    C5F15471   0.940   6.844   7.004 -0.3381 -0.8666 -0.0420
  141OSM    H5F15472   1.036   6.832   6.949 -1.2031 -1.6897 -1.4298
  141OSM    H5G15473   0.926   6.739   7.039  1.3685 -1.7981 -1.9325
  141OSM    C6F15474   0.951   6.923   7.134 -0.3731 -0.0499  0.7896
  141OSM    H6F15475   0.927   7.027   7.102 -0.6939 -0.7223 -1.2863
  141OSM    H6G15476   1.058   6.917   7.165  0.5964  3.5875 -1.2592
  141OSM    C7F15477   0.848   6.894   7.257 -0.4069  1.0878  0.4608
  141OSM    H7F15478   0.863   6.790   7.293 -0.0943  0.7324 -0.6424
  141OSM    H7G15479   0.747   6.888   7.210  0.6721 -0.3921 -1.8423
  141OSM    C8F15480   0.855   6.987   7.380 -0.0418 -0.0632 -0.3888
  141OSM    H8F15481   0.782   6.951   7.456 -2.0149  0.6750 -1.8532
  141OSM    H8G15482   0.832   7.088   7.339 -0.5677 -0.0027  0.0510
  141OSM    C9F15483   0.997   6.985   7.445  0.1852 -0.1812 -0.0151
  141OSM    H9F15484   1.087   6.952   7.393 -0.0764 -2.5841  0.9448
  141OSM   C10F15485   1.013   7.009   7.579  0.1981 -0.1994  0.1319
  141OSM   H10F15486   1.113   7.015   7.626  0.2868 -1.2223  0.0800
  141OSM   C11F15487   0.908   7.051   7.676 -0.3507 -0.5000 -0.2018
  141OSM   H11F15488   0.848   6.965   7.713 -0.0422 -0.3207  0.7399
  141OSM   H11G15489   0.834   7.114   7.622  1.0963  0.2079 -1.4262
  141OSM   C12F15490   0.973   7.122   7.798 -0.4235  0.2054 -0.8876
  141OSM   H12F15491   1.026   7.207   7.750 -0.3805  0.2362 -0.7852
  141OSM   H12G15492   1.047   7.059   7.852  0.4272  2.7571  1.1411
  141OSM   C13F15493   0.860   7.154   7.901  0.4144  0.6486 -0.0906
  141OSM   H13F15494   0.797   7.064   7.919  0.3655  0.3873 -1.4308
  141OSM   H13G15495   0.801   7.239   7.861 -0.0705  0.1930 -0.3539
  141OSM   C14F15496   0.915   7.204   8.032 -0.1534 -0.1960  0.1187
  141OSM   H14F15497   0.958   7.117   8.088  2.8805  1.3338  0.3764
  141OSM   H14G15498   0.827   7.230   8.095 -1.4241 -1.6851 -0.9562
  141OSM   C15F15499   1.022   7.322   8.009  0.0754 -0.1418  0.0457
  141OSM   H15F15500   0.979   7.412   7.959  1.0780 -0.3518 -1.2558
  141OSM   H15G15501   1.106   7.288   7.946 -0.0749 -1.0190  0.3148
  141OSM   C16F15502   1.081   7.351   8.146 -0.6682 -0.1731 -0.9247
  141OSM   H16F15503   1.138   7.260   8.177  0.5524  0.8542 -0.0522
  141OSM   H16G15504   1.012   7.362   8.232  1.5311  3.3443  0.6152
  141OSM   C17F15505   1.177   7.472   8.139  0.3720 -0.7797  0.7229
  141OSM   H17F15506   1.140   7.546   8.066 -1.5315 -0.7829  1.6175
  141OSM   H17G15507   1.267   7.421   8.098  1.0371  0.9211  0.0036
  141OSM   C18F15508   1.215   7.524   8.279 -0.1757 -0.2629  0.1783
  141OSM   H18F15509   1.319   7.564   8.289 -0.0442 -0.4807 -0.2799
  141OSM   H18G15510   1.216   7.448   8.359 -2.3396 -0.4381  0.0790
  141OSM   H18H15511   1.149   7.608   8.309 -3.3525 -1.5147 -2.6720
  142OSM      N15512   6.169   1.279   6.200  0.2003 -0.1950 -0.2051
  142OSM    C1515513   6.110   1.391   6.291 -0.6111  0.4040 -0.8699
  142OSM   H15A15514   6.179   1.418   6.369  0.3217 -1.2465 -1.0850
  142OSM   H15B15515   6.033   1.353   6.356  0.9972  0.6987  1.3224
  142OSM   H15C15516   6.069   1.468   6.227  0.2156  0.1288 -1.7488
  142OSM    C1415517   6.059   1.219   6.113 -0.6672 -0.0703 -1.3140
  142OSM   H14A15518   5.987   1.178   6.183  0.4383 -1.4415 -0.9251
  142OSM   H14B15519   6.094   1.143   6.045 -0.8633 -1.4323  0.0470
  142OSM   H14C15520   6.014   1.294   6.050  0.7569  1.5014 -0.5319
  142OSM    C1315521   6.275   1.347   6.112  0.3919  0.6501  0.8345
  142OSM   H13A15522   6.300   1.282   6.030 -2.2121 -1.3497  1.4925
  142OSM   H13B15523   6.363   1.369   6.171  1.7267  1.2182 -1.2667
  142OSM   H13C15524   6.224   1.433   6.071  0.7842  0.3836 -0.2471
  142OSM    C1215525   6.231   1.166   6.295 -0.0400  0.0527  0.0220
  142OSM   H12A15526   6.287   1.093   6.239  0.3761  1.0086 -0.8458
  142OSM   H12B15527   6.151   1.103   6.330  0.5788 -0.4991  0.4681
  142OSM    C1115528   6.339   1.205   6.399  0.1420  0.0063 -0.1827
  142OSM   H11A15529   6.354   1.124   6.473  2.4299  0.9090  0.4386
  142OSM   H11B15530   6.298   1.287   6.462  0.7232 -1.0798  1.6934
  142OSM      P15531   6.582   1.155   6.325 -0.2247 -0.1828 -0.1788
  142OSM    O1315532   6.547   1.039   6.243 -0.0471  0.6173  0.6484
  142OSM    O1415533   6.687   1.239   6.265  0.5261 -0.0535 -0.4260
  142OSM    O1115534   6.611   1.110   6.469 -0.3182 -0.6576  0.4321
  142OSM    O1215535   6.461   1.248   6.337  0.2106  0.0424 -0.7665
  142OSM    C1S15536   6.733   1.054   6.528  0.7714  0.5718  0.0103
  142OSM    H1S15537   6.821   1.099   6.477  0.3626  1.3908 -0.0004
  142OSM    H1T15538   6.729   0.945   6.508 -4.1073  0.7352 -1.1415
  142OSM     NF15539   6.892   1.038   6.726 -0.9530 -0.6496 -0.1025
  142OSM    HNF15540   6.916   0.955   6.775  1.0813  0.3643  0.7540
  142OSM    C2S15541   6.754   1.071   6.681  0.1704  0.7580  0.5426
  142OSM    H2S15542   6.742   1.176   6.715 -1.2991  1.1326 -0.9817
  142OSM    C3S15543   6.647   0.982   6.763  0.7577 -0.7608 -0.4757
  142OSM    H3S15544   6.672   0.876   6.745 -1.1841 -1.2898 -0.3034
  142OSM     O315545   6.520   0.990   6.700  0.2529 -0.4252 -0.1493
  142OSM    HO315546   6.548   1.049   6.630  0.3103  0.5187  0.6516
  142OSM    C4S15547   6.643   1.024   6.904 -0.3439 -0.2826 -0.2028
  142OSM    H4S15548   6.732   0.987   6.957 -0.6743 -1.8186 -0.6973
  142OSM    C5S15549   6.569   1.121   6.964 -0.5030  0.8180 -0.4999
  142OSM    H5S15550   6.498   1.176   6.899 -1.5491  0.1465  0.0421
  142OSM    C6S15551   6.572   1.172   7.104  1.0594  0.5240 -0.0920
  142OSM    H6S15552   6.467   1.159   7.140  0.3377 -1.5073 -2.6396
  142OSM    H6T15553   6.590   1.281   7.092  0.2918  0.6134 -0.5022
  142OSM    C7S15554   6.672   1.127   7.207  0.4392  0.3955  0.1003
  142OSM    H7S15555   6.782   1.145   7.205  0.8333 -1.4718  2.0307
  142OSM    H7T15556   6.663   1.017   7.204 -0.8898  0.5070 -2.6221
  142OSM    C8S15557   6.624   1.167   7.351  0.1532 -0.2696  0.1656
  142OSM    H8S15558   6.513   1.152   7.354  0.2530 -0.9371  1.4719
  142OSM    H8T15559   6.653   1.271   7.377  0.8940  0.0684 -1.8376
  142OSM    C9S15560   6.681   1.088   7.469  0.3211 -0.6765  0.0912
  142OSM    H9S15561   6.792   1.088   7.464  0.3801 -1.2876  1.1371
  142OSM    H9T15562   6.642   0.984   7.478 -1.9954  0.0482 -0.8539
  142OSM   C10S15563   6.647   1.160   7.600  0.0169  0.0611 -0.4129
  142OSM   H10S15564   6.540   1.189   7.602  0.2816  1.1155 -0.8492
  142OSM   H10T15565   6.706   1.254   7.606 -0.7368  0.5915 -1.0185
  142OSM   C11S15566   6.683   1.075   7.722 -0.2008  0.3806 -0.1766
  142OSM   H11S15567   6.789   1.043   7.711  0.0065  0.2929  1.7384
  142OSM   H11T15568   6.617   0.986   7.722  1.5406 -1.0344  2.4990
  142OSM   C12S15569   6.665   1.153   7.852 -0.4581 -0.0090 -0.2493
  142OSM   H12S15570   6.559   1.187   7.847 -0.0124  1.4746  0.0746
  142OSM   H12T15571   6.732   1.241   7.853  0.6645 -0.8250  1.4177
  142OSM   C13S15572   6.685   1.083   7.993  0.1284  0.6885 -0.7340
  142OSM   H13S15573   6.792   1.055   8.010  0.6810  1.9380 -1.9866
  142OSM   H13T15574   6.618   0.995   8.001  1.0810  0.1101  2.4047
  142OSM   C14S15575   6.633   1.179   8.100  0.6529  0.6131  0.1625
  142OSM   H14S15576   6.526   1.200   8.079 -0.2737 -1.4849  2.2752
  142OSM   H14T15577   6.698   1.268   8.105 -0.6406  1.4934  2.7956
  142OSM   C15S15578   6.623   1.116   8.243  0.2529  0.5238  0.2582
  142OSM   H15S15579   6.725   1.103   8.285 -0.2109  2.3392  2.1521
  142OSM   H15T15580   6.553   1.030   8.245 -0.1284  0.8332  1.7828
  142OSM   C16S15581   6.565   1.226   8.334  0.3105 -0.6709 -0.4161
  142OSM   H16S15582   6.514   1.191   8.426  1.3257  0.0013  0.4240
  142OSM   H16T15583   6.490   1.296   8.290 -1.6357 -1.8826  0.8308
  142OSM   C17S15584   6.688   1.311   8.381  0.0677 -0.0741 -0.2770
  142OSM   H17S15585   6.718   1.377   8.297 -2.1864 -0.9220 -1.8777
  142OSM   H17T15586   6.763   1.245   8.429 -0.4564  0.4974  1.3974
  142OSM   C18S15587   6.659   1.401   8.502  0.2258  0.1503 -0.5146
  142OSM   H18S15588   6.605   1.489   8.460  0.7137  0.0366 -1.4012
  142OSM   H18T15589   6.754   1.443   8.540 -1.0280  1.0077  1.8958
  142OSM   H18U15590   6.606   1.346   8.582 -1.7391  0.0772 -1.7827
  142OSM    C1F15591   6.992   1.125   6.708  0.6346 -0.7804  0.5978
  142OSM     OF15592   6.987   1.233   6.648  0.5355 -0.4571  0.0068
  142OSM    C2F15593   7.124   1.082   6.769  0.3423  0.2172  0.3432
  142OSM    H2F15594   7.205   1.101   6.696 -0.3043 -2.6387 -1.2838
  142OSM    H2G15595   7.132   0.972   6.785  3.2609  0.4582  1.0536
  142OSM    C3F15596   7.166   1.152   6.907 -0.3081  0.3571  0.2367
  142OSM    H3F15597   7.201   1.256   6.892 -0.9129  0.5910  0.4212
  142OSM    H3G15598   7.252   1.087   6.936  1.5536  2.3563 -0.5304
  142OSM    C4F15599   7.063   1.169   7.023 -0.6054 -0.3595  0.2133
  142OSM    H4F15600   7.014   1.075   7.054  1.1312 -1.7098 -0.9294
  142OSM    H4G15601   6.984   1.240   6.991 -1.4712 -2.2554 -2.2189
  142OSM    C5F15602   7.138   1.219   7.146  0.2763 -0.7184  0.1422
  142OSM    H5F15603   7.192   1.311   7.113 -1.7610  1.0876  1.5368
  142OSM    H5G15604   7.213   1.146   7.185  0.4851 -0.6871 -0.1901
  142OSM    C6F15605   7.044   1.262   7.259  0.4268  0.4973 -0.1488
  142OSM    H6F15606   6.976   1.183   7.298  0.4103 -0.0931 -1.3260
  142OSM    H6G15607   6.965   1.330   7.218  0.8156  1.5888  0.8607
  142OSM    C7F15608   7.111   1.316   7.377 -0.3379  0.0257 -0.2027
  142OSM    H7F15609   7.177   1.403   7.357  0.9772 -0.6331  1.1175
  142OSM    H7G15610   7.179   1.237   7.415 -0.2990 -0.1115 -0.5511
  142OSM    C8F15611   7.015   1.371   7.491 -0.2166 -0.3190  0.5895
  142OSM    H8F15612   7.070   1.377   7.587  0.2054 -2.2045  0.5065
  142OSM    H8G15613   6.937   1.293   7.496 -2.1252  1.3775 -0.9733
  142OSM    C9F15614   6.943   1.498   7.446  0.8050 -0.1237  0.1083
  142OSM    H9F15615   6.959   1.529   7.342  1.2736 -0.0417  0.2020
  142OSM   C10F15616   6.873   1.576   7.539 -0.1467 -0.5913  0.1235
  142OSM   H10F15617   6.817   1.664   7.507  1.7052  2.0154  3.3667
  142OSM   C11F15618   6.858   1.565   7.689  0.1798  0.7492  0.2509
  142OSM   H11F15619   6.888   1.658   7.743  2.0366  1.0163 -1.1548
  142OSM   H11G15620   6.913   1.485   7.743 -1.1168 -2.0993 -2.3398
  142OSM   C12F15621   6.707   1.557   7.732 -0.2232 -0.3755 -0.7752
  142OSM   H12F15622   6.671   1.453   7.714 -1.7833 -0.0300  0.1378
  142OSM   H12G15623   6.650   1.625   7.666  2.0498 -0.4652 -2.9784
  142OSM   C13F15624   6.686   1.592   7.879  0.7245 -0.1026 -0.3065
  142OSM   H13F15625   6.729   1.693   7.894  1.8090 -0.5106 -0.5631
  142OSM   H13G15626   6.735   1.523   7.950  1.7945  0.7203 -0.2346
  142OSM   C14F15627   6.532   1.595   7.915 -0.0664 -1.1056 -0.3818
  142OSM   H14F15628   6.477   1.499   7.905  0.8279 -1.7433  0.6287
  142OSM   H14G15629   6.483   1.673   7.851  1.6181  1.4926  1.3241
  142OSM   C15F15630   6.519   1.654   8.062  0.0163  0.1205  0.0288
  142OSM   H15F15631   6.614   1.710   8.080  0.4684  0.0202 -1.8082
  142OSM   H15G15632   6.522   1.570   8.135 -0.5912  1.0558  1.1436
  142OSM   C16F15633   6.409   1.758   8.090 -0.2161  0.2789  0.3523
  142OSM   H16F15634   6.434   1.846   8.027  3.4384 -0.5849  0.3525
  142OSM   H16G15635   6.414   1.813   8.186  1.1515 -1.7465  1.5024
  142OSM   C17F15636   6.268   1.705   8.077 -0.2045  0.4168  0.0614
  142OSM   H17F15637   6.258   1.622   8.150  1.2986  1.9900  2.1872
  142OSM   H17G15638   6.234   1.671   7.977  2.2880  0.9536 -1.0459
  142OSM   C18F15639   6.168   1.813   8.119  0.3206  0.3654  0.0821
  142OSM   H18F15640   6.165   1.826   8.229  1.6949  0.3698  0.1360
  142OSM   H18G15641   6.068   1.794   8.075  1.6255 -0.7418 -2.6673
  142OSM   H18H15642   6.208   1.907   8.074  0.6906  0.6982  1.0783
  143OSM      N15643   0.959   1.580   5.862  0.2224 -0.0682  0.1164
  143OSM    C1515644   0.894   1.586   5.721  0.0329 -0.1883 -0.3756
  143OSM   H15A15645   0.894   1.485   5.683  0.6449 -0.7396  1.0216
  143OSM   H15B15646   0.944   1.640   5.642 -1.0575 -0.6490 -1.4062
  143OSM   H15C15647   0.795   1.628   5.728 -0.3244 -1.2318  1.6174
  143OSM    C1415648   0.905   1.466   5.938 -0.2311  0.1691 -0.0944
  143OSM   H14A15649   0.950   1.381   5.889  2.1575  1.4757 -0.3328
  143OSM   H14B15650   0.798   1.455   5.950 -0.3329  2.5306  1.8019
  143OSM   H14C15651   0.944   1.477   6.038  0.2950  0.4597 -0.3248
  143OSM    C1315652   1.108   1.558   5.851  0.2558  0.5333 -0.0533
  143OSM   H13A15653   1.131   1.457   5.822 -3.8593 -0.7841  0.4942
  143OSM   H13B15654   1.146   1.560   5.952 -0.2369  0.0672  0.1445
  143OSM   H13C15655   1.163   1.630   5.793 -0.1321 -0.1914 -1.3701
  143OSM    C1215656   0.933   1.707   5.934  0.1942 -0.7721  0.4050
  143OSM   H12A15657   0.827   1.726   5.926  0.9119  4.0702 -1.6450
  143OSM   H12B15658   0.971   1.791   5.877  5.3445 -1.1454  2.7251
  143OSM    C1115659   0.980   1.722   6.078 -0.1947  0.0899 -0.4206
  143OSM   H11A15660   0.947   1.825   6.105 -0.0479 -0.0379  0.2647
  143OSM   H11B15661   1.088   1.713   6.101 -0.5719 -3.1423  0.5170
  143OSM      P15662   0.757   1.658   6.199  0.2968 -0.2646  0.2884
  143OSM    O1315663   0.706   1.773   6.128  0.4741 -0.3742 -0.1025
  143OSM    O1415664   0.672   1.537   6.195 -0.2595 -0.5682 -0.0581
  143OSM    O1115665   0.767   1.704   6.348 -0.1062 -0.0545  0.1733
  143OSM    O1215666   0.907   1.629   6.161 -0.6499  0.0568 -0.4773
  143OSM    C1S15667   0.894   1.732   6.409 -0.1305 -0.0247 -0.3500
  143OSM    H1S15668   0.921   1.839   6.400 -0.0170 -0.1289 -1.4921
  143OSM    H1T15669   0.987   1.688   6.368 -0.8624 -1.0089 -1.0131
  143OSM     NF15670   1.000   1.771   6.636  0.3334 -0.6542 -0.0524
  143OSM    HNF15671   1.075   1.707   6.654  1.3455  0.3634 -0.5410
  143OSM    C2S15672   0.889   1.707   6.561 -0.5357  0.0332 -0.0921
  143OSM    H2S15673   0.793   1.750   6.598 -0.8948  0.8699 -1.8667
  143OSM    C3S15674   0.870   1.551   6.587  0.1615 -0.8911  0.0336
  143OSM    H3S15675   0.971   1.509   6.566  0.2131 -2.1478  2.3670
  143OSM     O315676   0.784   1.482   6.499 -0.5858 -0.2325 -0.6812
  143OSM    HO315677   0.768   1.538   6.423 -2.1458 -2.0824 -1.8170
  143OSM    C4S15678   0.839   1.530   6.736  0.1593 -0.6984  0.4083
  143OSM    H4S15679   0.934   1.498   6.780  3.0586  2.3083 -3.0278
  143OSM    C5S15680   0.722   1.543   6.803 -0.6131  0.4902  0.4613
  143OSM    H5S15681   0.637   1.572   6.739  0.6339  1.7726 -0.6745
  143OSM    C6S15682   0.701   1.517   6.950  0.0065  0.3996 -0.0498
  143OSM    H6S15683   0.686   1.410   6.974 -1.7196  0.4249 -0.8567
  143OSM    H6T15684   0.606   1.562   6.987 -1.5246 -1.6104 -1.3342
  143OSM    C7S15685   0.829   1.554   7.037  0.2087  0.1825  0.1689
  143OSM    H7S15686   0.850   1.661   7.014 -0.7152  0.7618  1.8855
  143OSM    H7T15687   0.908   1.480   7.010  1.1113  0.6413  1.4434
  143OSM    C8S15688   0.813   1.545   7.189 -0.1713  0.9336 -0.1985
  143OSM    H8S15689   0.908   1.576   7.238  0.2115  0.0033 -0.3216
  143OSM    H8T15690   0.812   1.436   7.212  0.7607  1.1730  1.1073
  143OSM    C9S15691   0.694   1.614   7.253 -0.6840  0.1124  0.5055
  143OSM    H9S15692   0.604   1.606   7.188  0.9263  0.5181 -1.8842
  143OSM    H9T15693   0.712   1.722   7.273 -0.8120 -0.0857  1.7816
  143OSM   C10S15694   0.647   1.539   7.383 -0.0026  0.0459 -0.5906
  143OSM   H10S15695   0.603   1.439   7.361  1.3156 -0.9490  1.0749
  143OSM   H10T15696   0.563   1.599   7.424 -0.5843 -1.3724  0.3746
  143OSM   C11S15697   0.757   1.535   7.495 -0.0073  0.2166 -0.3601
  143OSM   H11S15698   0.799   1.637   7.510  0.7964 -0.2685  0.8294
  143OSM   H11T15699   0.841   1.483   7.444  1.3640 -0.3822  2.3319
  143OSM   C12S15700   0.724   1.453   7.624 -0.0511 -0.1392  0.1168
  143OSM   H12S15701   0.818   1.447   7.683  0.2801  1.1623 -0.2588
  143OSM   H12T15702   0.677   1.355   7.601 -1.6731  0.3653  1.1171
  143OSM   C13S15703   0.620   1.525   7.716 -0.2238 -0.5661 -0.1453
  143OSM   H13S15704   0.522   1.547   7.668  0.0932  0.3952 -0.3798
  143OSM   H13T15705   0.672   1.617   7.750  1.3611 -1.6611  0.5012
  143OSM   C14S15706   0.589   1.441   7.837  0.3874 -0.2071 -0.1647
  143OSM   H14S15707   0.536   1.515   7.902 -3.0112 -0.4826 -2.3544
  143OSM   H14T15708   0.677   1.401   7.891 -0.7600 -1.8620  0.5873
  143OSM   C15S15709   0.501   1.320   7.802 -0.1714  0.0223 -0.4021
  143OSM   H15S15710   0.559   1.257   7.731  0.7982 -0.5119  0.8347
  143OSM   H15T15711   0.413   1.367   7.753  0.3524  3.0463  1.2878
  143OSM   C16S15712   0.462   1.233   7.922 -0.3607 -0.3289  0.2637
  143OSM   H16S15713   0.490   1.273   8.021 -1.5146  0.1021  0.4354
  143OSM   H16T15714   0.532   1.148   7.907 -1.8395 -1.8259  1.4266
  143OSM   C17S15715   0.313   1.195   7.929 -0.0276  0.6886 -0.2686
  143OSM   H17S15716   0.299   1.097   7.980 -1.8844  0.3826 -1.2570
  143OSM   H17T15717   0.281   1.183   7.823  1.6496  1.1262 -0.8511
  143OSM   C18S15718   0.222   1.297   7.999 -0.6245  0.2008  0.5709
  143OSM   H18S15719   0.244   1.401   7.965 -0.3437  0.3799  1.2709
  143OSM   H18T15720   0.248   1.298   8.107  1.8526 -0.1579  0.0418
  143OSM   H18U15721   0.116   1.277   7.975 -0.6789  1.4746 -0.3917
  143OSM    C1F15722   1.000   1.897   6.674 -0.6868  0.6013 -0.0880
  143OSM     OF15723   0.903   1.968   6.662 -0.5089  0.1379  0.5369
  143OSM    C2F15724   1.125   1.943   6.750  0.4024  0.0199 -0.4307
  143OSM    H2F15725   1.194   1.973   6.668  0.0043 -1.8772 -1.5284
  143OSM    H2G15726   1.164   1.857   6.809 -0.7341 -0.8161 -0.8554
  143OSM    C3F15727   1.099   2.058   6.847 -0.1386 -0.6513  0.1861
  143OSM    H3F15728   1.013   2.030   6.911  0.8103 -2.8604  0.5868
  143OSM    H3G15729   1.064   2.148   6.791 -2.2317 -1.5158  0.0174
  143OSM    C4F15730   1.211   2.087   6.949  0.6394  0.0496 -0.0267
  143OSM    H4F15731   1.198   2.192   6.983 -2.3355 -0.0759 -0.5131
  143OSM    H4G15732   1.312   2.079   6.903 -0.0010 -0.8872 -1.3315
  143OSM    C5F15733   1.204   1.998   7.082  0.3309  0.7782 -0.2943
  143OSM    H5F15734   1.172   1.898   7.048  0.6963  0.5536  0.0178
  143OSM    H5G15735   1.115   2.034   7.138  0.3307 -0.2410  0.3709
  143OSM    C6F15736   1.327   1.988   7.166 -0.4790 -0.4219 -0.6779
  143OSM    H6F15737   1.402   1.931   7.108  1.4002  1.3748 -0.1404
  143OSM    H6G15738   1.307   1.937   7.263 -1.7035 -1.7840 -1.5957
  143OSM    C7F15739   1.394   2.123   7.192 -0.1520 -0.2689 -0.5873
  143OSM    H7F15740   1.314   2.183   7.241  0.8495 -0.0825  0.9108
  143OSM    H7G15741   1.428   2.171   7.098 -0.7036 -0.2417 -0.7756
  143OSM    C8F15742   1.520   2.115   7.286  0.6839  0.6524  0.2919
  143OSM    H8F15743   1.593   2.041   7.248 -0.1642  0.4285 -0.9593
  143OSM    H8G15744   1.484   2.072   7.382 -2.9056  2.5500 -0.0254
  143OSM    C9F15745   1.582   2.256   7.312  0.3089 -0.2900 -0.3660
  143OSM    H9F15746   1.663   2.286   7.244  1.1984  1.6900  1.4489
  143OSM   C10F15747   1.545   2.329   7.425 -0.0529 -0.3006  0.7495
  143OSM   H10F15748   1.582   2.432   7.432 -3.9776  1.2973  0.5073
  143OSM   C11F15749   1.439   2.293   7.524 -0.2646  0.3754 -1.0495
  143OSM   H11F15750   1.377   2.207   7.492 -1.5380  0.6149  0.6547
  143OSM   H11G15751   1.369   2.379   7.531  0.0216  0.5162  0.6237
  143OSM   C12F15752   1.488   2.271   7.664 -0.4958 -0.1759  0.5211
  143OSM   H12F15753   1.405   2.245   7.732  0.2200 -2.1033  0.7303
  143OSM   H12G15754   1.548   2.358   7.698  0.6552  0.0101 -1.7661
  143OSM   C13F15755   1.574   2.142   7.670 -1.1384 -0.2609  0.4983
  143OSM   H13F15756   1.685   2.146   7.665 -1.1066 -1.2696 -0.0392
  143OSM   H13G15757   1.548   2.073   7.587 -0.2965 -0.0333  0.0248
  143OSM   C14F15758   1.542   2.068   7.802  0.5165 -0.0520 -0.3647
  143OSM   H14F15759   1.595   1.970   7.808  0.0422 -0.3916 -1.4728
  143OSM   H14G15760   1.436   2.032   7.805  0.6472 -0.4339  2.2980
  143OSM   C15F15761   1.573   2.146   7.934  0.1021  0.4409  0.3064
  143OSM   H15F15762   1.552   2.070   8.012 -0.1382  1.1898  0.9714
  143OSM   H15G15763   1.494   2.222   7.951 -0.0464  0.2072  0.6741
  143OSM   C16F15764   1.717   2.212   7.940  0.2491 -0.8755 -0.4719
  143OSM   H16F15765   1.714   2.294   8.015  1.4737 -3.1490  2.2767
  143OSM   H16G15766   1.746   2.257   7.843  1.8506 -1.4898 -0.3047
  143OSM   C17F15767   1.822   2.120   7.999 -0.3899 -0.1381 -0.2812
  143OSM   H17F15768   1.858   2.062   7.912  1.3997 -0.9662  0.9682
  143OSM   H17G15769   1.771   2.057   8.075  0.2497 -0.8476 -0.4319
  143OSM   C18F15770   1.952   2.178   8.062 -0.4587 -0.0777 -0.4733
  143OSM   H18F15771   2.026   2.095   8.065 -0.1536  0.1870 -0.5917
  143OSM   H18G15772   1.930   2.211   8.166  0.8562  3.5590 -1.2022
  143OSM   H18H15773   1.999   2.258   8.001  0.8367 -1.1703 -0.9713
  144OSM      N15774   0.614   3.502   6.101 -0.3051  0.5059  0.0379
  144OSM    C1515775   0.632   3.358   6.133  0.5521 -0.6550 -0.0641
  144OSM   H15A15776   0.552   3.332   6.201  0.3403  1.3677  0.4995
  144OSM   H15B15777   0.730   3.331   6.172  1.2959 -0.1946 -1.5305
  144OSM   H15C15778   0.635   3.312   6.035  2.0574  1.6896 -1.2002
  144OSM    C1415779   0.645   3.578   6.226 -0.7477  0.1097  0.0892
  144OSM   H14A15780   0.619   3.681   6.209 -1.5325  0.0744  1.0115
  144OSM   H14B15781   0.748   3.561   6.257 -0.6486 -1.0080 -0.7921
  144OSM   H14C15782   0.592   3.534   6.309  0.2908 -1.5402 -0.0542
  144OSM    C1315783   0.713   3.539   5.992  0.1692  0.5616 -0.1506
  144OSM   H13A15784   0.698   3.636   5.946 -2.1996 -0.0145 -0.7789
  144OSM   H13B15785   0.716   3.470   5.908 -0.0182  0.3115  0.0449
  144OSM   H13C15786   0.810   3.531   6.037  0.0741 -1.4264 -0.2076
  144OSM    C1215787   0.477   3.529   6.047 -0.0123 -0.5164 -0.4761
  144OSM   H12A15788   0.463   3.462   5.964  1.1633 -1.0238 -0.2966
  144OSM   H12B15789   0.473   3.631   6.012 -0.4590 -0.6432 -0.8069
  144OSM    C1115790   0.356   3.508   6.142  0.0748  0.0030  0.0234
  144OSM   H11A15791   0.270   3.541   6.080  2.3564  1.6225 -2.5560
  144OSM   H11B15792   0.373   3.587   6.218 -1.2270  0.3155  0.0178
  144OSM      P15793   0.276   3.265   6.124  0.1863  0.3612 -0.0127
  144OSM    O1315794   0.149   3.305   6.055 -0.0947  0.0884 -0.2410
  144OSM    O1415795   0.373   3.192   6.039  0.6538 -0.0778 -0.6338
  144OSM    O1115796   0.228   3.156   6.231 -0.2221 -0.3960 -0.2725
  144OSM    O1215797   0.350   3.379   6.204 -0.2161  0.5861 -0.4133
  144OSM    C1S15798   0.317   3.127   6.339 -0.0629 -0.1396  0.1629
  144OSM    H1S15799   0.423   3.149   6.314  0.1479  1.1061  1.9810
  144OSM    H1T15800   0.320   3.017   6.355  0.7337 -0.0325  0.8459
  144OSM     NF15801   0.379   3.158   6.575 -0.2163 -0.0156 -0.6532
  144OSM    HNF15802   0.355   3.079   6.630  0.3964 -0.0873 -0.4844
  144OSM    C2S15803   0.285   3.200   6.473  0.8366 -0.3955  0.4212
  144OSM    H2S15804   0.289   3.310   6.459 -1.1083  0.0001  2.4338
  144OSM    C3S15805   0.135   3.176   6.519  0.1023 -0.0981 -0.1788
  144OSM    H3S15806   0.118   3.072   6.553 -0.4148  0.6159  1.9303
  144OSM     O315807   0.034   3.194   6.423 -0.5045  0.2842 -0.0396
  144OSM    HO315808   0.090   3.208   6.347  0.2454  3.6008  0.9635
  144OSM    C4S15809   0.103   3.261   6.645 -0.3297 -0.1881  0.6922
  144OSM    H4S15810   0.069   3.364   6.623 -3.1612 -1.0164  0.8504
  144OSM    C5S15811   0.100   3.211   6.771 -0.1464 -0.2030  0.4450
  144OSM    H5S15812   0.142   3.111   6.788  2.5329  0.2885 -2.3972
  144OSM    C6S15813   0.061   3.293   6.890 -0.2819 -0.0240  0.3774
  144OSM    H6S15814  -0.042   3.255   6.908  0.5718 -4.4683 -2.4828
  144OSM    H6T15815   0.052   3.401   6.866  0.8306  0.2808  1.2409
  144OSM    C7S15816   0.151   3.278   7.010  0.4477  0.9383 -0.0927
  144OSM    H7S15817   0.254   3.310   6.981  0.6845  1.7251  1.5248
  144OSM    H7T15818   0.154   3.168   7.025 -0.3171  0.8337 -0.6508
  144OSM    C8S15819   0.103   3.351   7.136  0.5095 -0.3614 -0.4717
  144OSM    H8S15820  -0.001   3.325   7.164  0.4447  1.1959  0.8410
  144OSM    H8T15821   0.101   3.460   7.118  0.9942 -0.1247  0.8065
  144OSM    C9S15822   0.185   3.326   7.262  0.8362 -0.5422 -0.5372
  144OSM    H9S15823   0.290   3.305   7.233  0.3974 -1.8535 -1.2598
  144OSM    H9T15824   0.151   3.233   7.312  1.0560  0.7505  2.1621
  144OSM   C10S15825   0.184   3.430   7.373  0.4544 -0.3441  0.0322
  144OSM   H10S15826   0.076   3.441   7.396 -0.4432 -4.2943 -1.4397
  144OSM   H10T15827   0.230   3.525   7.339  0.8563 -0.0728  1.3051
  144OSM   C11S15828   0.250   3.388   7.505  0.2332  0.1740  0.0720
  144OSM   H11S15829   0.358   3.369   7.489 -0.0196 -0.4773 -1.0073
  144OSM   H11T15830   0.198   3.293   7.532 -0.2873 -0.2940 -2.3492
  144OSM   C12S15831   0.238   3.500   7.612 -0.5262 -0.1520  0.9295
  144OSM   H12S15832   0.134   3.520   7.644 -1.3496 -2.8961  0.2459
  144OSM   H12T15833   0.284   3.582   7.553  0.4145  0.1025  1.9702
  144OSM   C13S15834   0.325   3.457   7.733 -0.3915  0.0166  0.5952
  144OSM   H13S15835   0.432   3.447   7.706 -0.7101  1.5707 -1.5466
  144OSM   H13T15836   0.290   3.353   7.752 -0.9962  0.1073  0.0191
  144OSM   C14S15837   0.317   3.540   7.862  0.1713 -0.9280  0.5050
  144OSM   H14S15838   0.210   3.568   7.875  0.7100  1.7378 -0.3771
  144OSM   H14T15839   0.379   3.630   7.842 -0.7145 -0.6388 -1.0839
  144OSM   C15S15840   0.363   3.464   7.989  0.3470  0.1405 -0.1703
  144OSM   H15S15841   0.456   3.407   7.965 -0.2109 -0.2463 -1.5649
  144OSM   H15T15842   0.282   3.391   8.011  1.6455 -1.5615 -0.7565
  144OSM   C16S15843   0.385   3.555   8.113  0.4022 -0.0130  0.1503
  144OSM   H16S15844   0.472   3.618   8.086  0.1313  0.2901 -0.0165
  144OSM   H16T15845   0.414   3.488   8.197 -1.5290 -3.4335 -1.6408
  144OSM   C17S15846   0.260   3.638   8.136 -1.1740  0.0064 -0.8566
  144OSM   H17S15847   0.165   3.584   8.117 -1.5593  0.2696  0.2309
  144OSM   H17T15848   0.267   3.722   8.064  0.3805 -1.0852 -2.0497
  144OSM   C18S15849   0.258   3.697   8.279 -0.0737  0.5165 -0.6132
  144OSM   H18S15850   0.229   3.626   8.359  0.2896  0.9108 -0.1232
  144OSM   H18T15851   0.174   3.770   8.278 -2.6004 -2.2138 -0.6687
  144OSM   H18U15852   0.352   3.747   8.310  0.3527 -0.4598 -0.3074
  144OSM    C1F15853   0.509   3.205   6.565 -0.8420 -0.0691  0.4635
  144OSM     OF15854   0.552   3.295   6.493 -0.3964 -0.0499  0.3099
  144OSM    C2F15855   0.603   3.130   6.654 -0.2088 -0.5343  0.4625
  144OSM    H2F15856   0.648   3.052   6.588 -0.4928 -0.7630  0.5379
  144OSM    H2G15857   0.547   3.080   6.735 -1.7713 -0.3345 -0.4516
  144OSM    C3F15858   0.713   3.216   6.722 -0.0034 -0.0179 -0.5826
  144OSM    H3F15859   0.765   3.265   6.637 -0.1035  1.4105  0.1512
  144OSM    H3G15860   0.790   3.151   6.769 -0.4200  0.4094  0.7390
  144OSM    C4F15861   0.655   3.313   6.822  0.0221 -0.4959 -0.4456
  144OSM    H4F15862   0.563   3.365   6.787  1.4960  2.0151 -0.8749
  144OSM    H4G15863   0.732   3.393   6.826  1.5466 -1.8952 -0.7748
  144OSM    C5F15864   0.639   3.246   6.956  0.0651 -0.1694 -0.0342
  144OSM    H5F15865   0.731   3.196   6.992 -1.6563 -2.4522  1.4661
  144OSM    H5G15866   0.561   3.167   6.953  0.4165 -0.6907  2.5528
  144OSM    C6F15867   0.605   3.351   7.070 -0.0438  0.4898 -0.0294
  144OSM    H6F15868   0.501   3.392   7.072  0.3323  1.4752  0.0196
  144OSM    H6G15869   0.665   3.443   7.052  0.0719  0.0807 -1.9067
  144OSM    C7F15870   0.637   3.292   7.210  0.8219 -0.0569  0.1827
  144OSM    H7F15871   0.742   3.256   7.199  0.3587 -1.1971 -0.6950
  144OSM    H7G15872   0.558   3.217   7.232  0.7007 -0.1354 -0.5188
  144OSM    C8F15873   0.626   3.392   7.327 -0.3067  0.4477 -0.1200
  144OSM    H8F15874   0.625   3.334   7.421  0.0098 -0.0193 -0.3947
  144OSM    H8G15875   0.531   3.448   7.318  1.8950  4.8928  1.4911
  144OSM    C9F15876   0.742   3.485   7.334 -0.1722 -0.1092 -0.2132
  144OSM    H9F15877   0.805   3.502   7.246  1.6119  1.8704  1.3381
  144OSM   C10F15878   0.776   3.556   7.450 -0.1356  1.1016  0.9614
  144OSM   H10F15879   0.866   3.619   7.448  4.7066 -4.8773 -2.3806
  144OSM   C11F15880   0.700   3.557   7.579 -0.6030  0.6681  0.3937
  144OSM   H11F15881   0.623   3.477   7.578 -0.0264  0.0754 -1.4292
  144OSM   H11G15882   0.649   3.653   7.599 -2.9558 -0.9352  2.7551
  144OSM   C12F15883   0.795   3.539   7.697  0.0336 -0.2517  0.1672
  144OSM   H12F15884   0.874   3.617   7.695  1.1417 -1.2887 -2.8317
  144OSM   H12G15885   0.850   3.442   7.686  0.6261 -0.1476  1.8277
  144OSM   C13F15886   0.727   3.531   7.836 -0.0553 -0.9475  0.1800
  144OSM   H13F15887   0.643   3.460   7.821  0.2863 -1.4995  0.8274
  144OSM   H13G15888   0.683   3.631   7.858 -1.0210 -0.7907 -2.2038
  144OSM   C14F15889   0.822   3.477   7.940  0.2024  0.2499 -0.0114
  144OSM   H14F15890   0.918   3.534   7.937 -0.5216  1.4857 -0.2202
  144OSM   H14G15891   0.835   3.369   7.919 -3.6480 -0.4664  0.5608
  144OSM   C15F15892   0.778   3.493   8.088 -0.5240  0.5278 -0.1036
  144OSM   H15F15893   0.690   3.430   8.112  0.7760 -0.6030  1.9986
  144OSM   H15G15894   0.772   3.603   8.100  1.0797  0.6229  0.0262
  144OSM   C16F15895   0.887   3.431   8.183  0.2452 -0.1263  0.3462
  144OSM   H16F15896   0.974   3.498   8.173 -0.1800  0.6541  1.6607
  144OSM   H16G15897   0.918   3.329   8.152 -0.5719  0.0854 -1.2763
  144OSM   C17F15898   0.839   3.412   8.335 -0.2967  0.1531  0.0851
  144OSM   H17F15899   0.929   3.389   8.396 -0.3602 -1.9109 -0.5283
  144OSM   H17G15900   0.772   3.324   8.341 -0.6040  0.4622  1.6563
  144OSM   C18F15901   0.774   3.543   8.380 -0.4424 -0.6711 -0.0853
  144OSM   H18F15902   0.842   3.629   8.362 -2.9364  1.1407 -1.2990
  144OSM   H18G15903   0.750   3.529   8.488  1.4877 -2.9246  0.1436
  144OSM   H18H15904   0.672   3.563   8.341 -1.2313 -0.8754  1.7559
  145SAPE     N15905   1.454   1.899  10.689  0.9548  0.1900 -0.2057
  145SAPE   HN115906   1.553   1.913  10.717  0.8455 -0.9973  0.8669
  145SAPE   HN215907   1.444   1.858  10.594 -3.1268  0.9037 -0.2632
  145SAPE   HN315908   1.428   1.999  10.674  1.4046  0.3815  0.2788
  145SAPE   C1215909   1.390   1.814  10.787  0.0798 -0.7168 -0.1280
  145SAPE  H12A15910   1.434   1.840  10.886 -0.6043 -0.0157  0.0036
  145SAPE  H12B15911   1.410   1.706  10.770  0.7163 -0.5926 -0.1983
  145SAPE   C1115912   1.232   1.824  10.763  0.7098 -0.2451  0.2631
  145SAPE  H11A15913   1.213   1.934  10.759  1.4554 -0.1385 -1.9932
  145SAPE  H11B15914   1.177   1.780  10.848 -1.4913 -1.5017 -1.7023
  145SAPE     P15915   1.043   1.746  10.601  0.2505 -0.2126  0.1927
  145SAPE   O1315916   1.035   1.661  10.484 -0.2748 -0.3249  0.4385
  145SAPE   O1415917   0.967   1.702  10.721 -0.3737 -0.3828 -0.2982
  145SAPE   O1215918   1.193   1.765  10.634 -0.5864 -0.4844  0.5746
  145SAPE   O1115919   0.991   1.892  10.562 -0.0919 -0.1871 -0.2584
  145SAPE    C115920   1.080   1.977  10.479 -0.0345  1.4811 -0.5313
  145SAPE    HA15921   1.085   2.081  10.516 -0.9680  1.6462 -0.8586
  145SAPE    HB15922   1.187   1.946  10.486  0.5713  3.1346 -1.8844
  145SAPE    C215923   1.057   1.960  10.329 -0.0541 -0.5763 -0.0342
  145SAPE    HS15924   1.091   1.858  10.299  1.3728  0.3679 -1.8212
  145SAPE   O2115925   1.148   2.056  10.271 -0.7124 -0.2470  0.2619
  145SAPE   C2115926   1.268   2.025  10.244  0.5325  0.0852  0.8924
  145SAPE   O2215927   1.330   1.929  10.277  0.4224 -0.2608  0.1269
  145SAPE   C2215928   1.302   2.134  10.139  1.4292  0.5222  0.4114
  145SAPE   H2R15929   1.258   2.104  10.042 -0.5654 -0.8102  1.6425
  145SAPE   H2S15930   1.263   2.235  10.160  3.3026  1.8724 -2.0667
  145SAPE    C315931   0.909   1.981  10.273 -0.4464 -0.2693  0.6614
  145SAPE    HX15932   0.878   2.072  10.328 -2.7435  0.3313 -1.4329
  145SAPE    HY15933   0.845   1.899  10.312  0.9802 -2.2113 -0.8490
  145SAPE   O3115934   0.890   2.007  10.129  0.2072 -0.1521 -0.0242
  145SAPE   C3115935   0.959   1.919  10.063 -0.1643  0.1194  0.6286
  145SAPE   O3215936   1.000   1.808  10.102 -0.4358 -0.2768 -0.0482
  145SAPE   C3215937   0.971   1.965   9.914 -0.1339 -0.2356 -0.4294
  145SAPE   H2X15938   0.969   2.076   9.912  0.2683 -0.2375 -1.4387
  145SAPE   H2Y15939   0.878   1.928   9.867 -0.0782  0.1378 -0.8309
  145SAPE   C2315940   1.456   2.147  10.144 -0.0081 -0.3708  0.2623
  145SAPE   H3R15941   1.507   2.050  10.125  3.1594  1.0958  0.6281
  145SAPE   H3S15942   1.486   2.186  10.244  2.2038  0.6065 -0.7028
  145SAPE   C2415943   1.494   2.253  10.040 -0.2544  0.4003 -0.2070
  145SAPE   H4R15944   1.603   2.265  10.060  0.0925 -1.1653 -1.0006
  145SAPE   H4S15945   1.448   2.353  10.057  0.8986  0.8090  0.6633
  145SAPE   C2515946   1.483   2.211   9.900 -0.2489 -0.0719 -0.1169
  145SAPE   H5R15947   1.531   2.118   9.867  3.4458  1.8290 -0.6431
  145SAPE   C2615948   1.398   2.264   9.807 -0.4781  0.1273 -0.8196
  145SAPE   H6R15949   1.387   2.225   9.704 -1.3412 -1.0882 -0.2943
  145SAPE   C2715950   1.309   2.384   9.840 -0.0021  0.2582  0.1640
  145SAPE   H7R15951   1.284   2.399   9.947  1.3918 -3.2515  1.1049
  145SAPE   H7S15952   1.207   2.366   9.800 -0.1775 -2.1769  1.5847
  145SAPE   C2815953   1.372   2.501   9.778  0.2021 -0.3942  0.6507
  145SAPE   H8R15954   1.446   2.547   9.847 -0.5495 -1.3798  2.1578
  145SAPE   C2915955   1.362   2.534   9.645  0.7790 -0.6837 -0.2716
  145SAPE   H9R15956   1.404   2.628   9.607  0.6295 -0.2372  0.6477
  145SAPE  C21015957   1.291   2.464   9.535 -0.5016 -0.2419  0.0052
  145SAPE  H10R15958   1.253   2.545   9.469 -1.7956 -0.7073  0.1504
  145SAPE  H10S15959   1.205   2.401   9.567  0.0303 -1.3689 -0.7213
  145SAPE  C21115960   1.393   2.383   9.450  0.5395  0.5811 -0.0707
  145SAPE  H11R15961   1.452   2.314   9.512  0.3615  0.1465 -0.3784
  145SAPE  C21215962   1.424   2.384   9.316 -0.3558  1.0979 -0.4054
  145SAPE  H12R15963   1.497   2.314   9.274 -0.0985  0.8800  0.3888
  145SAPE  C21315964   1.368   2.476   9.211  0.5773  0.7430 -0.4303
  145SAPE  H13R15965   1.448   2.491   9.135  0.5520  3.7811  0.0150
  145SAPE  H13S15966   1.365   2.576   9.260  2.1746  0.6534 -0.0996
  145SAPE  C21415967   1.230   2.457   9.150 -0.4500  0.3745 -0.3944
  145SAPE  H14R15968   1.149   2.523   9.184 -1.5129 -0.1352 -1.8383
  145SAPE  C21515969   1.192   2.354   9.071  0.4821 -0.3564 -0.1196
  145SAPE  H15R15970   1.092   2.352   9.027  1.0883 -0.8771 -1.5498
  145SAPE  C21615971   1.287   2.243   9.019  0.5627 -0.3629 -0.1509
  145SAPE  H16R15972   1.314   2.174   9.101 -0.6708 -0.2895  0.3340
  145SAPE  H16S15973   1.384   2.277   8.976 -0.2834 -1.3080 -2.9766
  145SAPE  C21715974   1.228   2.169   8.896 -0.1383  0.1893  0.1045
  145SAPE  H17R15975   1.149   2.102   8.938 -0.3300 -0.3327 -1.0543
  145SAPE  H17S15976   1.311   2.104   8.863 -1.3409 -1.1179 -0.4670
  145SAPE  C21815977   1.160   2.250   8.784  0.1113 -0.5806  0.3301
  145SAPE  H18R15978   1.073   2.302   8.830  0.0281 -0.8314  0.4559
  145SAPE  H18S15979   1.111   2.185   8.709 -0.4591 -1.5891  1.5498
  145SAPE  C21915980   1.252   2.354   8.713  0.2736  0.7202  0.0867
  145SAPE  H19R15981   1.295   2.422   8.789 -0.6245  0.8277  0.4980
  145SAPE  H19S15982   1.187   2.417   8.649  1.1841  1.0183 -0.5666
  145SAPE  C22015983   1.354   2.283   8.625 -0.0690  0.1667  0.2465
  145SAPE  H20R15984   1.438   2.354   8.608  0.5011 -1.0298 -2.5018
  145SAPE  H20S15985   1.313   2.237   8.533 -1.7433  1.3236  0.3800
  145SAPE  H20T15986   1.399   2.204   8.689 -2.1164 -1.8619 -0.6878
  145SAPE   C3315987   1.102   1.915   9.851  0.4640  0.4443 -1.0649
  145SAPE   H3X15988   1.103   1.805   9.835  0.4227  0.0944  1.0906
  145SAPE   H3Y15989   1.185   1.936   9.922 -0.0694 -0.2712 -0.2163
  145SAPE   C3415990   1.127   1.985   9.721 -0.8208  0.0498 -0.4063
  145SAPE   H4X15991   1.227   1.963   9.677 -0.0490 -0.8075  1.6452
  145SAPE   H4Y15992   1.129   2.094   9.741 -1.1418 -0.0975  0.4701
  145SAPE   C3515993   1.023   1.962   9.612  0.1116 -0.3906  0.0123
  145SAPE   H5X15994   0.922   1.993   9.646 -0.6674  0.4118 -2.8172
  145SAPE   H5Y15995   1.023   1.854   9.587 -1.6816 -0.4715  0.2159
  145SAPE   C3615996   1.057   2.042   9.486 -0.1799 -0.0088 -0.1127
  145SAPE   H6X15997   1.149   2.000   9.440  0.6661 -0.1654  1.6215
  145SAPE   H6Y15998   1.092   2.140   9.525  2.0955 -1.4334  1.7192
  145SAPE   C3715999   0.946   2.050   9.387 -0.1612  0.3431  0.3566
  145SAPE   H7X16000   0.857   2.101   9.431  0.0141  1.0922 -0.1409
  145SAPE   H7Y16001   0.916   1.945   9.369  3.3732 -0.9436  1.2098
  145SAPE   C3816002   0.986   2.107   9.251 -1.1634  0.4171  0.3360
  145SAPE   H8X16003   1.072   2.053   9.207 -1.4325  1.7335 -1.9362
  145SAPE   H8Y16004   1.013   2.214   9.266  0.6506  0.2071 -1.1319
  145SAPE   C3916005   0.869   2.115   9.155  0.5277 -0.0089  0.4015
  145SAPE   H9X16006   0.893   2.203   9.091  3.3973 -1.2115 -0.3566
  145SAPE   H9Y16007   0.775   2.144   9.206  1.1560  0.8600  1.0907
  145SAPE  C31016008   0.842   1.989   9.087  0.8626 -0.2437 -0.0038
  145SAPE  H10X16009   0.816   1.922   9.171  1.7787 -1.1532 -0.4170
  145SAPE  H10Y16010   0.933   1.955   9.033  0.6163 -0.1500 -0.4844
  145SAPE  C31116011   0.718   1.987   8.994 -0.0992  0.2185 -0.5290
  145SAPE  H11X16012   0.745   2.043   8.901  0.7975  1.7907  0.6240
  145SAPE  H11Y16013   0.639   2.043   9.048 -0.9808 -1.0396 -0.4740
  145SAPE  C31216014   0.660   1.850   8.954  0.4730 -0.4762 -0.3525
  145SAPE  H12X16015   0.650   1.774   9.034 -0.4398 -0.3640 -0.3463
  145SAPE  H12Y16016   0.739   1.811   8.886  2.0163  1.5079  0.2014
  145SAPE  C31316017   0.533   1.878   8.880 -0.5096 -0.2851  0.0641
  145SAPE  H13X16018   0.554   1.947   8.795 -1.9787  0.4062  0.2229
  145SAPE  H13Y16019   0.472   1.934   8.954  0.5080  1.1498 -0.1322
  145SAPE  C31416020   0.458   1.762   8.818  0.1070  0.0097  0.6999
  145SAPE  H14X16021   0.358   1.797   8.784 -0.4974  0.7125  3.0158
  145SAPE  H14Y16022   0.451   1.685   8.897  1.1388 -1.0958 -0.2573
  145SAPE  C31516023   0.539   1.705   8.695  0.1832  0.1027 -0.7321
  145SAPE  H15X16024   0.483   1.623   8.647  0.1256 -0.1989 -0.1548
  145SAPE  H15Y16025   0.617   1.658   8.759 -0.8555  3.2570  3.2778
  145SAPE  C31616026   0.584   1.813   8.596  0.6186  0.0340  0.1793
  145SAPE  H16X16027   0.677   1.860   8.635  1.6262 -1.5855 -0.2164
  145SAPE  H16Y16028   0.513   1.898   8.588  0.7435  0.3217  1.7422
  145SAPE  C31716029   0.614   1.750   8.459  0.1083 -0.1008  0.0616
  145SAPE  H17X16030   0.691   1.805   8.401  1.3045 -0.9406  0.8127
  145SAPE  H17Y16031   0.522   1.741   8.396  0.3934 -3.1001 -0.0688
  145SAPE  C31816032   0.691   1.615   8.471 -0.0548  1.1167  0.2372
  145SAPE  H18X16033   0.779   1.645   8.531  0.4731  2.2388 -1.0630
  145SAPE  H18Y16034   0.721   1.563   8.377 -0.4771 -2.9083  2.0943
  145SAPE  H18Z16035   0.641   1.533   8.527  0.7978  0.2842 -0.1777
  146SAPE     N16036   6.206   4.255  10.988  0.4302  0.0150 -0.2751
  146SAPE   HN116037   6.180   4.244  11.089 -0.0849  2.0387 -0.1345
  146SAPE   HN216038   6.207   4.357  10.966  1.0658  0.5865  2.0503
  146SAPE   HN316039   6.158   4.199  10.915  1.5584  0.0915 -1.0974
  146SAPE   C1216040   6.350   4.226  10.977  0.5687  0.1138 -0.5668
  146SAPE  H12A16041   6.361   4.116  10.981 -2.0171 -0.2963 -2.4407
  146SAPE  H12B16042   6.411   4.287  11.047 -2.2409  1.8912  0.4944
  146SAPE   C1116043   6.407   4.269  10.837  0.3951  0.3834 -0.4592
  146SAPE  H11A16044   6.400   4.375  10.806 -0.9031  0.8130  1.1262
  146SAPE  H11B16045   6.332   4.220  10.772 -0.6596  1.7291 -0.2990
  146SAPE     P16046   6.573   4.144  10.675 -0.2520  0.1769  0.2434
  146SAPE   O1316047   6.725   4.144  10.671 -0.3236 -1.1384  0.7793
  146SAPE   O1416048   6.518   4.006  10.671  0.0648 -0.1231  0.2217
  146SAPE   O1216049   6.530   4.208  10.813  0.3866 -0.4360  0.1902
  146SAPE   O1116050   6.514   4.228  10.561  0.6331  0.0267 -0.3441
  146SAPE    C116051   6.571   4.331  10.487  0.3610 -0.3246 -0.4538
  146SAPE    HA16052   6.494   4.404  10.454  0.6982  0.7094  0.9459
  146SAPE    HB16053   6.665   4.374  10.528  1.3783 -3.8402  1.3141
  146SAPE    C216054   6.616   4.280  10.350 -0.0436 -1.0221  0.6465
  146SAPE    HS16055   6.665   4.367  10.300  2.4361 -3.3074 -1.2962
  146SAPE   O2116056   6.509   4.212  10.280 -0.6142  0.1648  0.1106
  146SAPE   C2116057   6.496   4.227  10.149 -1.0354  0.1188  0.0668
  146SAPE   O2216058   6.556   4.314  10.084  0.3176 -0.0739  0.8420
  146SAPE   C2216059   6.372   4.156  10.097  0.5274  0.2084  0.0549
  146SAPE   H2R16060   6.299   4.129  10.176  0.4495 -1.9897 -0.6977
  146SAPE   H2S16061   6.332   4.231  10.026  1.0387 -0.7657 -1.3211
  146SAPE    C316062   6.744   4.185  10.357  0.2088  0.3434 -0.0807
  146SAPE    HX16063   6.722   4.082  10.393  1.6462  0.4834  1.3257
  146SAPE    HY16064   6.813   4.223  10.435  0.4013 -0.5414  0.2013
  146SAPE   O3116065   6.810   4.166  10.228  0.0148  0.0113 -0.3395
  146SAPE   C3116066   6.908   4.250  10.199 -0.8556  0.2268  0.3745
  146SAPE   O3216067   6.952   4.345  10.269 -0.0576 -0.0031  0.0877
  146SAPE   C3216068   6.971   4.215  10.065 -1.0201  0.3951  0.1430
  146SAPE   H2X16069   7.006   4.110  10.073  0.6869  0.9209 -0.0077
  146SAPE   H2Y16070   7.068   4.267  10.048 -0.4394 -1.0077 -1.0477
  146SAPE   C2316071   6.409   4.030  10.022 -0.0433  0.6299  0.2139
  146SAPE   H3R16072   6.320   3.966  10.007  0.5061 -0.5470  1.7344
  146SAPE   H3S16073   6.474   3.968  10.087 -1.8370 -0.6678  0.8484
  146SAPE   C2416074   6.487   4.065   9.888  0.1559 -0.4682  0.4022
  146SAPE   H4R16075   6.509   3.968   9.838  0.3109 -1.1150  1.6734
  146SAPE   H4S16076   6.582   4.120   9.909 -0.1994  0.7118 -0.9548
  146SAPE   C2516077   6.413   4.159   9.794 -0.3939 -0.4298 -0.6210
  146SAPE   H5R16078   6.454   4.261   9.798 -2.7834  0.6405 -1.7428
  146SAPE   C2616079   6.315   4.138   9.712 -0.1037 -0.1393  0.2749
  146SAPE   H6R16080   6.278   4.226   9.656 -0.2001  0.1147  0.7323
  146SAPE   C2716081   6.250   4.001   9.695 -0.0647  0.5906 -0.9918
  146SAPE   H7R16082   6.298   3.917   9.749 -3.5283 -0.0142  1.5114
  146SAPE   H7S16083   6.267   3.974   9.589 -0.9998  2.1226 -1.5620
  146SAPE   C2816084   6.100   4.008   9.724 -0.1053  0.3750  0.6458
  146SAPE   H8R16085   6.076   3.972   9.824  0.9616  0.3905  0.9172
  146SAPE   C2916086   6.006   4.058   9.644  0.0010  0.0368 -0.1835
  146SAPE   H9R16087   5.905   4.064   9.688 -0.4671  1.2095 -1.3666
  146SAPE  C21016088   6.021   4.112   9.503  0.2093 -0.2638  0.4031
  146SAPE  H10R16089   6.019   4.027   9.433  1.4471 -0.8130  1.0128
  146SAPE  H10S16090   6.126   4.148   9.492 -0.5885  2.3263  0.4434
  146SAPE  C21116091   5.920   4.219   9.471  0.1970 -0.5628  0.0196
  146SAPE  H11R16092   5.902   4.290   9.552  1.6134 -0.4977  0.3058
  146SAPE  C21216093   5.847   4.227   9.356 -0.1924  0.6642  0.6172
  146SAPE  H12R16094   5.778   4.311   9.341 -1.8415 -1.1812 -4.0244
  146SAPE  C21316095   5.848   4.133   9.233 -0.2035  0.4004 -0.2346
  146SAPE  H13R16096   5.751   4.136   9.180  0.5112 -2.0843 -1.9116
  146SAPE  H13S16097   5.866   4.032   9.276  1.4092  1.2841  1.3165
  146SAPE  C21416098   5.949   4.177   9.130  0.3736  0.0949  0.1566
  146SAPE  H14R16099   5.922   4.276   9.090 -1.2902 -0.7858 -0.9954
  146SAPE  C21516100   6.054   4.106   9.087  0.1557 -0.2664 -0.2472
  146SAPE  H15R16101   6.131   4.157   9.026  0.2138  0.9558  0.8170
  146SAPE  C21616102   6.088   3.971   9.132  0.4435  0.2687  0.1560
  146SAPE  H16R16103   6.003   3.925   9.188  0.5855  0.3234  0.4205
  146SAPE  H16S16104   6.175   3.972   9.201  1.0056  0.9373 -0.5429
  146SAPE  C21716105   6.116   3.875   9.018 -0.5784  0.0983  0.2817
  146SAPE  H17R16106   6.112   3.772   9.061  0.4631  0.1193  0.4723
  146SAPE  H17S16107   6.222   3.884   8.985 -0.4543  0.9254  0.8884
  146SAPE  C21816108   6.038   3.879   8.890  0.1059 -0.8714 -0.2664
  146SAPE  H18R16109   6.041   3.983   8.852 -1.3919 -0.2814  1.1246
  146SAPE  H18S16110   5.930   3.857   8.906 -0.2033  1.1887  0.8262
  146SAPE  C21916111   6.096   3.778   8.794  0.0337  0.3086 -0.2697
  146SAPE  H19R16112   6.128   3.696   8.860 -1.0615 -0.8847 -1.1729
  146SAPE  H19S16113   6.186   3.820   8.745 -0.4123 -0.5088 -1.8423
  146SAPE  C22016114   6.004   3.724   8.687 -0.7626  0.1238 -0.5154
  146SAPE  H20R16115   5.920   3.672   8.737 -2.9446  2.7998 -1.2039
  146SAPE  H20S16116   6.070   3.659   8.625 -0.7154 -0.7636  0.4323
  146SAPE  H20T16117   5.960   3.808   8.630  0.3110  0.3483 -1.0327
  146SAPE   C3316118   6.883   4.229   9.944  0.2611  0.1260 -0.4676
  146SAPE   H3X16119   6.863   4.338   9.952  0.1801  0.0564  0.4303
  146SAPE   H3Y16120   6.782   4.180   9.943  0.8330 -1.1016 -1.5947
  146SAPE   C3416121   6.945   4.217   9.813 -0.1105  0.6241 -0.1065
  146SAPE   H4X16122   7.001   4.121   9.811  0.3558  0.8993 -0.5671
  146SAPE   H4Y16123   7.023   4.293   9.790  0.8245 -0.6994 -1.5068
  146SAPE   C3516124   6.839   4.225   9.709  0.5962  0.3267  0.5180
  146SAPE   H5X16125   6.775   4.315   9.724  1.2459  0.8113  0.3830
  146SAPE   H5Y16126   6.777   4.133   9.707  1.7892 -0.5126 -2.1746
  146SAPE   C3616127   6.902   4.229   9.571  1.0770 -0.4969  0.1066
  146SAPE   H6X16128   6.968   4.141   9.564 -1.3928 -2.6257  1.4950
  146SAPE   H6Y16129   6.950   4.327   9.550 -2.4880  1.7170  1.3175
  146SAPE   C3716130   6.798   4.221   9.460 -0.7220  0.0331  0.4731
  146SAPE   H7X16131   6.728   4.135   9.457 -0.1000 -0.4690  0.2088
  146SAPE   H7Y16132   6.848   4.211   9.361 -0.2236 -0.5913  0.7839
  146SAPE   C3816133   6.698   4.340   9.464 -0.7385  0.2807 -0.1678
  146SAPE   H8X16134   6.759   4.425   9.500  0.7049 -0.6113 -0.4376
  146SAPE   H8Y16135   6.616   4.326   9.538  1.9110 -0.8947  2.7518
  146SAPE   C3916136   6.637   4.369   9.323 -0.3407  0.0403  0.4746
  146SAPE   H9X16137   6.716   4.419   9.262 -0.3086 -0.1834  0.3344
  146SAPE   H9Y16138   6.554   4.443   9.326  0.7408  1.3532 -0.5307
  146SAPE  C31016139   6.576   4.253   9.248 -0.0562 -0.0843 -1.1158
  146SAPE  H10X16140   6.488   4.220   9.308 -0.9706  0.3647 -2.1646
  146SAPE  H10Y16141   6.640   4.166   9.222 -0.7930 -0.7800 -0.6365
  146SAPE  C31116142   6.520   4.300   9.111  0.0950 -0.1542  0.9699
  146SAPE  H11X16143   6.608   4.348   9.062  1.4344 -1.0431  2.3993
  146SAPE  H11Y16144   6.439   4.377   9.115 -1.2063 -1.4676  0.6074
  146SAPE  C31216145   6.472   4.177   9.029  0.8354  0.4356 -0.3872
  146SAPE  H12X16146   6.365   4.163   9.056  1.1520  0.2272  0.8105
  146SAPE  H12Y16147   6.531   4.086   9.054  0.4391  0.2435 -0.1440
  146SAPE  C31316148   6.489   4.198   8.876 -0.2732  0.5298 -0.6539
  146SAPE  H13X16149   6.457   4.108   8.819  1.5153 -0.9525  0.5187
  146SAPE  H13Y16150   6.598   4.195   8.854 -0.5289 -0.2918 -1.9246
  146SAPE  C31416151   6.417   4.317   8.812  0.3127  0.4701 -0.3686
  146SAPE  H14X16152   6.479   4.350   8.726 -0.0682 -1.4357 -1.4402
  146SAPE  H14Y16153   6.420   4.399   8.887 -1.4460  0.5565 -0.3436
  146SAPE  C31516154   6.265   4.294   8.785  0.7158  0.7027  0.0780
  146SAPE  H15X16155   6.224   4.271   8.885 -0.0606  2.3710  0.1838
  146SAPE  H15Y16156   6.231   4.225   8.705  0.9524  1.3574 -0.6053
  146SAPE  C31616157   6.193   4.433   8.772 -0.0969  0.9520 -0.2074
  146SAPE  H16X16158   6.211   4.465   8.667  1.0154 -1.1653 -0.7071
  146SAPE  H16Y16159   6.230   4.497   8.856 -2.5446  1.0789  0.8429
  146SAPE  C31716160   6.041   4.427   8.803  0.0837  0.1025  0.2674
  146SAPE  H17X16161   6.015   4.524   8.850  1.3118  1.2793 -1.3509
  146SAPE  H17Y16162   6.010   4.342   8.867  3.9341  0.5218  3.0226
  146SAPE  C31816163   5.964   4.424   8.666 -0.2853 -0.6920 -0.3701
  146SAPE  H18X16164   5.971   4.328   8.610 -1.6890 -0.2249 -1.4142
  146SAPE  H18Y16165   5.989   4.511   8.602 -0.8635  0.2946  0.7206
  146SAPE  H18Z16166   5.858   4.444   8.693 -0.4552 -1.5970 -0.3163
  147SAPE     N16167   1.969   6.036  10.685 -0.1375 -0.4019 -0.4865
  147SAPE   HN116168   1.919   6.000  10.602 -1.4450 -1.5301  0.7382
  147SAPE   HN216169   2.045   5.972  10.717 -1.2166 -0.6623  1.7877
  147SAPE   HN316170   1.894   6.033  10.757  0.1426 -0.4161 -0.1917
  147SAPE   C1216171   2.013   6.177  10.682  0.1216 -0.3816 -0.6233
  147SAPE  H12A16172   2.094   6.185  10.608  1.4593 -1.9639  0.5933
  147SAPE  H12B16173   2.058   6.205  10.780 -1.1339 -2.6800  0.6939
  147SAPE   C1116174   1.907   6.280  10.638  0.7866 -0.6364 -0.1028
  147SAPE  H11A16175   1.839   6.229  10.568 -1.1938  0.3207  1.0414
  147SAPE  H11B16176   1.946   6.367  10.579 -0.5507  1.0907  1.4334
  147SAPE     P16177   1.672   6.323  10.771  0.0480  0.3810  0.4875
  147SAPE   O1316178   1.656   6.228  10.879  0.2601  0.1654  0.0655
  147SAPE   O1416179   1.614   6.456  10.787  0.0382 -0.2528 -0.2025
  147SAPE   O1216180   1.831   6.334  10.745  0.2615 -0.1719 -0.3384
  147SAPE   O1116181   1.625   6.249  10.633  0.2788 -0.6152 -0.2245
  147SAPE    C116182   1.497   6.200  10.615  0.1364  0.0245 -0.9969
  147SAPE    HA16183   1.506   6.090  10.631  0.1803  0.2324  0.6241
  147SAPE    HB16184   1.431   6.220  10.702  0.5445 -0.4422 -0.5690
  147SAPE    C216185   1.428   6.228  10.480 -0.6002  1.1069 -0.2567
  147SAPE    HS16186   1.343   6.157  10.476  1.2286 -1.3269  1.4300
  147SAPE   O2116187   1.525   6.210  10.376  0.0810  0.5111 -0.0084
  147SAPE   C2116188   1.530   6.089  10.326  0.6044  0.2986 -0.7609
  147SAPE   O2216189   1.468   5.990  10.361  0.0884 -0.0549  0.0929
  147SAPE   C2216190   1.633   6.085  10.218  0.0139 -0.0277  0.4466
  147SAPE   H2R16191   1.665   6.190  10.201  0.3790 -0.1507  0.3636
  147SAPE   H2S16192   1.716   6.023  10.259  0.8400  1.6718  1.5166
  147SAPE    C316193   1.367   6.372  10.469 -0.1315  0.3275 -0.3558
  147SAPE    HX16194   1.436   6.456  10.490 -1.0056  2.6732 -5.3762
  147SAPE    HY16195   1.287   6.394  10.542 -0.0235  0.2045 -0.2003
  147SAPE   O3116196   1.322   6.397  10.338 -0.2586  0.5763 -0.6065
  147SAPE   C3116197   1.201   6.357  10.313  0.3302 -0.0097 -0.7921
  147SAPE   O3216198   1.130   6.285  10.380  0.2541  0.3175  0.4009
  147SAPE   C3216199   1.174   6.406  10.178  0.2342  0.9967  0.1054
  147SAPE   H2X16200   1.235   6.349  10.105 -0.6862  2.1709 -1.6297
  147SAPE   H2Y16201   1.194   6.515  10.169  1.8462  0.6305 -1.2979
  147SAPE   C2316202   1.568   6.020  10.090  0.1104 -0.0040 -0.9249
  147SAPE   H3R16203   1.517   5.926  10.121 -0.9517  0.5377 -1.0174
  147SAPE   H3S16204   1.643   5.988  10.013  1.3026 -0.3264  0.3273
  147SAPE   C2416205   1.461   6.107  10.024 -0.4757  0.1393  0.3982
  147SAPE   H4R16206   1.378   6.141  10.090 -0.4647  0.2916  0.3364
  147SAPE   H4S16207   1.413   6.046   9.944 -1.6662  0.6644  0.6837
  147SAPE   C2516208   1.536   6.230   9.971 -0.2243 -0.3519 -0.2389
  147SAPE   H5R16209   1.575   6.298  10.049  0.7496 -4.1343  2.9030
  147SAPE   C2616210   1.548   6.264   9.842  0.4261 -0.4110 -0.7027
  147SAPE   H6R16211   1.592   6.359   9.809 -2.8732  0.6179 -2.5639
  147SAPE   C2716212   1.496   6.196   9.716 -0.3829  0.0339  0.3682
  147SAPE   H7R16213   1.432   6.110   9.746  0.9220 -0.9692  0.3857
  147SAPE   H7S16214   1.582   6.152   9.661 -1.0992 -1.1292  0.1208
  147SAPE   C2816215   1.416   6.290   9.640 -0.0219  0.0522 -0.2578
  147SAPE   H8R16216   1.341   6.351   9.694 -0.4397 -0.5465 -0.1491
  147SAPE   C2916217   1.420   6.312   9.504  0.7783 -0.4368 -0.1653
  147SAPE   H9R16218   1.335   6.376   9.475  0.4354 -0.1630  1.3715
  147SAPE  C21016219   1.502   6.266   9.394 -0.4166  0.3560  0.3480
  147SAPE  H10R16220   1.607   6.249   9.424 -0.4087  1.5457  1.0524
  147SAPE  H10S16221   1.519   6.357   9.332  2.1890  0.5058  1.1655
  147SAPE  C21116222   1.454   6.141   9.307 -0.4360 -0.2982 -0.7426
  147SAPE  H11R16223   1.437   6.047   9.363 -1.2863 -1.1416 -2.3253
  147SAPE  C21216224   1.442   6.151   9.178  0.8007  0.5783  0.1138
  147SAPE  H12R16225   1.409   6.060   9.126 -2.0325  1.1748  0.7132
  147SAPE  C21316226   1.462   6.274   9.089  0.4669  0.5054 -0.2200
  147SAPE  H13R16227   1.554   6.324   9.126  0.4167  0.1983  0.3399
  147SAPE  H13S16228   1.373   6.337   9.110  0.4342  1.0117 -1.7695
  147SAPE  C21416229   1.462   6.236   8.943 -0.4212  0.4746  0.0542
  147SAPE  H14R16230   1.549   6.181   8.905  0.1468  0.6580  1.0807
  147SAPE  C21516231   1.380   6.281   8.844  0.1300  0.9149  0.4903
  147SAPE  H15R16232   1.398   6.248   8.741  1.0426  1.1154  0.5751
  147SAPE  C21616233   1.265   6.380   8.851 -0.1858  0.2028  0.0697
  147SAPE  H16R16234   1.228   6.388   8.956 -0.5991 -4.0675  0.3986
  147SAPE  H16S16235   1.167   6.350   8.809 -0.3938 -0.1858  0.8061
  147SAPE  C21716236   1.316   6.509   8.802  0.4016  0.4039  0.0272
  147SAPE  H17R16237   1.362   6.500   8.701 -0.9772 -0.4533 -0.5600
  147SAPE  H17S16238   1.395   6.543   8.872 -0.2949  2.7037 -0.2152
  147SAPE  C21816239   1.203   6.620   8.804  0.9535  0.1167  0.4592
  147SAPE  H18R16240   1.170   6.647   8.907  1.2130  0.3593  0.4812
  147SAPE  H18S16241   1.110   6.583   8.757 -0.4090  1.8231  1.6803
  147SAPE  C21916242   1.252   6.741   8.721  0.4772  0.5586  0.1028
  147SAPE  H19R16243   1.352   6.787   8.739 -0.5073  1.8538  2.8638
  147SAPE  H19S16244   1.185   6.824   8.751 -0.8577 -0.9308  1.4276
  147SAPE  C22016245   1.237   6.722   8.572 -0.4681  0.1393  0.9123
  147SAPE  H20R16246   1.132   6.713   8.537  0.0488 -1.8075 -0.3370
  147SAPE  H20S16247   1.295   6.633   8.540  0.9940  1.2305  0.4380
  147SAPE  H20T16248   1.283   6.803   8.512 -0.6488 -1.0990 -0.9980
  147SAPE   C3316249   1.023   6.395  10.158  1.0146  1.0243 -0.5801
  147SAPE   H3X16250   0.974   6.456  10.237 -0.2325  1.9440 -2.0054
  147SAPE   H3Y16251   0.978   6.294  10.155  1.0384  1.0365 -1.8995
  147SAPE   C3416252   0.978   6.481  10.034  0.8924 -0.3107 -0.2322
  147SAPE   H4X16253   0.995   6.590  10.053 -1.5384  0.0837 -0.0025
  147SAPE   H4Y16254   0.868   6.469  10.029  0.8426 -0.1910  0.5158
  147SAPE   C3516255   1.040   6.436   9.902  0.0473 -0.2977  0.2152
  147SAPE   H5X16256   1.017   6.329   9.882  0.8661 -0.3946 -0.2514
  147SAPE   H5Y16257   1.151   6.441   9.901  0.1151 -1.0270  1.6807
  147SAPE   C3616258   0.994   6.515   9.776  1.1376  0.0076 -0.2641
  147SAPE   H6X16259   1.016   6.623   9.780 -0.8396  0.5149 -1.7414
  147SAPE   H6Y16260   0.883   6.512   9.774  1.1463 -1.9344 -0.9233
  147SAPE   C3716261   1.061   6.462   9.647  0.2385  0.0529  0.3571
  147SAPE   H7X16262   1.022   6.359   9.652 -0.5098  0.3385  0.5497
  147SAPE   H7Y16263   1.172   6.468   9.649  0.1785  1.5151  0.9340
  147SAPE   C3816264   1.001   6.523   9.522 -0.6418  1.0562  0.5284
  147SAPE   H8X16265   1.034   6.629   9.511 -0.6473  1.0342  0.2940
  147SAPE   H8Y16266   0.893   6.535   9.543 -1.0752  0.0955 -0.9540
  147SAPE   C3916267   1.039   6.446   9.391 -0.5050 -0.2861  0.1772
  147SAPE   H9X16268   0.984   6.349   9.393 -3.1418  1.0875  3.0713
  147SAPE   H9Y16269   1.149   6.431   9.390 -0.4668 -0.5654  2.5403
  147SAPE  C31016270   0.979   6.522   9.274 -0.1849 -0.7859  0.6038
  147SAPE  H10X16271   1.045   6.608   9.251  3.2419 -3.5670 -0.8613
  147SAPE  H10Y16272   0.879   6.561   9.305 -0.3579 -1.0361  0.3640
  147SAPE  C31116273   0.971   6.442   9.142  0.0399 -0.4535 -0.1903
  147SAPE  H11X16274   0.903   6.357   9.160 -1.5942  0.4000 -1.9772
  147SAPE  H11Y16275   1.067   6.398   9.108  0.5810  0.4037  0.1783
  147SAPE  C31216276   0.900   6.532   9.034 -0.3272  0.8949  0.2666
  147SAPE  H12X16277   0.970   6.614   9.005  2.0555 -0.7492  0.9934
  147SAPE  H12Y16278   0.818   6.587   9.083 -2.2806 -1.7842  0.2468
  147SAPE  C31316279   0.863   6.446   8.916 -0.3050  0.0660  0.9257
  147SAPE  H13X16280   0.782   6.372   8.935  0.6786 -1.5493 -0.7743
  147SAPE  H13Y16281   0.952   6.384   8.891 -1.1514 -0.9326  0.2832
  147SAPE  C31416282   0.811   6.532   8.803  0.4664 -0.5489  0.7683
  147SAPE  H14X16283   0.876   6.622   8.794 -0.2285 -0.1796 -0.8395
  147SAPE  H14Y16284   0.712   6.576   8.830  0.4112 -0.4880  0.4712
  147SAPE  C31516285   0.814   6.463   8.671 -0.2418 -0.1722  0.7642
  147SAPE  H15X16286   0.741   6.379   8.675 -0.4904  0.0660  1.5240
  147SAPE  H15Y16287   0.917   6.424   8.658  0.1550 -0.1059  3.0959
  147SAPE  C31616288   0.767   6.551   8.554  0.1816  0.3649 -0.6136
  147SAPE  H16X16289   0.840   6.537   8.470  2.4020  1.6365  0.9816
  147SAPE  H16Y16290   0.784   6.656   8.584  0.8625 -0.1790  1.0114
  147SAPE  C31716291   0.617   6.523   8.526 -0.7105 -0.0322 -0.0498
  147SAPE  H17X16292   0.566   6.521   8.625 -0.1959 -0.0242  0.2224
  147SAPE  H17Y16293   0.608   6.422   8.482  2.8603 -1.1415  1.3717
  147SAPE  C31816294   0.561   6.632   8.431  0.3356  0.5749  0.5354
  147SAPE  H18X16295   0.647   6.672   8.373 -0.1917 -0.1117 -0.7668
  147SAPE  H18Y16296   0.517   6.708   8.499 -1.0980 -0.3277  0.6484
  147SAPE  H18Z16297   0.483   6.592   8.362  0.8845 -1.5056  1.0393
  148SAPE     N16298   3.332   0.517  10.601  0.2793  0.6790  0.0384
  148SAPE   HN116299   3.410   0.466  10.554 -1.8322 -0.8288 -2.0518
  148SAPE   HN216300   3.366   0.615  10.603 -0.2331  0.8595 -0.0625
  148SAPE   HN316301   3.315   0.466  10.691  1.6919 -1.8122 -1.0006
  148SAPE   C1216302   3.207   0.495  10.508  0.4246 -0.6509  0.7913
  148SAPE  H12A16303   3.226   0.393  10.470 -2.6398 -1.3718  0.9535
  148SAPE  H12B16304   3.212   0.571  10.427 -3.6325 -0.8479  0.1772
  148SAPE   C1116305   3.080   0.517  10.581  0.3641  0.0914  0.2093
  148SAPE  H11A16306   3.071   0.420  10.634 -0.9798  0.5000  0.7772
  148SAPE  H11B16307   2.991   0.516  10.514  0.7904 -0.2396 -0.3621
  148SAPE     P16308   3.008   0.762  10.644  0.3486 -0.3859  0.3391
  148SAPE   O1316309   2.868   0.732  10.675 -0.5439  0.1712 -0.3448
  148SAPE   O1416310   3.073   0.865  10.722 -0.1195  0.3963 -0.0429
  148SAPE   O1216311   3.083   0.626  10.677 -1.0478 -0.2804  0.5959
  148SAPE   O1116312   3.022   0.792  10.490  0.0234 -0.0096  0.2912
  148SAPE    C116313   3.136   0.868  10.444 -0.1785 -0.2634 -0.0802
  148SAPE    HA16314   3.160   0.955  10.509  3.2096 -0.9417 -0.2657
  148SAPE    HB16315   3.226   0.805  10.434 -0.7443 -1.1414  0.2235
  148SAPE    C216316   3.118   0.932  10.300  0.1364 -0.1180 -0.2233
  148SAPE    HS16317   3.199   1.007  10.285 -0.2695 -0.1473 -2.9313
  148SAPE   O2116318   2.987   0.996  10.300  0.0630  0.1646  0.1463
  148SAPE   C2116319   2.981   1.111  10.357 -0.1276 -0.0888 -0.5764
  148SAPE   O2216320   3.075   1.171  10.405 -0.4065 -0.0087  0.1076
  148SAPE   C2216321   2.831   1.156  10.378 -0.4685  0.1184 -0.3453
  148SAPE   H2R16322   2.766   1.109  10.301 -0.6606  0.7363 -0.5764
  148SAPE   H2S16323   2.809   1.113  10.478  3.1609  2.0886  1.5136
  148SAPE    C316324   3.126   0.817  10.195 -0.6526  0.1020 -0.2767
  148SAPE    HX16325   3.059   0.740  10.240  0.2751 -0.5166  0.0563
  148SAPE    HY16326   3.226   0.774  10.174  0.2743  1.6848  0.7226
  148SAPE   O3116327   3.090   0.856  10.061 -0.4911 -0.6925  0.1925
  148SAPE   C3116328   3.022   0.769   9.986  0.5230 -1.3619 -0.2574
  148SAPE   O3216329   2.972   0.666  10.029  0.0690 -0.1231 -0.7593
  148SAPE   C3216330   3.026   0.825   9.848 -0.0251  0.1897  0.1761
  148SAPE   H2X16331   3.132   0.814   9.815  0.0670 -0.1326  0.5649
  148SAPE   H2Y16332   2.989   0.929   9.843  2.8841  1.2587 -1.4853
  148SAPE   C2316333   2.809   1.307  10.387  0.7818  0.0707  0.3971
  148SAPE   H3R16334   2.874   1.368  10.454 -1.6572  1.4800  1.5963
  148SAPE   H3S16335   2.711   1.329  10.433 -0.6141  0.0633 -2.4293
  148SAPE   C2416336   2.810   1.368  10.254  0.0331 -0.1752  0.1840
  148SAPE   H4R16337   2.903   1.338  10.201  0.0853 -0.1527  0.2636
  148SAPE   H4S16338   2.808   1.479  10.250  1.7002 -0.1461 -0.4352
  148SAPE   C2516339   2.688   1.321  10.177  0.0221 -0.4357 -0.5413
  148SAPE   H5R16340   2.592   1.329  10.231  0.4188 -0.6815  0.2125
  148SAPE   C2616341   2.683   1.256  10.059  0.3333 -0.1071  0.9227
  148SAPE   H6R16342   2.585   1.232  10.015 -0.3631  1.5072  1.4987
  148SAPE   C2716343   2.797   1.204   9.970  0.1267 -0.5379 -0.1934
  148SAPE   H7R16344   2.890   1.185  10.029  0.5000  0.9136 -0.2684
  148SAPE   H7S16345   2.819   1.290   9.903  0.6040  0.8329  1.6452
  148SAPE   C2816346   2.767   1.072   9.905  0.3968 -0.3121  0.3148
  148SAPE   H8R16347   2.795   0.987   9.969  1.0542  0.2185  0.7373
  148SAPE   C2916348   2.725   1.050   9.780 -0.2611 -0.1298 -0.0014
  148SAPE   H9R16349   2.693   0.950   9.749 -2.1575  0.3623  0.2703
  148SAPE  C21016350   2.697   1.152   9.675 -0.3705 -0.1868 -0.2073
  148SAPE  H10R16351   2.666   1.250   9.717  1.9110  0.4816  0.0488
  148SAPE  H10S16352   2.619   1.112   9.607 -0.4652  0.9915 -0.8235
  148SAPE  C21116353   2.823   1.188   9.594  0.2317  0.0550  0.6889
  148SAPE  H11R16354   2.911   1.215   9.654 -1.7245  0.0978  3.7305
  148SAPE  C21216355   2.831   1.190   9.455 -0.0546  0.0074 -0.1358
  148SAPE  H12R16356   2.931   1.196   9.410  0.1680 -1.9706  0.0094
  148SAPE  C21316357   2.714   1.154   9.352  0.0622  0.9431 -0.2675
  148SAPE  H13R16358   2.615   1.153   9.401 -0.4262 -2.0019 -1.0904
  148SAPE  H13S16359   2.727   1.046   9.329 -2.8968  0.6927 -1.1386
  148SAPE  C21416360   2.720   1.242   9.228  0.2177  0.1614  0.5717
  148SAPE  H14R16361   2.650   1.326   9.243 -1.0031 -0.4182 -1.5165
  148SAPE  C21516362   2.803   1.245   9.119 -0.1496 -0.3781 -0.4434
  148SAPE  H15R16363   2.794   1.336   9.057  2.3990  1.3212  1.4610
  148SAPE  C21616364   2.918   1.149   9.092 -0.0005 -0.3508  0.4240
  148SAPE  H16R16365   2.934   1.068   9.166 -0.4484 -1.3087 -0.5069
  148SAPE  H16S16366   3.006   1.217   9.092  1.0698 -1.6879 -0.8129
  148SAPE  C21716367   2.908   1.089   8.953 -0.4077  0.2869  0.4734
  148SAPE  H17R16368   2.813   1.032   8.945  0.4257 -1.3319  1.5234
  148SAPE  H17S16369   2.980   1.006   8.932  0.1138  0.9396 -0.3593
  148SAPE  C21816370   2.926   1.198   8.841 -0.2289  0.1660  0.5900
  148SAPE  H18R16371   3.031   1.236   8.840 -0.7444  1.9132  3.2109
  148SAPE  H18S16372   2.872   1.291   8.869 -1.9274 -0.8299  0.7113
  148SAPE  C21916373   2.888   1.140   8.706 -0.4540  0.4250  0.9846
  148SAPE  H19R16374   2.778   1.126   8.707 -0.6018  1.4726  0.3507
  148SAPE  H19S16375   2.932   1.038   8.710 -0.3751  0.4724  1.3795
  148SAPE  C22016376   2.943   1.218   8.591  0.3527 -0.0557  0.7663
  148SAPE  H20R16377   3.052   1.241   8.586 -0.0152  1.6537 -0.5603
  148SAPE  H20S16378   2.888   1.314   8.581  1.2849  0.4105 -0.2346
  148SAPE  H20T16379   2.915   1.153   8.505  1.1400  0.1212  0.3596
  148SAPE   C3316380   2.951   0.739   9.736 -0.3274  0.2224  0.5169
  148SAPE   H3X16381   2.841   0.742   9.755 -0.2052  1.5110  1.1165
  148SAPE   H3Y16382   2.983   0.634   9.718 -0.8614  0.3601 -1.4480
  148SAPE   C3416383   2.972   0.801   9.595 -0.4874  0.1449  0.3944
  148SAPE   H4X16384   3.075   0.843   9.592 -0.9226  1.1917 -0.1574
  148SAPE   H4Y16385   2.902   0.887   9.590 -0.2831  0.7923  4.5948
  148SAPE   C3516386   2.962   0.700   9.480 -0.2823  0.1823 -0.2640
  148SAPE   H5X16387   2.869   0.642   9.502 -0.7548  1.4716  1.3606
  148SAPE   H5Y16388   3.050   0.632   9.472  0.6509  0.6289  3.8554
  148SAPE   C3616389   2.940   0.779   9.348 -0.0744 -0.2885 -0.8478
  148SAPE   H6X16390   3.015   0.861   9.345  0.0794 -0.1897  2.5451
  148SAPE   H6Y16391   2.837   0.818   9.359 -0.1416 -0.7298  0.1146
  148SAPE   C3716392   2.945   0.677   9.233 -0.2195 -0.4275  0.8775
  148SAPE   H7X16393   2.869   0.598   9.243  0.8638 -1.4984  0.8873
  148SAPE   H7Y16394   3.044   0.626   9.233 -0.2164 -0.7407 -3.1410
  148SAPE   C3816395   2.926   0.746   9.096  0.2537 -1.1149  0.3395
  148SAPE   H8X16396   2.998   0.830   9.091  0.0565 -0.9819 -0.4192
  148SAPE   H8Y16397   2.823   0.789   9.093 -0.5291 -2.9510 -0.6935
  148SAPE   C3916398   2.940   0.641   8.982  0.4263 -0.0559 -0.1736
  148SAPE   H9X16399   2.876   0.551   8.989  1.5721 -1.0587 -1.7541
  148SAPE   H9Y16400   3.042   0.599   8.992 -0.0077 -0.7710  1.6579
  148SAPE  C31016401   2.932   0.698   8.838 -0.5619  0.4513  0.3679
  148SAPE  H10X16402   2.999   0.633   8.778 -0.4485  0.8072  0.1030
  148SAPE  H10Y16403   2.992   0.792   8.844 -0.5290  0.3541  2.2511
  148SAPE  C31116404   2.797   0.724   8.762  0.2406  0.0057  0.1889
  148SAPE  H11X16405   2.743   0.812   8.804  0.9154  0.2489  0.5716
  148SAPE  H11Y16406   2.730   0.636   8.777 -1.1406  1.2645  1.8431
  148SAPE  C31216407   2.828   0.732   8.617 -0.5464 -0.0379 -0.2260
  148SAPE  H12X16408   2.889   0.647   8.579 -0.4813  0.0042 -0.2164
  148SAPE  H12Y16409   2.897   0.817   8.600  1.2401 -0.7887  2.7103
  148SAPE  C31316410   2.706   0.758   8.524  0.4048  0.1109  0.1082
  148SAPE  H13X16411   2.754   0.785   8.427 -0.0036  0.3608 -0.0228
  148SAPE  H13Y16412   2.656   0.850   8.561  1.2263  0.4746  0.3435
  148SAPE  C31416413   2.603   0.647   8.503 -0.4444  1.3290  0.7208
  148SAPE  H14X16414   2.515   0.686   8.447 -0.2984  0.2438 -0.2869
  148SAPE  H14Y16415   2.571   0.605   8.601 -2.3493 -1.3702 -0.9252
  148SAPE  C31516416   2.654   0.523   8.430 -0.0113  0.1517 -0.1593
  148SAPE  H15X16417   2.747   0.494   8.483  0.2218  0.6241 -0.2994
  148SAPE  H15Y16418   2.675   0.554   8.326  0.5672  2.6559  0.6205
  148SAPE  C31616419   2.552   0.401   8.440 -0.3033 -0.1409  0.2273
  148SAPE  H16X16420   2.569   0.328   8.358  0.5732 -1.1163  1.2564
  148SAPE  H16Y16421   2.449   0.441   8.424 -0.0162  0.2114 -0.7698
  148SAPE  C31716422   2.568   0.324   8.574  0.1050  0.0167  0.1162
  148SAPE  H17X16423   2.532   0.398   8.648 -1.7979 -0.2363 -0.4851
  148SAPE  H17Y16424   2.674   0.297   8.592 -0.2782 -1.3738  0.3992
  148SAPE  C31816425   2.485   0.195   8.590  0.5373 -1.0002  0.5159
  148SAPE  H18X16426   2.493   0.149   8.691 -0.2049 -0.2953  0.9058
  148SAPE  H18Y16427   2.518   0.130   8.506 -2.5258 -2.4794  0.3036
  148SAPE  H18Z16428   2.376   0.214   8.577  0.5916 -1.7633 -1.4618
  149SAPE     N16429   4.963   5.941  10.591  0.1410 -0.0423 -0.0509
  149SAPE   HN116430   4.962   5.917  10.489  1.6316 -0.3001 -0.0216
  149SAPE   HN216431   4.908   5.861  10.628 -1.6623  0.3096 -1.7472
  149SAPE   HN316432   4.888   6.011  10.610  0.4186 -0.3304  2.2857
  149SAPE   C1216433   5.100   5.960  10.638 -0.0187  0.1941  0.2033
  149SAPE  H12A16434   5.098   6.036  10.719  1.4532  0.5110 -0.0223
  149SAPE  H12B16435   5.165   5.994  10.555  0.0020 -0.3474 -0.0017
  149SAPE   C1116436   5.157   5.822  10.688  0.1806  0.5699 -0.0599
  149SAPE  H11A16437   5.241   5.853  10.754 -1.2618  1.3489  1.4664
  149SAPE  H11B16438   5.209   5.769  10.606  0.9745 -1.5227  1.7065
  149SAPE     P16439   5.087   5.680  10.897  0.4565 -0.1460  0.1705
  149SAPE   O1316440   5.114   5.774  11.003  0.0734  0.7374 -1.2190
  149SAPE   O1416441   4.974   5.590  10.934 -0.3164  0.1053 -0.4290
  149SAPE   O1216442   5.062   5.742  10.756  0.4797  0.1361 -0.3166
  149SAPE   O1116443   5.216   5.590  10.858  0.0113 -0.4360 -0.1214
  149SAPE    C116444   5.198   5.460  10.797 -0.4115 -0.2421 -0.6772
  149SAPE    HA16445   5.138   5.394  10.863  1.6965  0.0727  1.6800
  149SAPE    HB16446   5.148   5.471  10.698  0.0922  0.8020 -0.8295
  149SAPE    C216447   5.337   5.388  10.794  0.0863 -0.4705 -0.3435
  149SAPE    HS16448   5.393   5.421  10.885 -1.4310  0.8239  0.1613
  149SAPE   O2116449   5.406   5.432  10.673 -0.0067  0.3881 -0.1381
  149SAPE   C2116450   5.542   5.411  10.679  0.1642  0.6545  0.6888
  149SAPE   O2216451   5.602   5.353  10.769  0.9044  0.9040  0.2067
  149SAPE   C2216452   5.595   5.463  10.545 -0.1173  0.8352 -0.3663
  149SAPE   H2R16453   5.694   5.510  10.566 -1.3184  2.4056  2.2976
  149SAPE   H2S16454   5.612   5.374  10.481 -2.5408 -0.5497  0.7644
  149SAPE    C316455   5.327   5.233  10.802  0.6308 -0.4887 -0.5328
  149SAPE    HX16456   5.273   5.208  10.896  1.3920  0.6043  0.2133
  149SAPE    HY16457   5.432   5.199  10.811  1.0226  0.5842 -0.9384
  149SAPE   O3116458   5.263   5.178  10.687  0.2810 -0.4802  0.9035
  149SAPE   C3116459   5.346   5.113  10.604  0.2217  0.4942  0.3901
  149SAPE   O3216460   5.467   5.109  10.610  0.4221 -0.7386  0.2606
  149SAPE   C3216461   5.269   5.038  10.499  0.4636  0.2467 -0.0332
  149SAPE   H2X16462   5.161   5.048  10.526  0.6336  0.7778  0.4608
  149SAPE   H2Y16463   5.284   4.928  10.506 -0.5391  0.0945 -0.1203
  149SAPE   C2316464   5.501   5.552  10.460  0.4707  0.4161  0.0172
  149SAPE   H3R16465   5.471   5.642  10.519  1.0040  0.7334 -0.1886
  149SAPE   H3S16466   5.411   5.492  10.435  0.9181  0.2421 -1.2838
  149SAPE   C2416467   5.554   5.613  10.329 -0.1501 -0.5608 -0.4721
  149SAPE   H4R16468   5.478   5.690  10.304 -0.4469 -1.4385 -2.4824
  149SAPE   H4S16469   5.558   5.552  10.236 -1.7661 -0.3855 -0.6991
  149SAPE   C2516470   5.677   5.691  10.359  0.3994 -0.3889  0.7566
  149SAPE   H5R16471   5.755   5.644  10.421  1.4790  2.2666  1.5659
  149SAPE   C2616472   5.708   5.824  10.338  0.1382  0.2412  0.3158
  149SAPE   H6R16473   5.798   5.871  10.380 -0.4034  1.4697  0.1429
  149SAPE   C2716474   5.623   5.922  10.262  0.4709  0.0759  0.2525
  149SAPE   H7R16475   5.622   6.009  10.330 -0.2161  1.4669 -1.4638
  149SAPE   H7S16476   5.520   5.888  10.240  0.6861  0.1703 -0.9767
  149SAPE   C2816477   5.702   5.953  10.139 -0.8946 -0.0126  0.1132
  149SAPE   H8R16478   5.784   6.021  10.164 -0.3423 -1.7271  3.5742
  149SAPE   C2916479   5.677   5.909  10.010 -0.1988  0.7262 -0.0213
  149SAPE   H9R16480   5.752   5.931   9.933  1.0887 -1.4436  0.5360
  149SAPE  C21016481   5.549   5.835   9.977  0.6315  0.0972  0.3802
  149SAPE  H10R16482   5.469   5.903   9.941 -0.0936 -0.1775  1.4329
  149SAPE  H10S16483   5.505   5.776  10.060  2.3475 -0.5448  0.8737
  149SAPE  C21116484   5.586   5.730   9.866  0.4415  0.0031  0.3223
  149SAPE  H11R16485   5.588   5.626   9.901 -3.0121 -0.1410  0.3773
  149SAPE  C21216486   5.596   5.756   9.737  0.1408  0.1848  0.5629
  149SAPE  H12R16487   5.621   5.671   9.672 -0.8314  0.6658 -0.4869
  149SAPE  C21316488   5.590   5.890   9.667 -0.2042 -0.6394 -0.3791
  149SAPE  H13R16489   5.687   5.943   9.676 -0.1342 -0.6826 -0.8800
  149SAPE  H13S16490   5.520   5.963   9.714  2.9332  1.9197  0.7521
  149SAPE  C21416491   5.569   5.868   9.520  1.0094 -0.0227  0.0646
  149SAPE  H14R16492   5.521   5.775   9.485  0.3601 -0.4043  1.8492
  149SAPE  C21516493   5.594   5.956   9.420  0.3923 -0.1657 -0.4221
  149SAPE  H15R16494   5.567   5.929   9.317  0.1593 -0.5317 -0.2672
  149SAPE  C21616495   5.657   6.092   9.446 -0.5063 -0.2318  0.4818
  149SAPE  H16R16496   5.765   6.089   9.423 -0.2881 -0.0206  1.4378
  149SAPE  H16S16497   5.670   6.119   9.553  1.9738 -0.3836  0.2573
  149SAPE  C21716498   5.585   6.190   9.363 -0.1966 -0.1484 -0.2617
  149SAPE  H17R16499   5.480   6.184   9.398  0.2756 -1.5056  1.0017
  149SAPE  H17S16500   5.591   6.164   9.256 -0.5977 -2.1374  0.1597
  149SAPE  C21816501   5.647   6.329   9.373  0.1752 -0.6890 -0.0768
  149SAPE  H18R16502   5.757   6.338   9.361  0.1097  1.1798  0.4147
  149SAPE  H18S16503   5.632   6.368   9.476  1.0337  0.9605 -0.5249
  149SAPE  C21916504   5.594   6.434   9.277  0.5537 -0.3063 -0.6179
  149SAPE  H19R16505   5.490   6.452   9.313  0.9935  1.1731 -0.0125
  149SAPE  H19S16506   5.590   6.393   9.173  1.7331 -0.9286 -0.4281
  149SAPE  C22016507   5.658   6.567   9.276  0.5593  0.3422  0.3519
  149SAPE  H20R16508   5.767   6.555   9.257  0.3801 -1.8215  0.5056
  149SAPE  H20S16509   5.642   6.622   9.372  2.7338  0.2029  0.8589
  149SAPE  H20T16510   5.624   6.625   9.188  1.8066 -0.3719 -0.6447
  149SAPE   C3316511   5.305   5.087  10.355  0.3692  0.3252 -0.2589
  149SAPE   H3X16512   5.313   5.198  10.347 -1.4986  0.4390 -1.0556
  149SAPE   H3Y16513   5.225   5.066  10.280 -0.9779 -2.2035  1.7267
  149SAPE   C3416514   5.424   5.015  10.287 -0.7139  0.3335 -0.2040
  149SAPE   H4X16515   5.407   4.906  10.274 -1.9963  0.6805 -1.6489
  149SAPE   H4Y16516   5.512   5.030  10.353 -2.7147 -2.2635  3.4410
  149SAPE   C3516517   5.458   5.086  10.157 -0.1000  0.0356  0.5026
  149SAPE   H5X16518   5.561   5.054  10.129 -1.0181 -2.2609 -0.4822
  149SAPE   H5Y16519   5.463   5.197  10.165  0.3335  0.1479 -0.9597
  149SAPE   C3616520   5.368   5.031  10.039  0.2145 -0.3935 -0.2000
  149SAPE   H6X16521   5.262   5.053  10.063  0.3150  1.2173 -1.1004
  149SAPE   H6Y16522   5.376   4.920  10.040  1.0945 -0.3429  0.7295
  149SAPE   C3716523   5.410   5.100   9.905 -0.0829  0.0487  0.2096
  149SAPE   H7X16524   5.511   5.065   9.875  0.0555  2.0414 -1.9671
  149SAPE   H7Y16525   5.409   5.211   9.905  0.7678  0.0696 -0.8047
  149SAPE   C3816526   5.323   5.062   9.788  0.0577 -0.0330 -0.5177
  149SAPE   H8X16527   5.228   5.119   9.776  0.4629  0.2130 -3.2741
  149SAPE   H8Y16528   5.297   4.954   9.799 -1.5086  0.4388  0.8610
  149SAPE   C3916529   5.395   5.064   9.649  0.1542  0.1773 -0.5116
  149SAPE   H9X16530   5.497   5.027   9.672 -0.5005 -1.7481 -0.5175
  149SAPE   H9Y16531   5.412   5.171   9.625  2.7118  0.0587  0.4398
  149SAPE  C31016532   5.323   4.976   9.546  0.0232  0.8322  0.3123
  149SAPE  H10X16533   5.216   5.005   9.535 -1.0408 -2.6469  0.2530
  149SAPE  H10Y16534   5.326   4.876   9.593 -0.0447  0.9276  0.5245
  149SAPE  C31116535   5.374   4.966   9.400  0.2452 -0.0824 -0.5112
  149SAPE  H11X16536   5.482   4.956   9.379  0.1330 -0.2859 -1.0098
  149SAPE  H11Y16537   5.343   5.058   9.345 -2.7043 -0.0741  0.9446
  149SAPE  C31216538   5.313   4.853   9.322 -0.0072  0.9296 -0.2865
  149SAPE  H12X16539   5.203   4.852   9.338  0.1953 -0.7071  1.4127
  149SAPE  H12Y16540   5.365   4.756   9.342 -1.4999  0.3045  0.6964
  149SAPE  C31316541   5.327   4.881   9.172 -0.5305  0.3704  0.2614
  149SAPE  H13X16542   5.429   4.918   9.149 -0.5263 -0.1197 -0.5577
  149SAPE  H13Y16543   5.269   4.974   9.152  0.3412  0.4690 -2.0719
  149SAPE  C31416544   5.293   4.762   9.082 -0.2808 -0.2228 -0.3843
  149SAPE  H14X16545   5.199   4.720   9.124 -0.8830  1.8525  0.5008
  149SAPE  H14Y16546   5.376   4.688   9.081  0.3577  0.4671 -2.1923
  149SAPE  C31516547   5.277   4.807   8.930  0.0777 -0.1210 -0.5950
  149SAPE  H15X16548   5.380   4.837   8.900  0.5913 -1.3945 -0.1620
  149SAPE  H15Y16549   5.206   4.893   8.931  0.3689  0.1216 -0.4732
  149SAPE  C31616550   5.233   4.685   8.843  0.2236 -0.2462 -0.0902
  149SAPE  H16X16551   5.136   4.648   8.883  0.9935 -1.1574  0.9946
  149SAPE  H16Y16552   5.307   4.604   8.855 -0.2364 -0.8663 -1.2886
  149SAPE  C31716553   5.214   4.719   8.696  0.2727  0.2587 -0.6673
  149SAPE  H17X16554   5.310   4.749   8.649 -0.4548  0.6524 -1.9633
  149SAPE  H17Y16555   5.151   4.810   8.683 -0.3171 -0.3018 -1.8772
  149SAPE  C31816556   5.149   4.614   8.604  0.3602  0.4616 -0.2791
  149SAPE  H18X16557   5.204   4.517   8.612  0.0607  0.1573 -1.6538
  149SAPE  H18Y16558   5.137   4.639   8.497 -1.1358  0.9394 -0.0156
  149SAPE  H18Z16559   5.049   4.600   8.650  1.4606  2.2549  3.0228
  150SAPE     N16560   5.919   4.880  10.629  0.1001  0.4008 -0.0092
  150SAPE   HN116561   6.014   4.922  10.621 -0.1405  0.8922 -0.3101
  150SAPE   HN216562   5.885   4.847  10.536  0.3280  2.8671 -1.0477
  150SAPE   HN316563   5.852   4.956  10.654 -2.1510 -1.9892  1.7769
  150SAPE   C1216564   5.912   4.767  10.734  0.4780 -0.0326  0.4656
  150SAPE  H12A16565   5.843   4.694  10.688  1.3609 -0.1485 -0.7279
  150SAPE  H12B16566   5.863   4.801  10.828  2.9700  0.5322  1.6493
  150SAPE   C1116567   6.051   4.709  10.759 -0.4636  0.1362  0.2836
  150SAPE  H11A16568   6.032   4.631  10.835  1.8074  0.4821  1.2823
  150SAPE  H11B16569   6.117   4.790  10.795 -3.6231  1.9711  2.4721
  150SAPE     P16570   6.232   4.550  10.654 -0.0770  0.4831 -0.5543
  150SAPE   O1316571   6.343   4.611  10.731  0.0670 -0.4178  0.2008
  150SAPE   O1416572   6.176   4.421  10.698 -0.3361 -0.4144 -0.3256
  150SAPE   O1216573   6.115   4.653  10.643 -0.3053 -0.0228 -0.1211
  150SAPE   O1116574   6.273   4.527  10.509  0.2363 -0.0340  0.4535
  150SAPE    C116575   6.242   4.613  10.392 -0.7906 -0.2550 -0.6907
  150SAPE    HA16576   6.257   4.720  10.419  1.4811 -0.4208 -1.0662
  150SAPE    HB16577   6.314   4.576  10.316 -0.2604 -2.2746  0.6953
  150SAPE    C216578   6.106   4.588  10.342  0.0862 -0.1927  0.3539
  150SAPE    HS16579   6.028   4.609  10.419 -0.4737  0.9812 -0.5061
  150SAPE   O2116580   6.094   4.456  10.278 -0.0379  0.1129  0.2000
  150SAPE   C2116581   5.985   4.394  10.303  0.7606  0.7735  0.3117
  150SAPE   O2216582   5.889   4.434  10.367  0.6581  0.1717  0.1798
  150SAPE   C2216583   5.991   4.249  10.248 -0.1585  0.4679  0.6423
  150SAPE   H2R16584   6.052   4.239  10.156 -0.3890 -2.0106  0.7033
  150SAPE   H2S16585   6.037   4.191  10.331  2.8705  0.0864 -1.1371
  150SAPE    C316586   6.067   4.693  10.232  0.5566 -0.3049  0.1272
  150SAPE    HX16587   6.132   4.690  10.142  0.5128 -2.5118  0.1171
  150SAPE    HY16588   6.088   4.796  10.269 -1.1180  0.6505 -1.4199
  150SAPE   O3116589   5.925   4.698  10.194 -0.2928  0.1626 -0.9837
  150SAPE   C3116590   5.833   4.748  10.285 -0.2547  1.1300  0.0127
  150SAPE   O3216591   5.860   4.823  10.375  0.4508 -0.0790 -0.1041
  150SAPE   C3216592   5.698   4.688  10.259 -0.5278  0.0752  0.1278
  150SAPE   H2X16593   5.636   4.730  10.341 -0.5553  0.6638 -0.1853
  150SAPE   H2Y16594   5.704   4.578  10.255  0.5968  0.1428 -0.3592
  150SAPE   C2316595   5.856   4.183  10.214  0.4270 -0.0364 -0.2146
  150SAPE   H3R16596   5.769   4.234  10.259 -0.3591 -1.5842  0.0729
  150SAPE   H3S16597   5.845   4.078  10.246  1.4346 -0.3698 -0.9033
  150SAPE   C2416598   5.828   4.155  10.065  0.3027  0.3910 -0.3094
  150SAPE   H4R16599   5.738   4.090  10.053  2.1956 -2.6641  0.9123
  150SAPE   H4S16600   5.909   4.092  10.024 -1.1200 -0.8455 -1.3560
  150SAPE   C2516601   5.823   4.284   9.987  0.3804 -0.3573 -1.0421
  150SAPE   H5R16602   5.726   4.334   9.999  0.2469 -0.9750  0.8785
  150SAPE   C2616603   5.915   4.346   9.912  0.0565  0.1011  0.6356
  150SAPE   H6R16604   5.891   4.441   9.864 -0.0479  0.0654  0.6175
  150SAPE   C2716605   6.061   4.310   9.876  0.1966  0.0358  0.5219
  150SAPE   H7R16606   6.082   4.296   9.768  2.3481  1.7486  0.6472
  150SAPE   H7S16607   6.080   4.210   9.922 -0.9082  1.0987  3.5459
  150SAPE   C2816608   6.152   4.410   9.935  0.0533 -0.6981  0.2811
  150SAPE   H8R16609   6.186   4.394  10.038  0.0020 -0.5432  0.3221
  150SAPE   C2916610   6.198   4.530   9.877 -0.5973 -0.3999 -0.0655
  150SAPE   H9R16611   6.260   4.601   9.933 -1.0567  0.4364 -0.5917
  150SAPE  C21016612   6.146   4.581   9.744 -0.2658  0.0549  0.0413
  150SAPE  H10R16613   6.114   4.686   9.760  0.2366  0.1444  0.4898
  150SAPE  H10S16614   6.054   4.531   9.707  0.2533 -0.2572 -0.8765
  150SAPE  C21116615   6.247   4.576   9.633 -0.4571  0.6381  0.2041
  150SAPE  H11R16616   6.349   4.580   9.674 -0.0984 -0.2424 -0.5611
  150SAPE  C21216617   6.230   4.562   9.498  0.2498 -0.9302 -0.7521
  150SAPE  H12R16618   6.320   4.564   9.435  0.1337  0.8796 -0.8961
  150SAPE  C21316619   6.097   4.543   9.421 -0.2166  0.9039  0.0160
  150SAPE  H13R16620   6.071   4.646   9.387  0.0001  1.1426  0.5678
  150SAPE  H13S16621   6.014   4.507   9.485 -0.0068 -1.8692 -1.1227
  150SAPE  C21416622   6.110   4.457   9.301 -0.4323 -0.1577  0.5191
  150SAPE  H14R16623   6.077   4.353   9.316  0.6578 -0.7056 -0.6395
  150SAPE  C21516624   6.162   4.487   9.177 -0.8417  0.8042  0.2386
  150SAPE  H15R16625   6.165   4.400   9.110 -0.6877  0.4432  0.7054
  150SAPE  C21616626   6.227   4.617   9.142 -0.3163  0.2739  0.4257
  150SAPE  H16R16627   6.317   4.608   9.076 -1.2281 -1.8426 -0.6470
  150SAPE  H16S16628   6.258   4.671   9.233 -1.3166 -0.1175  1.0129
  150SAPE  C21716629   6.139   4.705   9.059  0.3569  0.2666  0.4409
  150SAPE  H17R16630   6.053   4.724   9.127 -0.2998  0.8278 -0.5345
  150SAPE  H17S16631   6.092   4.653   8.973  0.8673  1.7414 -0.7631
  150SAPE  C21816632   6.207   4.829   8.999  0.7491 -0.0194  0.2588
  150SAPE  H18R16633   6.310   4.810   8.963  0.1269 -0.8099 -1.1620
  150SAPE  H18S16634   6.220   4.903   9.081 -0.4825 -1.3638  1.7329
  150SAPE  C21916635   6.126   4.895   8.890 -0.0644  0.0548  0.0145
  150SAPE  H19R16636   6.163   4.998   8.867 -0.8833  0.3043 -0.2175
  150SAPE  H19S16637   6.027   4.905   8.940  0.5571 -0.7913  1.4759
  150SAPE  C22016638   6.134   4.814   8.765 -0.6624  0.6094 -0.2386
  150SAPE  H20R16639   6.102   4.708   8.775  2.0219 -0.0713  3.6760
  150SAPE  H20S16640   6.244   4.812   8.748 -0.2617 -1.1768  1.9650
  150SAPE  H20T16641   6.083   4.871   8.685  0.1861  2.2992  0.3744
  150SAPE   C3316642   5.649   4.746  10.124  0.1048  0.1601  0.3119
  150SAPE   H3X16643   5.661   4.856  10.113 -0.5984  0.3840  1.5471
  150SAPE   H3Y16644   5.541   4.720  10.130  0.1056  0.3174  1.1453
  150SAPE   C3416645   5.693   4.682   9.987  0.4747  1.2813 -0.0512
  150SAPE   H4X16646   5.699   4.571   9.994 -2.3574  1.0278 -0.6707
  150SAPE   H4Y16647   5.798   4.713   9.970  0.6699  1.3035  1.0826
  150SAPE   C3516648   5.594   4.719   9.874  0.5690 -0.4065 -0.4197
  150SAPE   H5X16649   5.606   4.825   9.844 -2.4879  0.2854  0.4157
  150SAPE   H5Y16650   5.487   4.704   9.902  0.9805 -0.1824  1.3387
  150SAPE   C3616651   5.621   4.644   9.737 -0.5047  0.0157  0.1968
  150SAPE   H6X16652   5.555   4.689   9.659  0.0219 -0.3730 -0.4739
  150SAPE   H6Y16653   5.602   4.535   9.746  1.9703 -0.4898 -0.1473
  150SAPE   C3716654   5.766   4.670   9.678 -0.2213  0.0577  0.7163
  150SAPE   H7X16655   5.839   4.619   9.744  0.0980  0.1645  0.4444
  150SAPE   H7Y16656   5.773   4.781   9.673 -0.0488  0.0011 -1.7292
  150SAPE   C3816657   5.777   4.620   9.535 -0.0110 -1.1095 -0.0071
  150SAPE   H8X16658   5.786   4.510   9.530  1.3696 -0.9690 -2.2811
  150SAPE   H8Y16659   5.878   4.655   9.504  0.2503 -0.0182  1.9405
  150SAPE   C3916660   5.674   4.658   9.428 -0.3843 -0.5191  0.2467
  150SAPE   H9X16661   5.661   4.768   9.431  1.2783 -0.3016  1.9276
  150SAPE   H9Y16662   5.571   4.621   9.443 -1.3201  1.1686 -1.5968
  150SAPE  C31016663   5.727   4.625   9.284 -0.1845  0.0526 -0.1186
  150SAPE  H10X16664   5.761   4.520   9.290  2.4342  0.7710 -1.0856
  150SAPE  H10Y16665   5.827   4.668   9.261 -0.1749 -0.4728 -1.0988
  150SAPE  C31116666   5.637   4.655   9.164  0.6238 -0.2452 -0.1661
  150SAPE  H11X16667   5.608   4.762   9.154 -0.5384  0.1273  4.4782
  150SAPE  H11Y16668   5.552   4.596   9.206  0.8940 -1.6907 -1.5524
  150SAPE  C31216669   5.677   4.583   9.039  0.5752 -0.5483 -0.3238
  150SAPE  H12X16670   5.586   4.560   8.979  0.2737 -2.3996  0.7631
  150SAPE  H12Y16671   5.724   4.484   9.060  2.9976  0.1876 -1.9120
  150SAPE  C31316672   5.769   4.664   8.951  0.1727  0.6362  0.2342
  150SAPE  H13X16673   5.780   4.606   8.857 -0.5059  0.6716  0.1271
  150SAPE  H13Y16674   5.874   4.664   8.988  0.2708  0.5954 -0.0418
  150SAPE  C31416675   5.718   4.803   8.923  0.2076 -0.3521  0.4415
  150SAPE  H14X16676   5.757   4.870   9.003 -0.7725  0.1370  0.5269
  150SAPE  H14Y16677   5.607   4.797   8.925  0.1568  0.5500  1.5016
  150SAPE  C31516678   5.773   4.864   8.796 -0.7658 -0.2564 -0.1158
  150SAPE  H15X16679   5.880   4.834   8.794 -1.2261 -2.0847  0.6341
  150SAPE  H15Y16680   5.761   4.973   8.783 -0.4843 -0.1978  0.1037
  150SAPE  C31616681   5.738   4.795   8.667 -0.8520 -0.1953  0.2005
  150SAPE  H16X16682   5.628   4.778   8.666 -0.8014 -0.8368  1.9617
  150SAPE  H16Y16683   5.785   4.695   8.664 -1.3364 -0.4283  0.4036
  150SAPE  C31716684   5.773   4.881   8.546  0.2367  0.7334  0.0019
  150SAPE  H17X16685   5.882   4.900   8.548  0.6426 -1.3250  0.6265
  150SAPE  H17Y16686   5.726   4.981   8.550 -2.1836 -0.3548  0.4984
  150SAPE  C31816687   5.735   4.817   8.405 -0.5093  0.3849 -0.4918
  150SAPE  H18X16688   5.771   4.712   8.399 -0.2822  0.5329 -2.3731
  150SAPE  H18Y16689   5.773   4.880   8.322 -1.0904  1.3024 -0.0749
  150SAPE  H18Z16690   5.625   4.825   8.394 -0.3111  1.2898 -2.1206
  151SAPE     N16691   4.109   0.561  10.742 -0.1859 -0.5107 -0.1751
  151SAPE   HN116692   4.104   0.542  10.845  0.1443  1.2247  0.1965
  151SAPE   HN216693   4.166   0.499  10.681 -0.2616 -0.0506 -0.7225
  151SAPE   HN316694   4.151   0.656  10.743 -0.9471 -0.1727 -0.2006
  151SAPE   C1216695   3.967   0.570  10.687  0.6974  0.1420 -0.3042
  151SAPE  H12A16696   3.962   0.596  10.579  0.5449  1.0141 -0.0940
  151SAPE  H12B16697   3.917   0.653  10.741 -1.5613 -2.1298  1.3180
  151SAPE   C1116698   3.883   0.439  10.712  0.4194  0.0844  0.0130
  151SAPE  H11A16699   3.894   0.430  10.822  2.5348 -0.1053 -0.1787
  151SAPE  H11B16700   3.931   0.347  10.671 -0.4122  0.0581 -0.9431
  151SAPE     P16701   3.681   0.375  10.551 -0.1702 -0.0859 -0.0711
  151SAPE   O1316702   3.679   0.234  10.589 -0.1351  0.4913 -0.0393
  151SAPE   O1416703   3.556   0.434  10.503 -0.4194 -0.0112 -0.2045
  151SAPE   O1216704   3.744   0.450  10.678 -0.1396 -0.1392 -0.4512
  151SAPE   O1116705   3.801   0.398  10.445 -0.2952 -0.0455 -0.0171
  151SAPE    C116706   3.812   0.528  10.380  0.1472  0.2392  0.0688
  151SAPE    HA16707   3.791   0.606  10.456 -2.1503 -1.0053  0.8007
  151SAPE    HB16708   3.914   0.536  10.337  0.6533 -2.1181  0.6893
  151SAPE    C216709   3.724   0.561  10.255  0.2055 -0.1118  0.2681
  151SAPE    HS16710   3.630   0.585  10.310  0.1042 -0.7480  0.3805
  151SAPE   O2116711   3.702   0.440  10.182  0.4669 -0.4540 -0.3959
  151SAPE   C2116712   3.622   0.454  10.078  0.2967 -0.0551 -0.0009
  151SAPE   O2216713   3.545   0.549  10.057 -0.1590 -0.3832 -0.3219
  151SAPE   C2216714   3.632   0.332   9.987  0.6285 -0.3271 -1.0400
  151SAPE   H2R16715   3.603   0.245  10.050  1.1757  0.7257  0.7251
  151SAPE   H2S16716   3.556   0.344   9.907 -4.5078 -0.9516  3.1388
  151SAPE    C316717   3.785   0.682  10.185  0.0560 -0.4421  0.7168
  151SAPE    HX16718   3.807   0.745  10.274  0.3049 -0.6718  0.8192
  151SAPE    HY16719   3.712   0.741  10.125 -0.0629 -0.6336  0.6712
  151SAPE   O3116720   3.913   0.652  10.114  0.4057  0.4404 -0.0982
  151SAPE   C3116721   3.914   0.641   9.981 -0.0692 -0.3336 -0.1366
  151SAPE   O3216722   3.815   0.654   9.909 -0.0068 -0.0835  0.5834
  151SAPE   C3216723   4.045   0.603   9.934  0.3360 -0.7186  0.4043
  151SAPE   H2X16724   4.063   0.496   9.957 -0.5967 -0.8380  0.5979
  151SAPE   H2Y16725   4.116   0.669   9.988  0.3363  1.0683 -1.6638
  151SAPE   C2316726   3.770   0.309   9.924 -0.3266 -0.1343 -0.2658
  151SAPE   H3R16727   3.848   0.315  10.002 -2.7055  1.9394  2.1247
  151SAPE   H3S16728   3.771   0.388   9.845  2.3340  0.0614 -0.1239
  151SAPE   C2416729   3.774   0.166   9.856 -0.4376 -0.7120 -0.5934
  151SAPE   H4R16730   3.679   0.148   9.801  0.0490  1.0407 -2.1213
  151SAPE   H4S16731   3.781   0.089   9.936 -1.8396  1.0685  1.3283
  151SAPE   C2516732   3.898   0.151   9.772 -0.7481 -0.6620 -0.2663
  151SAPE   H5R16733   3.987   0.198   9.816 -1.5167 -0.0597  0.7021
  151SAPE   C2616734   3.900   0.077   9.652 -0.3444 -0.6246 -0.7067
  151SAPE   H6R16735   3.999   0.045   9.617  0.9812 -1.0086  2.9884
  151SAPE   C2716736   3.790   0.006   9.588 -0.1274  0.7173 -0.5949
  151SAPE   H7R16737   3.697   0.002   9.649  1.5993 -0.3138  2.1308
  151SAPE   H7S16738   3.805  -0.104   9.590  0.0257  0.7393  1.2050
  151SAPE   C2816739   3.763   0.059   9.449 -0.1042 -0.1141  0.8160
  151SAPE   H8R16740   3.685   0.136   9.438  0.6982  0.5934 -0.0805
  151SAPE   C2916741   3.820   0.012   9.333  1.3386 -0.1743  0.0941
  151SAPE   H9R16742   3.775   0.053   9.241 -2.1345 -0.9623  1.2934
  151SAPE  C21016743   3.922  -0.102   9.307  0.4518 -0.5174 -0.1904
  151SAPE  H10R16744   3.983  -0.112   9.400 -0.4858 -1.3690  0.3483
  151SAPE  H10S16745   3.990  -0.066   9.227  0.2863 -0.5496 -0.3432
  151SAPE  C21116746   3.854  -0.227   9.255 -0.1853 -0.1844  0.0826
  151SAPE  H11R16747   3.778  -0.270   9.321  0.0863  0.3638  0.7697
  151SAPE  C21216748   3.893  -0.296   9.146  0.0327  0.6390 -0.3873
  151SAPE  H12R16749   3.836  -0.384   9.113  0.2636  0.6818 -0.8945
  151SAPE  C21316750   4.009  -0.262   9.059  0.4679 -0.7944 -0.5871
  151SAPE  H13R16751   4.071  -0.338   9.007  2.0918  1.3552 -1.9549
  151SAPE  H13S16752   4.081  -0.203   9.119 -2.3163  1.3647  0.9101
  151SAPE  C21416753   3.954  -0.177   8.943  0.4528 -0.2174 -0.2015
  151SAPE  H14R16754   3.892  -0.096   8.984 -0.1809 -1.3821  1.2340
  151SAPE  C21516755   3.953  -0.199   8.810  0.0440  0.5200  0.1224
  151SAPE  H15R16756   3.891  -0.140   8.742 -0.2746 -0.7069 -0.6903
  151SAPE  C21616757   4.005  -0.321   8.740  0.0900 -0.4511  0.6224
  151SAPE  H16R16758   3.970  -0.417   8.784 -1.3259 -0.0171  0.5176
  151SAPE  H16S16759   4.114  -0.315   8.756  0.5823  2.1867 -2.6499
  151SAPE  C21716760   3.966  -0.331   8.593 -0.1957 -0.6440  0.0845
  151SAPE  H17R16761   3.974  -0.231   8.545 -0.5800 -0.8730 -0.4571
  151SAPE  H17S16762   3.867  -0.375   8.570  0.0159 -1.0762 -0.0174
  151SAPE  C21816763   4.055  -0.435   8.529 -0.4301  0.0471 -0.5564
  151SAPE  H18R16764   4.064  -0.520   8.600  0.1303  0.5512 -0.0056
  151SAPE  H18S16765   4.156  -0.390   8.517  1.2291 -3.2278 -0.1346
  151SAPE  C21916766   4.003  -0.484   8.401  0.3481  0.1110  0.0469
  151SAPE  H19R16767   3.957  -0.402   8.342  0.1626  0.8147  1.1512
  151SAPE  H19S16768   3.928  -0.558   8.435  0.0066  1.0587  1.4618
  151SAPE  C22016769   4.096  -0.560   8.301  0.2538  0.0691 -0.1182
  151SAPE  H20R16770   4.059  -0.567   8.197  1.2386  0.3878 -0.5019
  151SAPE  H20S16771   4.118  -0.663   8.338 -0.5023  0.3510  1.2008
  151SAPE  H20T16772   4.185  -0.494   8.292 -0.8953  2.0449  1.9260
  151SAPE   C3316773   4.074   0.643   9.786 -0.6062  0.0227  0.0256
  151SAPE   H3X16774   4.178   0.680   9.788 -1.0689  1.3908 -0.1024
  151SAPE   H3Y16775   4.005   0.716   9.740 -2.6763 -1.2168  0.9977
  151SAPE   C3416776   4.060   0.517   9.692  1.1593 -0.7604 -0.2649
  151SAPE   H4X16777   3.971   0.457   9.723  0.9716 -0.4788 -0.2584
  151SAPE   H4Y16778   4.154   0.459   9.702  1.4402 -0.3513 -0.5052
  151SAPE   C3516779   4.054   0.562   9.547 -0.5788  0.1379  0.7351
  151SAPE   H5X16780   4.137   0.631   9.519  1.2007 -2.2567 -0.2492
  151SAPE   H5Y16781   3.965   0.623   9.521 -0.3205  0.7512  1.2562
  151SAPE   C3616782   4.047   0.450   9.447  0.1101 -0.6027 -0.8877
  151SAPE   H6X16783   4.015   0.492   9.349 -2.9241 -1.8225 -0.5062
  151SAPE   H6Y16784   3.972   0.375   9.480 -0.8730  0.0603 -1.5688
  151SAPE   C3716785   4.190   0.394   9.418 -0.2723 -0.0497 -1.1164
  151SAPE   H7X16786   4.233   0.362   9.515  0.3757  0.5540 -1.1968
  151SAPE   H7Y16787   4.242   0.476   9.364  1.4513 -1.4965 -1.7695
  151SAPE   C3816788   4.205   0.278   9.326  0.6334 -0.0975  0.5549
  151SAPE   H8X16789   4.131   0.201   9.357  0.7790  0.4583  2.3539
  151SAPE   H8Y16790   4.307   0.241   9.349  0.3518 -1.4399 -0.2098
  151SAPE   C3916791   4.193   0.312   9.173  0.1126  0.5436 -0.4769
  151SAPE   H9X16792   4.280   0.368   9.133 -0.3805  1.6536 -0.0214
  151SAPE   H9Y16793   4.110   0.376   9.137 -0.0259  0.3658 -0.4766
  151SAPE  C31016794   4.178   0.184   9.087  0.6251  0.6321 -0.2263
  151SAPE  H10X16795   4.074   0.145   9.098  0.6010  1.2880  2.6552
  151SAPE  H10Y16796   4.243   0.106   9.132 -0.9335  1.0688  3.1304
  151SAPE  C31116797   4.215   0.216   8.942  0.1815  0.1878 -0.5149
  151SAPE  H11X16798   4.321   0.249   8.937  0.2591 -0.0382 -0.3596
  151SAPE  H11Y16799   4.155   0.303   8.907 -2.6521  0.4253  4.1788
  151SAPE  C31216800   4.203   0.103   8.846 -0.6607  0.2007  0.6842
  151SAPE  H12X16801   4.237   0.141   8.747 -0.8772 -1.3284  0.0005
  151SAPE  H12Y16802   4.093   0.091   8.855 -0.4359 -1.0535  2.2650
  151SAPE  C31316803   4.271  -0.030   8.891  0.5919 -0.9530  1.3882
  151SAPE  H13X16804   4.229  -0.109   8.825  2.0062  0.7966 -1.8697
  151SAPE  H13Y16805   4.239  -0.061   8.993 -4.2636 -2.4269 -0.3111
  151SAPE  C31416806   4.424  -0.026   8.880  0.0212  1.4361 -0.6043
  151SAPE  H14X16807   4.441   0.030   8.974  0.5659  0.3431 -0.0421
  151SAPE  H14Y16808   4.458   0.049   8.805  2.7523 -0.6421 -1.6205
  151SAPE  C31516809   4.492  -0.165   8.866  0.1505 -0.2775 -0.0665
  151SAPE  H15X16810   4.473  -0.210   8.766  0.5231 -1.6092  0.4434
  151SAPE  H15Y16811   4.466  -0.230   8.952  2.1890  1.3633  1.9081
  151SAPE  C31616812   4.639  -0.161   8.855 -0.1741 -0.4781 -0.2048
  151SAPE  H16X16813   4.674  -0.059   8.826 -1.7262  0.6415  1.6970
  151SAPE  H16Y16814   4.680  -0.226   8.774  0.6419 -0.3723  0.1051
  151SAPE  C31716815   4.700  -0.198   8.990  0.6431 -0.5779 -0.7770
  151SAPE  H17X16816   4.676  -0.306   8.993 -0.1570 -0.3839  1.1661
  151SAPE  H17Y16817   4.632  -0.147   9.062  0.4586  1.2569 -2.1693
  151SAPE  C31816818   4.846  -0.176   9.003  0.2784  0.0162  0.1435
  151SAPE  H18X16819   4.861  -0.070   8.971  0.6158 -1.0847 -3.9589
  151SAPE  H18Y16820   4.898  -0.241   8.929 -0.0269  0.4880 -0.5027
  151SAPE  H18Z16821   4.883  -0.196   9.106 -0.3123 -1.2095  0.1393
  152SAPE     N16822   0.404   5.050  10.830 -0.3188  1.0369 -0.5941
  152SAPE   HN116823   0.484   5.096  10.878  0.0354 -0.5692  0.4469
  152SAPE   HN216824   0.321   5.108  10.808 -0.7716  0.9074  0.6900
  152SAPE   HN316825   0.369   4.975  10.894  0.5538  1.3906  0.3250
  152SAPE   C1216826   0.459   4.974  10.712 -0.5153  0.1012  0.3919
  152SAPE  H12A16827   0.380   4.900  10.688  0.2012 -0.6515  0.3454
  152SAPE  H12B16828   0.559   4.933  10.735  0.3921  2.0343  0.1484
  152SAPE   C1116829   0.477   5.074  10.596 -1.1133 -0.2533  1.0690
  152SAPE  H11A16830   0.378   5.095  10.549 -1.1816 -1.2965  0.7266
  152SAPE  H11B16831   0.541   5.021  10.523 -0.4065  1.6970  0.1905
  152SAPE     P16832   0.484   5.326  10.644  0.5065  0.0713  0.1249
  152SAPE   O1316833   0.341   5.310  10.672 -0.4702  0.0305 -0.2739
  152SAPE   O1416834   0.564   5.404  10.739 -0.0416  0.1939 -0.6928
  152SAPE   O1216835   0.554   5.191  10.626  0.2793  0.0340 -0.0044
  152SAPE   O1116836   0.492   5.388  10.502 -0.3630  0.0636  0.5448
  152SAPE    C116837   0.604   5.364  10.421  0.3202  0.1816  0.2402
  152SAPE    HA16838   0.673   5.286  10.460 -0.3610 -1.9061 -2.4925
  152SAPE    HB16839   0.584   5.322  10.321 -0.6667 -0.2031  0.5921
  152SAPE    C216840   0.697   5.487  10.415  0.2019  0.0777  0.1949
  152SAPE    HS16841   0.681   5.529  10.517  0.9313  2.9197 -0.7716
  152SAPE   O2116842   0.656   5.578  10.309  0.1791 -0.1522  0.8935
  152SAPE   C2116843   0.673   5.534  10.182 -0.0908  0.7253  0.0603
  152SAPE   O2216844   0.703   5.420  10.147  0.4554  0.5679 -0.6984
  152SAPE   C2216845   0.650   5.640  10.082  0.0181 -0.3321  0.8056
  152SAPE   H2R16846   0.562   5.608  10.022  2.0990 -3.5043 -0.8285
  152SAPE   H2S16847   0.641   5.742  10.126  0.1636  0.2668 -0.4822
  152SAPE    C316848   0.852   5.457  10.408  0.0981  0.3634  0.1206
  152SAPE    HX16849   0.875   5.399  10.316  0.8686  1.1196 -0.1832
  152SAPE    HY16850   0.875   5.396  10.498  1.9670  1.1203  0.2025
  152SAPE   O3116851   0.921   5.577  10.411  0.3631 -0.1303 -0.3249
  152SAPE   C3116852   0.961   5.637  10.521  1.1450  0.7757  0.4420
  152SAPE   O3216853   0.922   5.607  10.631  0.5038  0.6839 -0.0002
  152SAPE   C3216854   1.065   5.748  10.495 -0.5714 -0.1801  0.5687
  152SAPE   H2X16855   1.163   5.696  10.496 -0.7481 -0.5251  0.3189
  152SAPE   H2Y16856   1.055   5.823  10.576 -0.9591 -0.5516  0.8718
  152SAPE   C2316857   0.773   5.651   9.987 -0.2374  0.2736 -0.6618
  152SAPE   H3R16858   0.793   5.559   9.927  0.7082  1.0198 -1.5280
  152SAPE   H3S16859   0.867   5.673  10.042 -0.2320  0.7291 -0.8475
  152SAPE   C2416860   0.766   5.755   9.881 -0.7716  0.1769  0.4097
  152SAPE   H4R16861   0.855   5.752   9.814  1.1947  1.4689  2.8069
  152SAPE   H4S16862   0.775   5.855   9.929 -3.6089  1.3081 -1.1802
  152SAPE   C2516863   0.642   5.736   9.797  0.0366  0.8289 -0.3492
  152SAPE   H5R16864   0.557   5.763   9.861  2.1738  1.0837  2.5906
  152SAPE   C2616865   0.636   5.698   9.668  0.0507 -0.0876  0.4838
  152SAPE   H6R16866   0.538   5.682   9.620  0.4411  1.2970 -0.8513
  152SAPE   C2716867   0.745   5.676   9.569 -0.6821 -0.3461  0.3238
  152SAPE   H7R16868   0.745   5.576   9.522  2.0947  0.7179 -2.2868
  152SAPE   H7S16869   0.843   5.669   9.621  1.6200  0.5782 -3.4399
  152SAPE   C2816870   0.757   5.798   9.472 -0.4447 -0.1622  0.1873
  152SAPE   H8R16871   0.755   5.902   9.506  1.7489  0.8885 -2.4768
  152SAPE   C2916872   0.778   5.794   9.341 -0.8213  0.1281  0.1169
  152SAPE   H9R16873   0.772   5.883   9.276 -0.6871 -0.4597 -0.7129
  152SAPE  C21016874   0.779   5.670   9.264  0.3080 -0.5426  0.1142
  152SAPE  H10R16875   0.822   5.591   9.330  1.3909  0.3155  0.4710
  152SAPE  H10S16876   0.856   5.671   9.184  0.7950  1.7964  0.5541
  152SAPE  C21116877   0.639   5.631   9.216  0.4328  0.2421 -0.6144
  152SAPE  H11R16878   0.570   5.626   9.301  2.2282  0.6759  0.9374
  152SAPE  C21216879   0.611   5.590   9.090  0.6078 -0.2358 -0.1515
  152SAPE  H12R16880   0.509   5.554   9.071  0.8973 -0.8445 -0.6070
  152SAPE  C21316881   0.708   5.593   8.973 -0.5785 -0.5156  0.2783
  152SAPE  H13R16882   0.814   5.575   9.002  0.8447 -0.7145 -4.3458
  152SAPE  H13S16883   0.707   5.696   8.933  2.7010 -0.0645  1.0442
  152SAPE  C21416884   0.662   5.495   8.863  0.8050 -0.5888  0.1667
  152SAPE  H14R16885   0.723   5.403   8.867  3.3907  0.9206 -1.4712
  152SAPE  C21516886   0.567   5.524   8.772 -0.5615 -0.6135  0.0677
  152SAPE  H15R16887   0.531   5.446   8.704 -2.9799  0.1806  0.3480
  152SAPE  C21616888   0.496   5.663   8.760  0.5568 -0.2328 -0.5119
  152SAPE  H16R16889   0.470   5.706   8.859 -1.4106  0.9102 -1.4685
  152SAPE  H16S16890   0.397   5.656   8.710 -0.2587  1.4293  0.7616
  152SAPE  C21716891   0.586   5.773   8.696  0.0261  0.9138 -0.4525
  152SAPE  H17R16892   0.613   5.738   8.594  0.3121 -0.8164  0.1761
  152SAPE  H17S16893   0.685   5.783   8.745  0.7879 -0.4948 -1.6473
  152SAPE  C21816894   0.504   5.903   8.677  0.0986 -0.2958  0.5626
  152SAPE  H18R16895   0.485   5.941   8.779 -1.5455  1.1311 -0.2230
  152SAPE  H18S16896   0.412   5.869   8.624 -0.0764 -3.1092  2.4615
  152SAPE  C21916897   0.587   5.996   8.592 -0.0350 -0.2906  0.2218
  152SAPE  H19R16898   0.607   5.944   8.496  1.0016  0.2254  0.1396
  152SAPE  H19S16899   0.680   6.026   8.645 -0.2035 -1.3175  1.1207
  152SAPE  C22016900   0.509   6.128   8.566  0.0422 -0.0794 -0.1665
  152SAPE  H20R16901   0.408   6.114   8.522  0.4804  1.6030 -1.8204
  152SAPE  H20S16902   0.556   6.196   8.492 -0.3683 -0.3926 -0.7195
  152SAPE  H20T16903   0.492   6.181   8.663 -0.3348  0.2446 -0.4078
  152SAPE   C3316904   1.037   5.819  10.357  0.1748 -0.5505 -0.1494
  152SAPE   H3X16905   0.933   5.856  10.351 -0.1728 -1.5306 -0.3373
  152SAPE   H3Y16906   1.049   5.732  10.289  1.1589 -3.1913  3.1352
  152SAPE   C3416907   1.126   5.938  10.325  0.5155 -0.5346  0.0551
  152SAPE   H4X16908   1.226   5.900  10.294  2.1762  1.8036  2.2060
  152SAPE   H4Y16909   1.137   6.001  10.416  0.5453  0.2894 -0.5148
  152SAPE   C3516910   1.068   6.021  10.202  0.0210  0.3839  0.1348
  152SAPE   H5X16911   1.128   6.114  10.197 -1.5540  1.4425  0.4447
  152SAPE   H5Y16912   0.964   6.058  10.210 -0.0566  0.7798 -2.0511
  152SAPE   C3616913   1.105   5.960  10.065 -0.3179 -0.6920  0.0566
  152SAPE   H6X16914   1.054   5.862  10.049 -0.8717 -0.3952 -0.0418
  152SAPE   H6Y16915   1.215   5.952  10.070 -0.2845  0.2805  1.5574
  152SAPE   C3716916   1.069   6.049   9.945  0.1558  0.5931  0.3682
  152SAPE   H7X16917   1.125   6.145   9.937  1.6551 -0.3503 -0.9189
  152SAPE   H7Y16918   0.958   6.056   9.946  0.1311  1.4627 -2.1073
  152SAPE   C3816919   1.096   5.976   9.811  0.4392 -0.2688  0.2549
  152SAPE   H8X16920   1.037   5.882   9.821  0.9266 -0.5149  0.8886
  152SAPE   H8Y16921   1.196   5.930   9.801  0.5373 -0.2546  1.1048
  152SAPE   C3916922   1.064   6.065   9.692  0.2268 -0.3976  0.3742
  152SAPE   H9X16923   1.122   6.160   9.688 -1.4505  0.8430  2.7961
  152SAPE   H9Y16924   0.957   6.095   9.701  0.5072  0.5319  0.7674
  152SAPE  C31016925   1.093   5.993   9.562  0.3163 -0.5837 -0.3795
  152SAPE  H10X16926   1.044   5.893   9.562  0.2992 -0.6643 -3.3759
  152SAPE  H10Y16927   1.203   5.979   9.565  0.4934  0.9091  1.3932
  152SAPE  C31116928   1.060   6.066   9.435  0.4365 -0.4605  0.5343
  152SAPE  H11X16929   1.116   6.162   9.436  0.6634 -0.5382 -1.2501
  152SAPE  H11Y16930   0.951   6.088   9.429  1.0613  2.7726 -1.8110
  152SAPE  C31216931   1.108   5.990   9.319 -0.0000  0.1949  1.0397
  152SAPE  H12X16932   1.063   5.889   9.317  1.2885 -0.4026  1.4445
  152SAPE  H12Y16933   1.216   5.964   9.325 -0.2218 -1.5649 -1.1990
  152SAPE  C31316934   1.086   6.061   9.184 -0.0186  0.3991 -0.0907
  152SAPE  H13X16935   1.168   6.134   9.168 -0.1211  1.6453  3.9287
  152SAPE  H13Y16936   0.988   6.110   9.200 -0.3227 -0.6379  1.4647
  152SAPE  C31416937   1.071   5.965   9.061  0.6936 -0.2023 -0.3527
  152SAPE  H14X16938   0.991   5.888   9.073 -0.2369  0.6818 -0.7685
  152SAPE  H14Y16939   1.171   5.915   9.056  0.8959  0.2624 -1.0441
  152SAPE  C31516940   1.058   6.041   8.934  0.6662 -0.0949 -0.0894
  152SAPE  H15X16941   1.137   6.113   8.905 -0.9093  1.7076 -0.1349
  152SAPE  H15Y16942   0.972   6.110   8.948  0.8703  0.1726 -0.1432
  152SAPE  C31616943   1.023   5.943   8.818 -0.4138 -0.2908 -0.1682
  152SAPE  H16X16944   0.919   5.913   8.840 -0.2166 -1.1851 -0.4077
  152SAPE  H16Y16945   1.093   5.859   8.840  0.7857  1.0233  1.2226
  152SAPE  C31716946   1.040   6.011   8.684  0.1492 -0.2108 -0.5385
  152SAPE  H17X16947   1.011   5.935   8.609 -3.4475  0.2483  0.2283
  152SAPE  H17Y16948   1.148   6.032   8.667  0.0020  1.9554  0.8453
  152SAPE  C31816949   0.962   6.140   8.656 -0.7926  0.0866 -0.2157
  152SAPE  H18X16950   1.009   6.205   8.732  2.6755  0.7830 -2.7270
  152SAPE  H18Y16951   0.852   6.128   8.667 -0.5191 -1.7346  1.0054
  152SAPE  H18Z16952   0.990   6.182   8.557 -0.3069 -1.9346 -0.9886
  153SAPE     N16953   4.387   6.350  10.575 -0.4417  0.0712 -0.3047
  153SAPE   HN116954   4.318   6.341  10.653 -2.0308 -1.3330 -1.7737
  153SAPE   HN216955   4.328   6.359  10.490 -0.5732 -1.3501 -0.3795
  153SAPE   HN316956   4.425   6.255  10.559 -1.1445 -0.2618 -0.0686
  153SAPE   C1216957   4.484   6.461  10.611  0.6554  0.2441 -0.1532
  153SAPE  H12A16958   4.434   6.554  10.646  1.3293  1.1574 -1.5347
  153SAPE  H12B16959   4.538   6.492  10.518  2.6576 -0.7683  0.6228
  153SAPE   C1116960   4.595   6.425  10.709  0.3848  0.1451 -0.2827
  153SAPE  H11A16961   4.553   6.417  10.812 -1.5600 -1.7672 -1.1456
  153SAPE  H11B16962   4.668   6.509  10.714  0.5286 -0.0238  0.7103
  153SAPE     P16963   4.784   6.298  10.582  0.0145  0.2515 -0.2200
  153SAPE   O1316964   4.899   6.363  10.656  0.5603 -0.0796 -0.0216
  153SAPE   O1416965   4.807   6.156  10.552  0.4192 -0.2543  0.0166
  153SAPE   O1216966   4.659   6.304  10.676  0.5278 -0.6420  0.3932
  153SAPE   O1116967   4.746   6.385  10.457 -0.4374 -0.1330 -0.6736
  153SAPE    C116968   4.838   6.457  10.378 -0.2519 -0.5152 -0.8429
  153SAPE    HA16969   4.808   6.564  10.376  0.0275 -0.3729  1.2457
  153SAPE    HB16970   4.941   6.447  10.416  0.2038  0.5662 -1.7375
  153SAPE    C216971   4.833   6.399  10.235 -0.0401 -0.3700  0.2374
  153SAPE    HS16972   4.902   6.462  10.175 -2.6207  1.5821 -0.8726
  153SAPE   O2116973   4.695   6.427  10.188  0.6872 -0.1723  0.0383
  153SAPE   C2116974   4.678   6.552  10.141  0.1112  0.8166 -0.0556
  153SAPE   O2216975   4.752   6.648  10.157 -0.2761  0.2648  0.2536
  153SAPE   C2216976   4.540   6.559  10.077 -0.6658 -0.5839 -0.6915
  153SAPE   H2R16977   4.515   6.461  10.031  0.6695 -1.5441  0.5173
  153SAPE   H2S16978   4.475   6.594  10.161 -0.6371  1.2799 -1.4049
  153SAPE    C316979   4.877   6.249  10.223  0.1818 -0.6012 -0.3657
  153SAPE    HX16980   4.788   6.187  10.248 -0.7805  0.7364 -0.3155
  153SAPE    HY16981   4.957   6.216  10.292 -0.9520  1.7256  2.2904
  153SAPE   O3116982   4.920   6.236  10.088 -0.2423  0.0101  0.5604
  153SAPE   C3116983   4.920   6.112  10.041 -0.4365 -0.7317 -0.8738
  153SAPE   O3216984   4.867   6.012  10.090  0.3960 -0.5240  0.0937
  153SAPE   C3216985   5.005   6.109   9.915 -0.1566 -0.2163 -0.3550
  153SAPE   H2X16986   5.111   6.141   9.929 -0.4784  0.2397  1.1978
  153SAPE   H2Y16987   4.961   6.187   9.850  1.3002 -0.2756 -1.4725
  153SAPE   C2316988   4.539   6.666   9.966 -0.2672  0.2429  0.0113
  153SAPE   H3R16989   4.596   6.757   9.994 -1.3441  1.2023 -0.8119
  153SAPE   H3S16990   4.436   6.707   9.965 -0.5113 -0.3069  0.8975
  153SAPE   C2416991   4.580   6.617   9.823  0.1055 -0.5265  0.0992
  153SAPE   H4R16992   4.589   6.711   9.765 -0.8359  0.1366  0.9876
  153SAPE   H4S16993   4.499   6.551   9.784 -2.2382  2.9367 -1.4268
  153SAPE   C2516994   4.720   6.558   9.820  0.1291  0.2103  0.3632
  153SAPE   H5R16995   4.800   6.626   9.855  1.3937  0.0807 -2.0433
  153SAPE   C2616996   4.748   6.435   9.767 -0.0207 -0.1169  0.1098
  153SAPE   H6R16997   4.850   6.398   9.789 -0.4081 -0.2712  1.7665
  153SAPE   C2716998   4.666   6.328   9.702 -0.1947 -0.0436  0.0971
  153SAPE   H7R16999   4.728   6.287   9.619 -0.4021  1.6296 -0.9351
  153SAPE   H7S17000   4.572   6.368   9.657  0.6853 -0.3612 -2.1918
  153SAPE   C2817001   4.630   6.226   9.804  0.6462  0.0280  0.2986
  153SAPE   H8R17002   4.592   6.273   9.896 -0.6624  0.9330 -0.6737
  153SAPE   C2917003   4.638   6.092   9.792  0.5997 -0.0202 -0.5317
  153SAPE   H9R17004   4.630   6.033   9.884 -1.8207 -1.3223 -1.4712
  153SAPE  C21017005   4.688   6.011   9.666 -0.1045 -0.0464 -0.5122
  153SAPE  H10R17006   4.697   5.905   9.697 -2.9150 -0.7125 -1.6386
  153SAPE  H10S17007   4.786   6.054   9.636 -0.2590 -0.2086 -1.2623
  153SAPE  C21117008   4.598   6.013   9.542 -0.1587 -0.1211 -0.6410
  153SAPE  H11R17009   4.609   6.097   9.471 -0.0981  0.4970  0.0810
  153SAPE  C21217010   4.523   5.908   9.503  0.8493 -0.1639  0.1930
  153SAPE  H12R17011   4.456   5.932   9.419  1.3894  4.4101  0.8555
  153SAPE  C21317012   4.504   5.773   9.570 -0.1597  0.0966 -0.3245
  153SAPE  H13R17013   4.537   5.768   9.676 -1.3629 -2.7633  0.0066
  153SAPE  H13S17014   4.574   5.699   9.526  0.0117  0.2246 -0.2688
  153SAPE  C21417015   4.361   5.723   9.565 -0.2020  0.4790 -0.0822
  153SAPE  H14R17016   4.295   5.763   9.644  0.4013  0.9509  0.1997
  153SAPE  C21517017   4.311   5.642   9.472 -0.1749  0.1692 -0.1914
  153SAPE  H15R17018   4.202   5.630   9.462  0.2069 -3.1809 -1.8497
  153SAPE  C21617019   4.382   5.588   9.352  0.4095 -0.3832  0.2041
  153SAPE  H16R17020   4.376   5.477   9.348 -1.0800 -0.2781 -1.8083
  153SAPE  H16S17021   4.493   5.598   9.351  0.5648 -0.8578 -3.4517
  153SAPE  C21717022   4.331   5.653   9.223 -0.2265 -0.0055  0.1061
  153SAPE  H17R17023   4.407   5.630   9.145 -0.9134  1.0018 -0.8992
  153SAPE  H17S17024   4.340   5.763   9.237  2.2735 -0.0381 -0.7103
  153SAPE  C21817025   4.200   5.607   9.168 -0.9115  0.1947  1.2557
  153SAPE  H18R17026   4.124   5.654   9.233 -0.6494 -0.3179  1.9552
  153SAPE  H18S17027   4.204   5.496   9.182 -0.8010  0.2062  1.3207
  153SAPE  C21917028   4.191   5.640   9.020 -0.3926  0.2936  0.1737
  153SAPE  H19R17029   4.246   5.560   8.965 -0.6629 -1.3850  2.1887
  153SAPE  H19S17030   4.237   5.740   9.004 -0.4418  0.6981  2.2922
  153SAPE  C22017031   4.052   5.648   8.975  0.3629  0.6147  0.1274
  153SAPE  H20R17032   4.046   5.678   8.868 -2.0339  1.2412  0.3868
  153SAPE  H20S17033   3.995   5.721   9.037  0.1901  0.5854  0.0057
  153SAPE  H20T17034   4.000   5.549   8.974 -0.2785  0.8651 -3.2252
  153SAPE   C3317035   4.999   5.976   9.842  0.1060  0.3455  0.6079
  153SAPE   H3X17036   4.901   5.943   9.801  0.2569 -0.1814  0.6640
  153SAPE   H3Y17037   5.029   5.889   9.904 -0.2287  0.5722  1.0963
  153SAPE   C3417038   5.077   5.976   9.708 -0.7380 -0.2454  0.1481
  153SAPE   H4X17039   5.184   6.003   9.715 -0.6558 -0.0441 -1.5707
  153SAPE   H4Y17040   5.034   6.057   9.646  1.4484  1.6929  1.0387
  153SAPE   C3517041   5.060   5.845   9.623  0.0133  0.2560 -0.7247
  153SAPE   H5X17042   4.954   5.841   9.590 -0.3719 -3.6157  0.5066
  153SAPE   H5Y17043   5.069   5.756   9.689 -0.6714  0.6588 -0.0775
  153SAPE   C3617044   5.155   5.842   9.510  0.2345  0.1729  0.3061
  153SAPE   H6X17045   5.160   5.737   9.476  0.4163  0.6357 -1.1572
  153SAPE   H6Y17046   5.256   5.876   9.542  0.0638  0.0847  0.9457
  153SAPE   C3717047   5.113   5.928   9.383 -0.3157 -0.6172  1.0345
  153SAPE   H7X17048   5.083   6.028   9.422 -1.1274  0.2212 -1.5164
  153SAPE   H7Y17049   5.018   5.885   9.345 -0.6814  0.6418  0.4551
  153SAPE   C3817050   5.223   5.944   9.276  0.8392 -0.0245  1.3250
  153SAPE   H8X17051   5.285   6.024   9.323  1.4380  0.2702  0.0673
  153SAPE   H8Y17052   5.161   5.984   9.193  1.0534 -1.1952  0.5841
  153SAPE   C3917053   5.286   5.809   9.236  0.1285  0.2855 -0.4861
  153SAPE   H9X17054   5.210   5.734   9.208  0.4848  0.7559 -2.8737
  153SAPE   H9Y17055   5.338   5.764   9.324  1.6586  2.3517 -0.2461
  153SAPE  C31017056   5.389   5.820   9.129  0.3150  0.1263 -0.4221
  153SAPE  H10X17057   5.463   5.897   9.160  2.4980 -1.0382 -2.4066
  153SAPE  H10Y17058   5.331   5.850   9.039  1.1820  0.7575 -0.7884
  153SAPE  C31117059   5.475   5.697   9.108  0.2600 -0.6055  0.3322
  153SAPE  H11X17060   5.400   5.614   9.105  0.9579 -1.2313 -0.0917
  153SAPE  H11Y17061   5.535   5.688   9.201  0.6389  0.0268  0.1507
  153SAPE  C31217062   5.563   5.704   8.983  0.4364 -0.5909  0.2299
  153SAPE  H12X17063   5.631   5.617   8.996 -0.1180 -0.8970  1.1641
  153SAPE  H12Y17064   5.625   5.797   8.988  0.5501 -0.2829 -3.7542
  153SAPE  C31317065   5.487   5.697   8.847 -0.4076 -0.2515  0.1221
  153SAPE  H13X17066   5.386   5.743   8.861 -0.6646 -0.4822 -0.9278
  153SAPE  H13Y17067   5.466   5.591   8.825  2.5958 -0.6509 -1.2197
  153SAPE  C31417068   5.566   5.734   8.724  0.0130  0.1341  1.1417
  153SAPE  H14X17069   5.660   5.676   8.717  0.6892  1.2884  0.2397
  153SAPE  H14Y17070   5.589   5.843   8.731  0.3481  0.2913 -1.4285
  153SAPE  C31517071   5.495   5.710   8.587 -0.3902 -0.0893  0.3330
  153SAPE  H15X17072   5.490   5.601   8.566  1.5634  0.2033 -2.0820
  153SAPE  H15Y17073   5.563   5.753   8.511 -3.0259  2.9252 -0.5437
  153SAPE  C31617074   5.364   5.774   8.575 -0.2469  0.5922  0.1645
  153SAPE  H16X17075   5.300   5.750   8.663  1.7108 -0.2444  1.4035
  153SAPE  H16Y17076   5.320   5.728   8.485  0.2781 -0.2725  0.3410
  153SAPE  C31717077   5.374   5.923   8.560 -0.2508  0.6848  0.3171
  153SAPE  H17X17078   5.401   5.963   8.660 -0.8432 -1.1141  1.2566
  153SAPE  H17Y17079   5.270   5.954   8.534 -0.1890 -0.3798 -1.3416
  153SAPE  C31817080   5.463   5.986   8.457 -0.4824  0.4542  0.0211
  153SAPE  H18X17081   5.475   6.095   8.471  0.7039  0.1157  1.8528
  153SAPE  H18Y17082   5.425   5.970   8.353 -0.9775 -2.3604  0.5453
  153SAPE  H18Z17083   5.567   5.947   8.456 -0.4190  0.4644 -2.8047
  154SAPE     N17084   6.727   6.021  10.972  0.0209  0.2497 -0.4373
  154SAPE   HN117085   6.672   6.081  10.907 -0.6303  1.4908  1.1746
  154SAPE   HN217086   6.719   5.922  10.941  1.0546  0.1261 -0.3542
  154SAPE   HN317087   6.672   6.024  11.061 -1.7444  0.6766 -1.4919
  154SAPE   C1217088   6.867   6.061  11.001  0.7626 -0.2067 -0.0972
  154SAPE  H12A17089   6.918   5.971  11.042 -1.1538 -1.2093  0.2340
  154SAPE  H12B17090   6.870   6.132  11.086 -0.1408 -0.2827  0.0083
  154SAPE   C1117091   6.931   6.117  10.873 -0.6846  0.7060  0.0945
  154SAPE  H11A17092   6.919   6.058  10.780  0.3755  0.8793 -0.1661
  154SAPE  H11B17093   7.036   6.091  10.898 -0.3458  0.8315 -1.1250
  154SAPE     P17094   6.787   6.296  10.767 -0.0188 -0.2439  0.3727
  154SAPE   O1317095   6.676   6.205  10.794 -0.4251  0.2451  0.1692
  154SAPE   O1417096   6.764   6.439  10.780  0.1406 -0.0789  0.0116
  154SAPE   O1217097   6.903   6.261  10.869 -0.3034  0.6461  0.0648
  154SAPE   O1117098   6.857   6.261  10.628  0.5440  0.1612 -0.3382
  154SAPE    C117099   6.980   6.303  10.586 -0.3728 -0.0435  0.3528
  154SAPE    HA17100   6.980   6.414  10.600 -1.9585 -0.0446  0.5312
  154SAPE    HB17101   7.055   6.254  10.652 -1.0827 -2.2975 -0.4327
  154SAPE    C217102   7.002   6.254  10.443  0.1891 -0.2810  0.6570
  154SAPE    HS17103   7.110   6.266  10.422  0.1779 -0.4187  0.5214
  154SAPE   O2117104   6.915   6.326  10.350 -0.2374 -0.3285  0.4564
  154SAPE   C2117105   6.937   6.455  10.330 -0.4521 -1.2755  0.2962
  154SAPE   O2217106   7.021   6.523  10.386  0.3554  0.1375  0.2248
  154SAPE   C2217107   6.842   6.512  10.223  0.8027 -1.0556  0.1856
  154SAPE   H2R17108   6.740   6.515  10.269 -0.0997 -0.0785 -1.7446
  154SAPE   H2S17109   6.866   6.616  10.195 -1.3508 -0.8019 -0.9535
  154SAPE    C317110   6.976   6.100  10.435 -0.5090  0.1232 -0.1468
  154SAPE    HX17111   6.865   6.090  10.442 -0.5039 -1.3862 -1.5634
  154SAPE    HY17112   7.013   6.049  10.526 -0.3576 -0.2880 -0.4402
  154SAPE   O3117113   7.026   6.045  10.308  0.2271  0.1274 -0.7226
  154SAPE   C3117114   6.930   6.032  10.218  0.1221  0.0939 -0.8219
  154SAPE   O3217115   6.810   6.055  10.224 -0.0749 -0.4156  0.1045
  154SAPE   C3217116   6.979   5.945  10.096  0.2695 -0.1611 -1.5014
  154SAPE   H2X17117   6.910   5.858  10.088  0.6741 -0.4402 -2.0149
  154SAPE   H2Y17118   7.079   5.908  10.130 -0.8855  0.4322  3.3502
  154SAPE   C2317119   6.845   6.421  10.096 -1.2350  0.0537  0.1530
  154SAPE   H3R17120   6.807   6.320  10.122  0.1296 -0.3106  0.8762
  154SAPE   H3S17121   6.955   6.415  10.077 -1.0907 -1.5143  1.2680
  154SAPE   C2417122   6.768   6.481   9.980 -0.4207  0.2025  0.1755
  154SAPE   H4R17123   6.665   6.499  10.017 -1.3659  0.9731 -2.5771
  154SAPE   H4S17124   6.757   6.400   9.904 -1.5628 -0.9861  1.5565
  154SAPE   C2517125   6.828   6.612   9.927  0.3205 -0.0086  0.1582
  154SAPE   H5R17126   6.820   6.694  10.000 -0.3062  1.8435 -1.8940
  154SAPE   C2617127   6.868   6.630   9.795  0.5950  0.4505  0.1832
  154SAPE   H6R17128   6.923   6.721   9.765 -0.4066  0.7704 -0.7186
  154SAPE   C2717129   6.872   6.528   9.690  0.4668  0.3094  0.0056
  154SAPE   H7R17130   6.836   6.433   9.735  0.1674  0.0441 -0.7826
  154SAPE   H7S17131   6.982   6.520   9.674  0.5189  1.5578 -0.3400
  154SAPE   C2817132   6.803   6.543   9.558  0.1208 -0.8900 -1.0149
  154SAPE   H8R17133   6.722   6.618   9.555  0.7629 -0.2196 -2.2274
  154SAPE   C2917134   6.814   6.457   9.455  0.5712 -0.3925 -0.0813
  154SAPE   H9R17135   6.756   6.471   9.363  0.0798  2.3500  0.5666
  154SAPE  C21017136   6.906   6.342   9.444 -0.7263  0.3270 -0.8055
  154SAPE  H10R17137   6.841   6.255   9.420 -2.7335  1.2872  0.7677
  154SAPE  H10S17138   6.953   6.317   9.542  0.4530 -0.2181 -1.4937
  154SAPE  C21117139   7.012   6.350   9.344 -0.1357 -0.3871 -0.0628
  154SAPE  H11R17140   7.112   6.345   9.390 -0.3985 -0.5385  0.5006
  154SAPE  C21217141   7.002   6.332   9.210 -0.7075 -0.3405  0.3289
  154SAPE  H12R17142   7.093   6.357   9.153 -2.1329  0.1976 -1.8272
  154SAPE  C21317143   6.880   6.313   9.130 -0.2890 -0.0861 -0.3337
  154SAPE  H13R17144   6.846   6.413   9.095 -0.6776  0.4059  1.3489
  154SAPE  H13S17145   6.801   6.268   9.193  0.0375  1.0551  0.9268
  154SAPE  C21417146   6.917   6.226   9.014  0.5426 -0.1114  0.0340
  154SAPE  H14R17147   6.900   6.120   9.039 -0.4529 -0.3978 -1.7108
  154SAPE  C21517148   6.963   6.267   8.896 -0.5206  0.0169  0.5137
  154SAPE  H15R17149   6.977   6.186   8.823 -2.2243  0.0573  0.0772
  154SAPE  C21617150   6.971   6.411   8.840  0.3236 -0.1177 -0.0001
  154SAPE  H16R17151   7.070   6.458   8.859  0.2322  0.2805 -0.4672
  154SAPE  H16S17152   6.892   6.474   8.886 -0.6203 -2.4438  1.7664
  154SAPE  C21717153   6.942   6.410   8.689  0.6554 -0.3785 -0.5137
  154SAPE  H17R17154   6.971   6.319   8.632 -1.2358  0.0727 -2.3276
  154SAPE  H17S17155   6.984   6.496   8.633  1.0705  1.6825  2.7527
  154SAPE  C21817156   6.791   6.420   8.674  0.1383  0.8137 -0.1864
  154SAPE  H18R17157   6.747   6.517   8.704 -3.6076  0.0069 -2.3489
  154SAPE  H18S17158   6.733   6.352   8.741  2.4511  0.0367  1.1345
  154SAPE  C21917159   6.740   6.416   8.528 -0.0850 -0.4161 -0.1515
  154SAPE  H19R17160   6.745   6.311   8.493 -2.7415 -1.0386  1.0708
  154SAPE  H19S17161   6.794   6.487   8.461  1.1374 -1.1833 -0.0012
  154SAPE  C22017162   6.595   6.453   8.520 -0.0033  0.0634  0.0562
  154SAPE  H20R17163   6.565   6.453   8.413  0.5237 -0.1860 -0.0984
  154SAPE  H20S17164   6.575   6.554   8.562 -1.3121 -0.3826  0.5309
  154SAPE  H20T17165   6.543   6.375   8.580  1.6978 -1.5606 -0.4922
  154SAPE   C3317166   6.982   6.008   9.958  0.1539 -0.0996 -0.7620
  154SAPE   H3X17167   7.062   6.084   9.950  0.2162  0.3808  2.6361
  154SAPE   H3Y17168   6.884   6.058   9.945  0.0298  0.7421  2.4428
  154SAPE   C3417169   6.996   5.911   9.848  0.2740 -0.3930  0.2770
  154SAPE   H4X17170   6.920   5.832   9.864  0.8428 -1.1560 -0.6601
  154SAPE   H4Y17171   7.098   5.868   9.860  0.4376  0.0394  0.4751
  154SAPE   C3517172   6.985   5.987   9.720 -0.4074  0.6831  0.6771
  154SAPE   H5X17173   7.057   6.071   9.724  0.7720 -0.3160  0.7236
  154SAPE   H5Y17174   6.882   6.018   9.692 -0.1374 -0.8797 -2.4546
  154SAPE   C3617175   7.031   5.907   9.594  0.5306  0.3590 -0.2174
  154SAPE   H6X17176   6.950   5.831   9.589  1.2453 -0.3953 -0.6978
  154SAPE   H6Y17177   7.123   5.846   9.607 -0.9187 -2.3140 -1.6198
  154SAPE   C3717178   7.033   5.983   9.456  0.1659  0.7621  0.0693
  154SAPE   H7X17179   7.103   6.069   9.455 -0.1802  1.0576 -1.6103
  154SAPE   H7Y17180   6.934   6.024   9.427  0.8809  2.5591  0.0515
  154SAPE   C3817181   7.073   5.887   9.339 -0.0805 -1.4710  0.0124
  154SAPE   H8X17182   7.165   5.836   9.372  1.7535  2.4633  1.6520
  154SAPE   H8Y17183   7.103   5.939   9.245  0.6403  0.4117  1.2290
  154SAPE   C3917184   6.965   5.782   9.311 -0.1743  0.5888 -0.0334
  154SAPE   H9X17185   6.886   5.776   9.388 -0.6258 -2.8319 -0.6130
  154SAPE   H9Y17186   7.003   5.679   9.295 -0.5988  0.3324  0.5897
  154SAPE  C31017187   6.887   5.807   9.180 -0.1138 -0.4853 -0.1162
  154SAPE  H10X17188   6.831   5.903   9.194  0.6218  0.1253 -1.2481
  154SAPE  H10Y17189   6.815   5.723   9.173  1.0201 -1.4118 -0.9338
  154SAPE  C31117190   6.967   5.800   9.048  0.1244  0.0669  0.3897
  154SAPE  H11X17191   7.013   5.701   9.033 -1.3743 -0.5006 -0.7677
  154SAPE  H11Y17192   7.039   5.884   9.039 -2.8427  2.7029 -0.9518
  154SAPE  C31217193   6.871   5.820   8.931 -0.5277  0.1496  1.3694
  154SAPE  H12X17194   6.815   5.916   8.937 -0.7159  0.3505 -1.7437
  154SAPE  H12Y17195   6.807   5.729   8.934  3.2218 -2.8802 -0.3613
  154SAPE  C31317196   6.943   5.838   8.801  0.0670  0.1807  0.5162
  154SAPE  H13X17197   6.987   5.745   8.759 -0.7781 -0.3351  0.7566
  154SAPE  H13Y17198   7.030   5.905   8.818  1.4039 -1.6403  1.1957
  154SAPE  C31417199   6.835   5.901   8.706 -0.9426 -0.0394  0.5707
  154SAPE  H14X17200   6.790   5.987   8.760  0.9846 -0.0615  2.3237
  154SAPE  H14Y17201   6.756   5.828   8.680 -0.9455  0.0491  0.3210
  154SAPE  C31517202   6.882   5.958   8.569  0.5970 -0.2214 -0.7286
  154SAPE  H15X17203   6.948   6.044   8.593  1.2999 -0.6658 -1.0450
  154SAPE  H15Y17204   6.791   6.000   8.522 -0.0532 -1.3397 -0.4857
  154SAPE  C31617205   6.951   5.855   8.471  0.1105 -0.2009  0.4102
  154SAPE  H16X17206   6.981   5.758   8.516 -0.4324 -0.5285  0.0800
  154SAPE  H16Y17207   7.042   5.907   8.435  0.6430 -2.3084 -1.5098
  154SAPE  C31717208   6.870   5.830   8.347  0.9907 -0.3314  0.4490
  154SAPE  H17X17209   6.820   5.922   8.309  1.3959  0.3707  1.5540
  154SAPE  H17Y17210   6.781   5.774   8.381  0.9766  0.0661  1.0913
  154SAPE  C31817211   6.943   5.765   8.237 -0.1520  0.1808 -0.2719
  154SAPE  H18X17212   7.021   5.828   8.189  0.0330 -2.1758 -3.3407
  154SAPE  H18Y17213   6.874   5.746   8.152 -1.6675  2.0745  0.4481
  154SAPE  H18Z17214   6.984   5.665   8.263  0.1725  0.8718  2.1865
  155SAPE     N17215   0.088   2.428  10.862  0.3191  0.0553  0.3398
  155SAPE   HN117216   0.086   2.411  10.760  1.8199 -0.2908  0.3460
  155SAPE   HN217217   0.002   2.481  10.889 -0.7075  1.0034 -3.9652
  155SAPE   HN317218   0.162   2.497  10.884 -0.3328  0.8195  0.1637
  155SAPE   C1217219   0.117   2.299  10.938  0.0409  0.1777 -0.6362
  155SAPE  H12A17220   0.127   2.328  11.044  0.4039 -0.3937 -0.5114
  155SAPE  H12B17221   0.208   2.251  10.895 -2.0704 -3.1168 -1.7875
  155SAPE   C1117222   0.002   2.194  10.923 -0.0144  0.4879  0.2122
  155SAPE  H11A17223  -0.096   2.223  10.967  0.5380 -0.3245  2.0405
  155SAPE  H11B17224   0.036   2.097  10.966  1.2155  0.1052 -1.5012
  155SAPE     P17225  -0.128   2.079  10.733  0.1750 -0.0813  0.3433
  155SAPE   O1317226  -0.083   1.939  10.754 -0.1773 -0.2704  0.1346
  155SAPE   O1417227  -0.262   2.118  10.777 -0.0394 -0.3436 -0.0495
  155SAPE   O1217228  -0.013   2.181  10.775  0.2501  0.1117  0.3572
  155SAPE   O1117229  -0.131   2.105  10.575 -0.0990  0.2238 -0.3859
  155SAPE    C117230  -0.113   2.238  10.520 -0.3403  0.6691 -0.1593
  155SAPE    HA17231  -0.197   2.258  10.450 -1.3272  1.0614  1.0919
  155SAPE    HB17232  -0.106   2.314  10.601 -0.3638 -0.1203  0.5962
  155SAPE    C217233   0.022   2.254  10.441 -0.9947 -0.3574 -0.4720
  155SAPE    HS17234   0.021   2.360  10.406  3.2117 -0.4062 -1.2019
  155SAPE   O2117235   0.013   2.168  10.330 -0.3842  0.2308 -1.0319
  155SAPE   C2117236  -0.052   2.218  10.223 -0.0089  0.2448 -0.7110
  155SAPE   O2217237  -0.102   2.329  10.215 -0.0792  0.6809  0.3556
  155SAPE   C2217238  -0.024   2.128  10.109 -0.2843  0.9172 -0.4098
  155SAPE   H2R17239   0.084   2.105  10.104 -0.3247  0.4833  0.4978
  155SAPE   H2S17240  -0.066   2.033  10.149  0.5513  2.0445  3.6091
  155SAPE    C317241   0.163   2.235  10.519  0.0883 -0.5594 -0.0956
  155SAPE    HX17242   0.179   2.131  10.553  0.3274 -1.4265 -2.6508
  155SAPE    HY17243   0.151   2.292  10.614  5.4825  1.8116 -0.4720
  155SAPE   O3117244   0.272   2.303  10.447  0.1841  0.2281  0.2666
  155SAPE   C3117245   0.349   2.234  10.373  0.3387 -0.7279 -0.6824
  155SAPE   O3217246   0.346   2.111  10.357  0.1877  0.0545  0.1739
  155SAPE   C3217247   0.448   2.329  10.301  0.3176  0.2449 -0.8053
  155SAPE   H2X17248   0.472   2.401  10.382 -1.7928  0.1757 -0.0537
  155SAPE   H2Y17249   0.405   2.371  10.207  1.6906  2.2896 -0.5735
  155SAPE   C2317250  -0.084   2.167   9.966  0.3592  0.3665 -0.6444
  155SAPE   H3R17251  -0.029   2.254   9.925 -0.9761  1.2448 -0.6281
  155SAPE   H3S17252  -0.191   2.197   9.974 -0.3677 -1.4106 -2.6972
  155SAPE   C2417253  -0.084   2.052   9.873  0.0533  0.0238  0.0610
  155SAPE   H4R17254  -0.167   2.071   9.801 -0.4288 -0.1653  0.5659
  155SAPE   H4S17255  -0.107   1.962   9.934  0.0872 -0.8884 -1.2162
  155SAPE   C2517256   0.047   2.035   9.805  0.0476 -0.2221  0.0521
  155SAPE   H5R17257   0.074   2.123   9.744 -0.3294  1.0919  1.7022
  155SAPE   C2617258   0.130   1.934   9.811 -0.1597 -0.4051 -0.4981
  155SAPE   H6R17259   0.222   1.924   9.751 -0.4242 -1.3695 -0.7541
  155SAPE   C2717260   0.114   1.806   9.888 -0.4522  0.2090  0.1918
  155SAPE   H7R17261   0.122   1.720   9.818 -0.5926 -0.3886  0.8957
  155SAPE   H7S17262   0.022   1.798   9.950  0.4342  0.6148  1.6061
  155SAPE   C2817263   0.224   1.789   9.979 -1.0124 -0.0153 -0.5351
  155SAPE   H8R17264   0.312   1.855   9.974 -0.6276 -0.5242 -0.6762
  155SAPE   C2917265   0.233   1.687  10.069  0.2981 -0.4823  0.1105
  155SAPE   H9R17266   0.320   1.676  10.136  2.0331 -1.0644 -2.1078
  155SAPE  C21017267   0.128   1.584  10.091  0.0516  0.3833 -0.8425
  155SAPE  H10R17268   0.077   1.546  10.001 -0.1465 -1.4318  0.0029
  155SAPE  H10S17269   0.054   1.619  10.167 -0.4978 -1.1462 -0.6519
  155SAPE  C21117270   0.196   1.453  10.140  0.4236  0.3689  0.2716
  155SAPE  H11R17271   0.282   1.470  10.206  0.1528 -1.4975  1.1767
  155SAPE  C21217272   0.155   1.332  10.097  0.0435  0.8125  0.5797
  155SAPE  H12R17273   0.204   1.240  10.133 -1.5353  0.1955  1.2363
  155SAPE  C21317274   0.041   1.294  10.003  0.0177  0.1204  0.6315
  155SAPE  H13R17275  -0.015   1.382   9.964  2.1479  1.7894  1.1633
  155SAPE  H13S17276  -0.036   1.236  10.059  1.2085 -1.4476  0.7270
  155SAPE  C21417277   0.092   1.217   9.882  0.3160  0.0159 -1.1565
  155SAPE  H14R17278   0.100   1.108   9.895  1.4743  0.3105  1.0669
  155SAPE  C21517279   0.137   1.266   9.757  0.2905 -0.9033 -0.8459
  155SAPE  H15R17280   0.165   1.189   9.685 -0.5907 -1.1798 -0.9046
  155SAPE  C21617281   0.139   1.410   9.707 -0.2514  0.5981 -0.6490
  155SAPE  H16R17282   0.232   1.459   9.743 -0.0622  1.4149 -2.1399
  155SAPE  H16S17283   0.056   1.472   9.747 -1.4373 -2.1783  1.5626
  155SAPE  C21717284   0.146   1.405   9.554  0.2851 -1.1092 -0.1350
  155SAPE  H17R17285   0.054   1.352   9.519 -0.7553 -1.3150  2.6464
  155SAPE  H17S17286   0.237   1.351   9.521  0.0044 -0.6487 -1.7455
  155SAPE  C21817287   0.148   1.544   9.479 -0.2610  0.5688  0.3049
  155SAPE  H18R17288   0.048   1.586   9.501  0.5874  3.3545 -0.7392
  155SAPE  H18S17289   0.150   1.528   9.369  2.1088  0.2144  0.3396
  155SAPE  C21917290   0.258   1.644   9.520 -0.3352 -0.3015 -0.9530
  155SAPE  H19R17291   0.260   1.649   9.631 -1.6435 -3.0329 -0.7416
  155SAPE  H19S17292   0.231   1.742   9.473 -1.7641 -0.8500 -1.3473
  155SAPE  C22017293   0.400   1.607   9.473 -0.0537  0.4521 -0.4978
  155SAPE  H20R17294   0.386   1.563   9.372 -1.3751 -0.0894 -0.1035
  155SAPE  H20S17295   0.431   1.525   9.542 -0.9114  1.6425  1.3912
  155SAPE  H20T17296   0.464   1.697   9.478  0.6056  0.0464 -1.3082
  155SAPE   C3317297   0.583   2.257  10.272 -0.0713  0.1384  0.2356
  155SAPE   H3X17298   0.620   2.196  10.358  2.4196 -0.7443 -1.3490
  155SAPE   H3Y17299   0.662   2.335  10.266  2.3783 -2.2243 -0.5896
  155SAPE   C3417300   0.592   2.169  10.148  0.1715 -0.5652 -0.4651
  155SAPE   H4X17301   0.550   2.068  10.162 -0.5333 -0.2266 -0.0773
  155SAPE   H4Y17302   0.700   2.155  10.126  0.5023 -1.1282  1.3665
  155SAPE   C3517303   0.528   2.233  10.020 -0.0222  0.4650 -0.0893
  155SAPE   H5X17304   0.569   2.334  10.001  0.4787  0.3629  0.4464
  155SAPE   H5Y17305   0.421   2.256  10.043 -0.6673 -2.7039  0.6438
  155SAPE   C3617306   0.547   2.138   9.901 -0.5519 -0.0737  1.2092
  155SAPE   H6X17307   0.495   2.041   9.917  2.7618 -2.2090 -0.0992
  155SAPE   H6Y17308   0.655   2.121   9.881 -0.8201  1.5367 -2.4401
  155SAPE   C3717309   0.500   2.189   9.767 -0.4885  0.0853  0.1559
  155SAPE   H7X17310   0.495   2.299   9.750  0.6970 -0.0290 -1.0652
  155SAPE   H7Y17311   0.392   2.162   9.759 -0.7506  1.1219 -0.0548
  155SAPE   C3817312   0.555   2.121   9.650  0.2936 -0.0653  1.5326
  155SAPE   H8X17313   0.563   2.015   9.680  2.0244 -0.2158  0.6807
  155SAPE   H8Y17314   0.651   2.176   9.640  0.6853 -0.8819  0.7321
  155SAPE   C3917315   0.479   2.144   9.522  0.0256  0.8240  0.5349
  155SAPE   H9X17316   0.417   2.237   9.522 -1.8016 -0.3186 -0.8720
  155SAPE   H9Y17317   0.411   2.061   9.493  0.6800  0.3197  0.4383
  155SAPE  C31017318   0.571   2.156   9.396  0.0084  0.0795  0.7559
  155SAPE  H10X17319   0.621   2.059   9.373  0.2796  0.4502 -0.2969
  155SAPE  H10Y17320   0.654   2.229   9.405  2.3758 -2.3779  0.1514
  155SAPE  C31117321   0.487   2.190   9.277 -0.3894 -0.1451  0.6669
  155SAPE  H11X17322   0.392   2.133   9.281 -0.6217  0.1047 -0.7971
  155SAPE  H11Y17323   0.531   2.155   9.181 -3.7907 -3.1851  0.0154
  155SAPE  C31217324   0.459   2.336   9.256  0.4518 -0.2351  0.1254
  155SAPE  H12X17325   0.546   2.402   9.235 -1.1619  2.1215  0.4712
  155SAPE  H12Y17326   0.397   2.372   9.341 -2.2187 -1.1139 -1.3326
  155SAPE  C31317327   0.371   2.352   9.131 -0.3729  0.3015 -0.9058
  155SAPE  H13X17328   0.303   2.439   9.134  0.5212  1.0423 -1.5723
  155SAPE  H13Y17329   0.305   2.263   9.119  0.2157  0.1995 -4.5034
  155SAPE  C31417330   0.448   2.343   8.997  0.4806 -0.2575  0.4816
  155SAPE  H14X17331   0.494   2.243   8.979 -0.2971 -0.2925 -1.5415
  155SAPE  H14Y17332   0.526   2.422   8.992 -1.2507  1.4058 -2.0629
  155SAPE  C31517333   0.353   2.351   8.876 -0.4846  0.3217 -0.5060
  155SAPE  H15X17334   0.288   2.438   8.898 -2.3133 -0.6632 -1.8075
  155SAPE  H15Y17335   0.280   2.268   8.883  0.5395 -0.5068  1.2475
  155SAPE  C31617336   0.423   2.372   8.739  0.2897 -0.2531 -0.0297
  155SAPE  H16X17337   0.497   2.454   8.740  0.6700 -0.5917  0.6143
  155SAPE  H16Y17338   0.340   2.392   8.668  0.8459 -1.8477 -1.2017
  155SAPE  C31717339   0.485   2.246   8.678  0.6436  0.0809 -0.1800
  155SAPE  H17X17340   0.397   2.179   8.664  0.1275  0.5168  0.9083
  155SAPE  H17Y17341   0.556   2.194   8.746 -2.0729 -0.5851  2.3580
  155SAPE  C31817342   0.546   2.271   8.539  0.8200 -0.0859 -0.5210
  155SAPE  H18X17343   0.570   2.174   8.490 -0.0088 -1.3048  1.3522
  155SAPE  H18Y17344   0.640   2.328   8.552  1.3798 -0.7686 -1.4483
  155SAPE  H18Z17345   0.484   2.326   8.466  0.8216 -1.3204 -1.4840
  156SAPE     N17346   3.933   5.449  10.982 -0.4551  0.6229  0.2139
  156SAPE   HN117347   3.830   5.443  10.969 -0.4603  3.3150 -1.7704
  156SAPE   HN217348   3.968   5.379  11.051 -0.9363  0.2273  0.0637
  156SAPE   HN317349   3.964   5.545  11.008  1.9056  0.0527 -0.2062
  156SAPE   C1217350   3.990   5.423  10.848  0.1164  0.2915  0.3089
  156SAPE  H12A17351   3.911   5.365  10.795  0.4044  0.7367 -0.6369
  156SAPE  H12B17352   4.084   5.362  10.854 -0.2503 -0.1369  2.2014
  156SAPE   C1117353   4.026   5.551  10.769 -0.3154 -0.3210 -0.6954
  156SAPE  H11A17354   3.933   5.611  10.767 -0.7060 -0.7978  1.2055
  156SAPE  H11B17355   4.054   5.516  10.667 -0.0369 -2.6962  0.1269
  156SAPE     P17356   4.212   5.735  10.765 -0.0044  0.4953 -0.1061
  156SAPE   O1317357   4.151   5.871  10.787 -0.1515  0.4885  0.1066
  156SAPE   O1417358   4.350   5.715  10.814 -0.0088 -0.4403  0.0401
  156SAPE   O1217359   4.127   5.627  10.846  0.2058 -0.6321 -0.0099
  156SAPE   O1117360   4.203   5.689  10.611 -0.3924 -0.2267 -0.2048
  156SAPE    C117361   4.168   5.794  10.513 -0.3951 -0.5395  0.6276
  156SAPE    HA17362   4.070   5.843  10.529  0.2027  1.4502 -1.3533
  156SAPE    HB17363   4.242   5.876  10.518  0.1731 -0.9153 -0.8503
  156SAPE    C217364   4.161   5.727  10.364  0.5097  0.7649 -0.0916
  156SAPE    HS17365   4.106   5.631  10.368  0.7375  0.6576  0.5567
  156SAPE   O2117366   4.301   5.703  10.317 -0.2035  0.0174 -0.3366
  156SAPE   C2117367   4.347   5.583  10.338  0.4823  0.0092 -0.9375
  156SAPE   O2217368   4.284   5.489  10.380  0.6397  0.5755 -0.9484
  156SAPE   C2217369   4.497   5.581  10.305  0.3691  0.1795  0.2797
  156SAPE   H2R17370   4.530   5.685  10.286 -0.6914  0.2579 -1.3385
  156SAPE   H2S17371   4.544   5.555  10.402 -0.1350 -2.6760 -0.1594
  156SAPE    C317372   4.093   5.822  10.257  1.0025  0.1179 -0.2243
  156SAPE    HX17373   4.120   5.928  10.270  2.7002  0.2254 -3.5381
  156SAPE    HY17374   3.984   5.814  10.279  1.2522  0.9355  1.4798
  156SAPE   O3117375   4.129   5.787  10.123  0.0264 -0.0561 -0.6510
  156SAPE   C3117376   4.066   5.681  10.077  0.2455  0.8158 -0.1273
  156SAPE   O3217377   3.984   5.612  10.142  0.0098  0.3738  0.2361
  156SAPE   C3217378   4.100   5.672   9.934  0.5683 -0.4528  0.0290
  156SAPE   H2X17379   4.200   5.624   9.921 -0.3866 -2.6070  0.2129
  156SAPE   H2Y17380   4.078   5.767   9.882 -0.6131 -0.5228  0.3684
  156SAPE   C2317381   4.535   5.487  10.194  0.4221  0.4297  0.2848
  156SAPE   H3R17382   4.462   5.404  10.192  0.5094  0.3592 -0.0875
  156SAPE   H3S17383   4.632   5.437  10.211  2.4869  3.5776 -1.1704
  156SAPE   C2417384   4.554   5.555  10.051 -0.0556 -0.1289  0.2080
  156SAPE   H4R17385   4.457   5.607  10.035 -0.7282 -1.4520 -0.1323
  156SAPE   H4S17386   4.573   5.470   9.982 -0.2150 -2.4243  2.7985
  156SAPE   C2517387   4.667   5.648  10.051 -0.4846  0.2693  0.4505
  156SAPE   H5R17388   4.701   5.705  10.139  0.0467  1.3571 -0.4268
  156SAPE   C2617389   4.739   5.666   9.936  0.1543  0.2557  0.1651
  156SAPE   H6R17390   4.828   5.729   9.947 -1.3250  2.2178  1.6499
  156SAPE   C2717391   4.720   5.602   9.805 -0.3016 -0.4670  0.7738
  156SAPE   H7R17392   4.704   5.689   9.738  2.0802 -0.3530  0.2764
  156SAPE   H7S17393   4.627   5.541   9.807 -0.7765  0.1806 -0.3800
  156SAPE   C2817394   4.838   5.513   9.774 -0.0352  0.2872 -0.2999
  156SAPE   H8R17395   4.902   5.481   9.858 -1.9703 -2.6985  0.1939
  156SAPE   C2917396   4.857   5.459   9.655 -0.2591  0.0233 -0.0332
  156SAPE   H9R17397   4.941   5.391   9.632 -0.3633  0.3961 -1.6808
  156SAPE  C21017398   4.758   5.476   9.546 -0.0738 -0.4161  0.0147
  156SAPE  H10R17399   4.664   5.527   9.576  1.0925  2.2558 -0.6290
  156SAPE  H10S17400   4.727   5.376   9.509  0.1654 -0.1677 -0.8834
  156SAPE  C21117401   4.824   5.558   9.442 -0.4636 -0.6564  0.6950
  156SAPE  H11R17402   4.872   5.652   9.473  0.8982 -1.1799  0.2161
  156SAPE  C21217403   4.811   5.534   9.314  0.4076 -0.8348  0.0235
  156SAPE  H12R17404   4.845   5.624   9.259  1.8476 -1.1844  0.2995
  156SAPE  C21317405   4.740   5.417   9.246  0.2721  0.3590  0.0681
  156SAPE  H13R17406   4.636   5.404   9.283  0.4825  1.0556  0.9290
  156SAPE  H13S17407   4.782   5.321   9.283 -2.4997 -1.4881 -1.1916
  156SAPE  C21417408   4.747   5.427   9.092  0.7952  0.2258  0.4323
  156SAPE  H14R17409   4.816   5.502   9.052  0.6105  0.4132  0.4649
  156SAPE  C21517410   4.672   5.359   9.010  0.6097  0.2947 -0.2579
  156SAPE  H15R17411   4.685   5.385   8.905  1.9277 -0.9842 -0.4586
  156SAPE  C21617412   4.568   5.247   9.037  0.0643 -0.3173 -0.2475
  156SAPE  H16R17413   4.550   5.233   9.146  4.2692 -1.2707  0.4827
  156SAPE  H16S17414   4.598   5.151   8.990  0.5819 -0.6892  0.7950
  156SAPE  C21717415   4.434   5.294   8.971  0.1024 -0.2406 -0.3834
  156SAPE  H17R17416   4.460   5.318   8.865  2.5350 -0.3758  0.1206
  156SAPE  H17S17417   4.406   5.392   9.015 -0.7443  0.1162 -1.6470
  156SAPE  C21817418   4.335   5.188   9.005  0.1170  0.6028 -0.2385
  156SAPE  H18R17419   4.323   5.172   9.115  1.8159 -0.9165 -0.2346
  156SAPE  H18S17420   4.378   5.095   8.964  0.8595  0.5699  0.5851
  156SAPE  C21917421   4.194   5.221   8.939 -0.9839 -0.1857 -0.3577
  156SAPE  H19R17422   4.194   5.206   8.829  2.6217  0.7209 -0.5942
  156SAPE  H19S17423   4.171   5.329   8.952  0.7621  0.1056  0.5468
  156SAPE  C22017424   4.074   5.144   8.998 -0.7253  0.1761  0.7452
  156SAPE  H20R17425   4.097   5.036   9.003  0.2258  0.4138  1.8179
  156SAPE  H20S17426   3.979   5.162   8.944  0.8907  0.3155 -2.2718
  156SAPE  H20T17427   4.060   5.183   9.101 -0.9794  0.3277  0.6554
  156SAPE   C3317428   4.000   5.564   9.870  0.4558  0.0736  0.8318
  156SAPE   H3X17429   3.898   5.603   9.888  0.0459 -0.0610 -1.0009
  156SAPE   H3Y17430   4.013   5.466   9.922 -0.8511 -0.0890  0.8865
  156SAPE   C3417431   4.030   5.544   9.722 -0.2158  0.5221  0.1020
  156SAPE   H4X17432   4.131   5.500   9.725 -0.9467 -1.2484 -0.1285
  156SAPE   H4Y17433   4.026   5.642   9.670 -0.9466  0.4426 -0.0090
  156SAPE   C3517434   3.948   5.456   9.636 -0.2827  0.3297  0.5442
  156SAPE   H5X17435   3.846   5.500   9.644 -0.5837 -0.1634 -0.3858
  156SAPE   H5Y17436   3.945   5.349   9.666  0.1783  0.1248 -0.1209
  156SAPE   C3617437   3.993   5.452   9.491  0.9838 -0.2957 -0.2846
  156SAPE   H6X17438   4.090   5.397   9.494 -0.3444 -2.7859  0.8765
  156SAPE   H6Y17439   3.983   5.557   9.458 -3.6180 -0.3799  0.1411
  156SAPE   C3717440   3.887   5.374   9.413  0.1337  0.1235  0.0575
  156SAPE   H7X17441   3.789   5.420   9.438  0.5454  0.8305  0.4261
  156SAPE   H7Y17442   3.875   5.269   9.447  0.0550  0.7887  2.2214
  156SAPE   C3817443   3.912   5.381   9.262 -0.5260 -0.4922 -0.1861
  156SAPE   H8X17444   4.014   5.341   9.245 -0.4238 -1.3705  2.1938
  156SAPE   H8Y17445   3.912   5.489   9.236  1.6379  0.1154  2.0237
  156SAPE   C3917446   3.802   5.311   9.184 -0.1590  0.2370  0.9334
  156SAPE   H9X17447   3.701   5.330   9.226  0.1262  2.1229  0.8582
  156SAPE   H9Y17448   3.827   5.203   9.179  0.5408  0.4555 -1.4080
  156SAPE  C31017449   3.798   5.350   9.037 -0.2573  0.2527 -0.7797
  156SAPE  H10X17450   3.896   5.334   8.987 -0.2594  0.1833 -0.7606
  156SAPE  H10Y17451   3.763   5.456   9.030 -0.6152  0.2603  0.8855
  156SAPE  C31117452   3.686   5.271   8.966  0.1876  0.3273  0.2659
  156SAPE  H11X17453   3.587   5.293   9.011  1.5514  2.7473  2.3698
  156SAPE  H11Y17454   3.707   5.163   8.982  2.0769  0.5054 -0.7449
  156SAPE  C31217455   3.683   5.284   8.812 -0.0798 -0.0379 -0.5132
  156SAPE  H12X17456   3.790   5.274   8.783  0.0522  3.0995 -1.4995
  156SAPE  H12Y17457   3.648   5.389   8.803 -0.9784 -0.4612 -2.5356
  156SAPE  C31317458   3.588   5.185   8.738  0.6398  0.0213 -0.2072
  156SAPE  H13X17459   3.572   5.209   8.631 -3.0243 -1.3914 -0.1285
  156SAPE  H13Y17460   3.485   5.182   8.781  0.3689  1.0704 -0.7659
  156SAPE  C31417461   3.637   5.038   8.738 -0.5645 -0.0077 -0.4808
  156SAPE  H14X17462   3.657   4.997   8.840  1.8316 -0.7483 -1.1870
  156SAPE  H14Y17463   3.735   5.050   8.687 -1.1166  2.1702 -1.1292
  156SAPE  C31517464   3.558   4.936   8.655 -0.9067 -0.1411  0.5518
  156SAPE  H15X17465   3.633   4.855   8.640 -1.2131 -0.0193 -1.9065
  156SAPE  H15Y17466   3.540   4.968   8.551  0.0444  0.6277  0.6199
  156SAPE  C31617467   3.425   4.888   8.715 -0.1021 -0.1859  0.1202
  156SAPE  H16X17468   3.392   4.809   8.644 -0.6934  0.4232 -0.2816
  156SAPE  H16Y17469   3.341   4.960   8.715 -0.9615 -1.1425 -1.3170
  156SAPE  C31717470   3.442   4.829   8.855  0.3709  0.3115  0.4312
  156SAPE  H17X17471   3.456   4.907   8.933 -4.7100  0.1536  1.8763
  156SAPE  H17Y17472   3.529   4.760   8.850 -0.9170 -1.2614 -1.5067
  156SAPE  C31817473   3.324   4.740   8.905  0.1095 -0.7978  0.3286
  156SAPE  H18X17474   3.229   4.798   8.911 -0.0194 -1.1544  3.4332
  156SAPE  H18Y17475   3.335   4.701   9.008  0.0925 -1.0005  0.2547
  156SAPE  H18Z17476   3.304   4.656   8.836  0.3939  0.5330 -1.4528
  157SAPE     N17477   3.111   6.086  10.968 -0.0587  0.3212  0.4115
  157SAPE   HN117478   3.154   6.065  11.060  0.0300  3.6105  1.2283
  157SAPE   HN217479   3.173   6.144  10.908  0.7402 -0.2204  0.7065
  157SAPE   HN317480   3.024   6.137  10.992 -0.3810 -0.7756  1.7158
  157SAPE   C1217481   3.068   5.970  10.886 -0.6081  0.1898  0.7056
  157SAPE  H12A17482   3.029   6.002  10.787  0.3716  1.8897  0.8295
  157SAPE  H12B17483   2.990   5.905  10.933 -1.5291 -0.7646 -1.9498
  157SAPE   C1117484   3.197   5.884  10.855 -0.0350  0.5356  0.1024
  157SAPE  H11A17485   3.178   5.809  10.775 -0.6182 -1.7078  2.2162
  157SAPE  H11B17486   3.220   5.823  10.945 -0.2768 -1.5836 -1.1915
  157SAPE     P17487   3.439   5.901  10.735  0.0327 -0.0772  0.1746
  157SAPE   O1317488   3.533   6.013  10.716  0.5521  0.2866  0.5431
  157SAPE   O1417489   3.491   5.768  10.775 -0.4237 -0.7213 -0.3285
  157SAPE   O1217490   3.315   5.955  10.821 -0.2523  0.2584  0.0042
  157SAPE   O1117491   3.367   5.890  10.598  0.3269 -0.2697 -0.0856
  157SAPE    C117492   3.321   6.011  10.531  0.2034 -0.0526 -0.3159
  157SAPE    HA17493   3.331   6.106  10.587 -0.2066  0.4977 -1.1521
  157SAPE    HB17494   3.374   6.027  10.435  1.1788  0.3421  0.2754
  157SAPE    C217495   3.167   5.998  10.499  0.5704 -0.1975 -0.1743
  157SAPE    HS17496   3.135   5.956  10.597 -0.7139 -1.8018 -1.2192
  157SAPE   O2117497   3.150   5.887  10.408  0.0767  0.0509 -0.6429
  157SAPE   C2117498   3.028   5.850  10.387  0.5277 -0.1420 -0.2933
  157SAPE   O2217499   2.929   5.877  10.459 -0.3009 -0.1694  0.7333
  157SAPE   C2217500   3.020   5.768  10.263 -0.7528 -0.4085  0.0351
  157SAPE   H2R17501   3.121   5.763  10.216 -0.6880  0.0657  0.1248
  157SAPE   H2S17502   2.998   5.667  10.304 -2.0309 -0.6546 -1.1765
  157SAPE    C317503   3.104   6.134  10.458 -0.0841  0.0902  0.1458
  157SAPE    HX17504   3.115   6.194  10.551 -0.3616 -1.0413  0.9373
  157SAPE    HY17505   2.999   6.125  10.424  0.2430 -0.3457 -0.7703
  157SAPE   O3117506   3.172   6.210  10.352 -0.7835  0.5231  0.3736
  157SAPE   C3117507   3.131   6.187  10.232  0.0281 -0.4581  0.1278
  157SAPE   O3217508   3.052   6.105  10.196 -0.0527  0.3450  0.0132
  157SAPE   C3217509   3.206   6.282  10.140 -0.6727 -0.0803 -1.2218
  157SAPE   H2X17510   3.306   6.236  10.123 -1.4604 -1.9248 -1.1328
  157SAPE   H2Y17511   3.230   6.373  10.199  0.6224 -1.3535  0.3009
  157SAPE   C2317512   2.907   5.792  10.161 -0.1238 -0.2961 -0.3748
  157SAPE   H3R17513   2.929   5.885  10.104  1.1837  0.4636  1.2736
  157SAPE   H3S17514   2.813   5.815  10.215 -1.1712  1.8741 -2.8800
  157SAPE   C2417515   2.862   5.668  10.081  0.8110 -0.4499  0.0073
  157SAPE   H4R17516   2.889   5.585  10.150  1.2613  0.8087  1.4049
  157SAPE   H4S17517   2.938   5.665   9.999  1.3682  1.8691  0.3770
  157SAPE   C2517518   2.721   5.661  10.032  0.3690  0.0249  0.9518
  157SAPE   H5R17519   2.646   5.663  10.113  0.6579 -1.0622  1.2684
  157SAPE   C2617520   2.672   5.659   9.910  0.3424  0.5201  0.3260
  157SAPE   H6R17521   2.563   5.648   9.895  0.0027  1.3121  1.9716
  157SAPE   C2717522   2.753   5.654   9.787 -0.5303  0.2013  0.0143
  157SAPE   H7R17523   2.859   5.679   9.806 -0.6915  1.5652 -0.7511
  157SAPE   H7S17524   2.714   5.730   9.716 -1.4261  1.8540  2.1614
  157SAPE   C2817525   2.743   5.518   9.729 -0.0915 -0.7014 -0.6296
  157SAPE   H8R17526   2.717   5.435   9.797  1.2982 -1.6359 -1.1711
  157SAPE   C2917527   2.751   5.486   9.603 -0.4360  0.0176 -0.6526
  157SAPE   H9R17528   2.744   5.381   9.571  0.5117 -0.4766  0.6666
  157SAPE  C21017529   2.781   5.599   9.507  0.9842 -0.0501 -0.6456
  157SAPE  H10R17530   2.870   5.661   9.532  1.3938 -1.2401  0.9944
  157SAPE  H10S17531   2.690   5.663   9.505  0.9190 -0.1132  0.2351
  157SAPE  C21117532   2.801   5.547   9.369 -0.4188  0.2278  0.3173
  157SAPE  H11R17533   2.863   5.456   9.370 -2.0780 -0.9421  0.8679
  157SAPE  C21217534   2.753   5.583   9.247 -0.7919 -0.4186 -0.4817
  157SAPE  H12R17535   2.778   5.517   9.162 -1.5498 -1.8466  0.3696
  157SAPE  C21317536   2.658   5.696   9.223  0.1959  0.3626  0.6508
  157SAPE  H13R17537   2.687   5.751   9.131 -1.2279 -1.3004 -0.8751
  157SAPE  H13S17538   2.662   5.761   9.313  0.2416  1.7543 -0.3418
  157SAPE  C21417539   2.525   5.631   9.192 -0.4102 -0.6165  0.1048
  157SAPE  H14R17540   2.458   5.605   9.275 -0.4133 -1.1183 -0.0522
  157SAPE  C21517541   2.489   5.614   9.064 -0.2534 -0.1179 -0.0866
  157SAPE  H15R17542   2.396   5.557   9.051  0.4917 -1.5391  0.6282
  157SAPE  C21617543   2.556   5.643   8.933 -0.0193 -0.8276  0.8352
  157SAPE  H16R17544   2.662   5.611   8.939 -0.0111 -0.7421  1.1333
  157SAPE  H16S17545   2.563   5.752   8.914 -1.2297 -1.1676 -2.1368
  157SAPE  C21717546   2.486   5.581   8.815 -0.6732 -0.2531  0.0050
  157SAPE  H17R17547   2.541   5.607   8.722 -0.7818 -1.6833 -0.4771
  157SAPE  H17S17548   2.383   5.620   8.798 -0.1874  1.6444  1.0498
  157SAPE  C21817549   2.493   5.433   8.826  0.3617 -0.6047  0.2448
  157SAPE  H18R17550   2.448   5.403   8.924  1.3187  1.6003  1.4212
  157SAPE  H18S17551   2.602   5.409   8.837  1.1742  0.2007 -4.1740
  157SAPE  C21917552   2.442   5.346   8.710  0.3822 -0.0176  0.3505
  157SAPE  H19R17553   2.477   5.390   8.614 -0.0770 -0.1617  0.1126
  157SAPE  H19S17554   2.332   5.343   8.703  0.3868  0.8495 -0.3757
  157SAPE  C22017555   2.503   5.211   8.683  0.0794 -0.4490 -0.8938
  157SAPE  H20R17556   2.450   5.159   8.600  0.9488 -1.0863 -1.0596
  157SAPE  H20S17557   2.487   5.143   8.770 -2.1403  2.8632  1.5707
  157SAPE  H20T17558   2.613   5.219   8.674 -0.1429  4.1708 -1.5374
  157SAPE   C3317559   3.120   6.301  10.009  0.2608 -0.0771  0.0330
  157SAPE   H3X17560   3.027   6.356  10.034 -0.5851  0.0007 -2.8921
  157SAPE   H3Y17561   3.090   6.205   9.961 -1.8720  0.6044 -0.0985
  157SAPE   C3417562   3.203   6.379   9.907  0.6012 -0.4794 -0.3883
  157SAPE   H4X17563   3.274   6.307   9.860  0.2921 -0.6354 -0.6224
  157SAPE   H4Y17564   3.271   6.444   9.965 -0.7917 -0.9959  1.9738
  157SAPE   C3517565   3.128   6.476   9.800  0.4452  0.5237 -0.1103
  157SAPE   H5X17566   3.189   6.569   9.792 -1.9345  2.0225 -2.6276
  157SAPE   H5Y17567   3.024   6.492   9.836  0.4059 -0.4729  0.2462
  157SAPE   C3617568   3.106   6.405   9.662 -0.0912  0.2002  0.2475
  157SAPE   H6X17569   3.066   6.302   9.677 -0.1752  0.1782 -0.1230
  157SAPE   H6Y17570   3.207   6.383   9.624 -0.1862  2.1353 -1.2574
  157SAPE   C3717571   3.023   6.479   9.558  0.4419  0.4767 -0.0057
  157SAPE   H7X17572   3.053   6.586   9.564 -2.0617  1.3526 -1.3398
  157SAPE   H7Y17573   2.917   6.482   9.592  0.4335 -0.6239  0.0962
  157SAPE   C3817574   3.024   6.422   9.415  0.2373 -0.4046 -0.0739
  157SAPE   H8X17575   2.998   6.314   9.419 -1.9660 -0.0092 -1.6095
  157SAPE   H8Y17576   3.130   6.415   9.383 -0.5179 -1.8857 -2.6030
  157SAPE   C3917577   2.934   6.505   9.313 -1.0947  0.4431 -0.4947
  157SAPE   H9X17578   2.996   6.597   9.307  0.1134 -0.2834  0.5254
  157SAPE   H9Y17579   2.839   6.537   9.360 -0.2334  1.5902  0.5382
  157SAPE  C31017580   2.919   6.436   9.174  0.3545 -0.7395  0.0908
  157SAPE  H10X17581   2.867   6.508   9.108  1.1748  1.0529  1.3155
  157SAPE  H10Y17582   2.858   6.343   9.170 -0.2100 -0.3433 -0.6995
  157SAPE  C31117583   3.049   6.409   9.108 -0.0397 -0.1116  0.3401
  157SAPE  H11X17584   3.099   6.331   9.170 -1.6948  0.0593  1.9496
  157SAPE  H11Y17585   3.109   6.502   9.097  0.8376 -0.5638  1.1934
  157SAPE  C31217586   3.029   6.342   8.972  0.4035  0.4338  0.6300
  157SAPE  H12X17587   2.974   6.246   8.981  1.5633 -0.3853 -0.5561
  157SAPE  H12Y17588   3.130   6.307   8.939  0.7229  2.0224 -0.1526
  157SAPE  C31317589   2.970   6.430   8.855  0.2611 -0.4392  0.3671
  157SAPE  H13X17590   3.055   6.487   8.812 -0.7107  0.5927 -0.2266
  157SAPE  H13Y17591   2.907   6.512   8.896 -0.6665  0.4214 -2.5264
  157SAPE  C31417592   2.901   6.348   8.738  0.0203  0.0186 -0.1196
  157SAPE  H14X17593   2.795   6.338   8.769  0.4243  0.7946  1.6090
  157SAPE  H14Y17594   2.949   6.250   8.713 -2.7596 -1.3114 -0.6147
  157SAPE  C31517595   2.908   6.425   8.609 -0.0364 -1.0380  0.2401
  157SAPE  H15X17596   3.012   6.463   8.599 -1.3280  2.4001 -2.0801
  157SAPE  H15Y17597   2.841   6.514   8.603  2.0104  0.4819 -1.2661
  157SAPE  C31617598   2.891   6.341   8.477 -0.1283  0.1596  0.3024
  157SAPE  H16X17599   2.959   6.254   8.487 -0.4696 -0.0540  0.8291
  157SAPE  H16Y17600   2.919   6.401   8.388  1.2790 -1.4632 -0.4000
  157SAPE  C31717601   2.738   6.304   8.453  0.7499 -0.0142  0.6541
  157SAPE  H17X17602   2.691   6.255   8.541 -1.7780 -4.0302 -2.5364
  157SAPE  H17Y17603   2.741   6.223   8.377 -1.6815  2.2062 -2.0337
  157SAPE  C31817604   2.659   6.425   8.393  0.1886 -0.3841 -0.2102
  157SAPE  H18X17605   2.556   6.393   8.365 -0.2903  0.1729  0.8639
  157SAPE  H18Y17606   2.702   6.468   8.300 -1.4501  2.3826  0.1937
  157SAPE  H18Z17607   2.651   6.508   8.467  2.0432  1.0354 -1.5258
  158SAPE     N17608   4.239   1.469  10.816  0.7465  0.2318 -0.5791
  158SAPE   HN117609   4.140   1.482  10.847  0.0160  1.2761 -3.0795
  158SAPE   HN217610   4.297   1.505  10.894  0.6008  0.2920 -0.4974
  158SAPE   HN317611   4.266   1.521  10.730  2.5302 -0.7277 -0.6417
  158SAPE   C1217612   4.268   1.324  10.786 -0.8013 -0.0014  0.4371
  158SAPE  H12A17613   4.260   1.270  10.883 -1.0614 -1.1547 -0.2113
  158SAPE  H12B17614   4.375   1.312  10.761 -0.4607  1.3431  1.1299
  158SAPE   C1117615   4.168   1.262  10.683  0.1215 -0.1444 -0.0602
  158SAPE  H11A17616   4.201   1.156  10.680  0.3922 -0.1133  1.2582
  158SAPE  H11B17617   4.184   1.310  10.584  3.4903  1.9055  1.2904
  158SAPE     P17618   3.914   1.176  10.731 -0.1867 -0.0163  0.2609
  158SAPE   O1317619   3.942   1.064  10.822  0.8633 -0.5225  0.4344
  158SAPE   O1417620   3.788   1.249  10.752 -0.1209 -0.0207  0.2366
  158SAPE   O1217621   4.035   1.278  10.734 -0.2023 -0.3184 -0.7684
  158SAPE   O1117622   3.918   1.119  10.584 -1.1185 -0.3909  0.4563
  158SAPE    C117623   3.862   1.198  10.475  0.1403 -0.1055  0.4755
  158SAPE    HA17624   3.751   1.199  10.482  0.1440 -1.7996  1.1696
  158SAPE    HB17625   3.887   1.305  10.490  1.6215 -0.2603 -0.6267
  158SAPE    C217626   3.895   1.154  10.335  0.3018 -0.0781 -0.0008
  158SAPE    HS17627   3.896   1.043  10.330 -0.9732 -0.1913  1.4951
  158SAPE   O2117628   4.021   1.207  10.309  0.4936 -0.2193 -0.0637
  158SAPE   C2117629   4.084   1.139  10.211 -0.4350  0.3437  0.4859
  158SAPE   O2217630   4.066   1.021  10.189 -0.1909  0.0757  0.0152
  158SAPE   C2217631   4.151   1.234  10.116  0.5528 -0.1980 -0.2574
  158SAPE   H2R17632   4.073   1.286  10.055  1.9262 -0.0689 -1.9781
  158SAPE   H2S17633   4.196   1.313  10.179 -1.6537  1.9004 -1.1441
  158SAPE    C317634   3.799   1.216  10.229  0.2409 -0.2216  0.1829
  158SAPE    HX17635   3.834   1.321  10.212 -3.0786  0.6782 -1.9632
  158SAPE    HY17636   3.691   1.219  10.252 -0.6415 -1.5881 -3.1507
  158SAPE   O3117637   3.811   1.165  10.093 -0.7555 -0.5552 -0.5779
  158SAPE   C3117638   3.752   1.047  10.076  0.3278  0.0900  0.9567
  158SAPE   O3217639   3.670   0.991  10.151 -0.0307  0.2975  0.0485
  158SAPE   C3217640   3.804   0.985   9.945  0.0990 -0.0408 -0.0379
  158SAPE   H2X17641   3.728   0.921   9.896  2.1102 -1.1450 -1.8567
  158SAPE   H2Y17642   3.891   0.922   9.975 -1.7452 -2.5231  0.4379
  158SAPE   C2317643   4.255   1.168  10.032  0.8236  0.6535  1.0505
  158SAPE   H3R17644   4.317   1.108  10.103  0.3039  0.4463  1.3316
  158SAPE   H3S17645   4.323   1.238   9.978  0.9445 -0.3729 -0.1731
  158SAPE   C2417646   4.197   1.083   9.914 -0.4116  0.3993 -0.0144
  158SAPE   H4R17647   4.150   1.167   9.859  1.1504  3.4606  2.9263
  158SAPE   H4S17648   4.121   1.011   9.951 -0.0774  1.0431  2.0754
  158SAPE   C2517649   4.299   1.008   9.825  0.2922  0.1044 -0.5257
  158SAPE   H5R17650   4.374   0.962   9.892 -0.5869  1.0947  1.1977
  158SAPE   C2617651   4.312   1.006   9.694 -0.7508 -0.3447  0.5020
  158SAPE   H6R17652   4.397   0.953   9.649 -0.4124  0.4594  0.1830
  158SAPE   C2717653   4.223   1.077   9.596  0.3142 -0.3157  0.0089
  158SAPE   H7R17654   4.266   1.175   9.569 -2.0156  1.2037  1.4696
  158SAPE   H7S17655   4.132   1.115   9.646  1.3787  1.8403  0.3975
  158SAPE   C2817656   4.197   0.985   9.471 -0.3105  0.1184 -0.7907
  158SAPE   H8R17657   4.103   0.930   9.481 -0.4269  0.5151  0.4625
  158SAPE   C2917658   4.266   0.981   9.355 -0.2030  0.5434  0.2827
  158SAPE   H9R17659   4.230   0.905   9.283 -2.3765  0.8205  1.0160
  158SAPE  C21017660   4.384   1.061   9.317 -0.2301  0.0246 -0.4439
  158SAPE  H10R17661   4.448   1.086   9.405 -0.4616  1.3575 -0.6322
  158SAPE  H10S17662   4.355   1.157   9.269 -0.8029 -1.2963 -2.9183
  158SAPE  C21117663   4.472   0.983   9.225 -1.0013  0.1869  0.4603
  158SAPE  H11R17664   4.541   0.912   9.273 -2.2702 -1.8890 -0.6741
  158SAPE  C21217665   4.483   0.994   9.095  0.4298  0.8725 -0.1312
  158SAPE  H12R17666   4.539   0.916   9.043  0.5484 -0.4355  1.8418
  158SAPE  C21317667   4.414   1.099   9.014  0.6717 -0.3833 -0.0387
  158SAPE  H13R17668   4.438   1.199   9.053 -1.6415  0.1637  0.1507
  158SAPE  H13S17669   4.304   1.095   9.032  0.4967  1.8493 -0.3645
  158SAPE  C21417670   4.431   1.064   8.869 -0.3704 -0.2332  0.4203
  158SAPE  H14R17671   4.367   0.978   8.845  0.7712 -1.5805  1.9518
  158SAPE  C21517672   4.528   1.110   8.784  0.2832  0.3350 -0.2181
  158SAPE  H15R17673   4.515   1.079   8.679 -1.7614  1.1754 -0.2558
  158SAPE  C21617674   4.635   1.213   8.812  0.5513 -0.2682 -0.5643
  158SAPE  H16R17675   4.739   1.174   8.824  1.2992  1.0897 -2.1164
  158SAPE  H16S17676   4.613   1.274   8.902  3.2255  1.9501 -1.2627
  158SAPE  C21717677   4.631   1.320   8.696 -0.1173  0.2111  0.0821
  158SAPE  H17R17678   4.676   1.415   8.732  1.0979 -0.8390  1.4659
  158SAPE  H17S17679   4.522   1.339   8.683  0.3742  3.9495  0.3293
  158SAPE  C21817680   4.694   1.262   8.573 -0.2498  0.0573  0.0679
  158SAPE  H18R17681   4.641   1.166   8.554 -1.2132 -0.3990  4.1873
  158SAPE  H18S17682   4.797   1.225   8.591 -0.7869 -0.9314  1.2263
  158SAPE  C21917683   4.695   1.355   8.453 -0.0854 -0.1961 -0.0226
  158SAPE  H19R17684   4.588   1.371   8.428 -0.1898  2.0884  1.5439
  158SAPE  H19S17685   4.746   1.299   8.372 -0.5367 -2.2997  1.0525
  158SAPE  C22017686   4.756   1.491   8.469 -0.2486 -0.0977  0.5903
  158SAPE  H20R17687   4.706   1.550   8.549 -1.0447 -0.4486  0.3575
  158SAPE  H20S17688   4.746   1.551   8.376  0.5941 -2.9448 -1.4634
  158SAPE  H20T17689   4.865   1.477   8.486  0.1235  0.3576 -1.2104
  158SAPE   C3317690   3.824   1.093   9.839 -0.5252  0.0008 -0.6261
  158SAPE   H3X17691   3.906   1.157   9.877 -0.3353  0.3104 -1.5559
  158SAPE   H3Y17692   3.744   1.167   9.816  0.2750  0.8814 -0.6040
  158SAPE   C3417693   3.867   1.036   9.706 -0.3251  0.1225 -0.0875
  158SAPE   H4X17694   3.949   0.963   9.723  0.0504 -0.0413 -2.3103
  158SAPE   H4Y17695   3.911   1.123   9.653 -2.5395  1.7286  0.5561
  158SAPE   C3517696   3.756   0.967   9.622 -0.3890 -0.5571  0.0804
  158SAPE   H5X17697   3.665   1.030   9.614 -1.4244 -1.7367  1.8043
  158SAPE   H5Y17698   3.712   0.879   9.674  1.3073 -1.1840  0.5340
  158SAPE   C3617699   3.806   0.926   9.481  0.3454 -0.4369 -0.2117
  158SAPE   H6X17700   3.731   0.855   9.441 -2.8428  2.0091  1.0471
  158SAPE   H6Y17701   3.903   0.872   9.491  0.6637  0.5336  2.7348
  158SAPE   C3717702   3.808   1.027   9.374 -0.2551  0.1856 -0.0437
  158SAPE   H7X17703   3.889   1.096   9.408 -0.6430  0.0022  1.3038
  158SAPE   H7Y17704   3.716   1.089   9.379  0.4020  1.2574 -0.6706
  158SAPE   C3817705   3.830   0.960   9.243  0.0202 -0.2643  0.1083
  158SAPE   H8X17706   3.836   1.045   9.172  1.5060 -0.5966 -0.2056
  158SAPE   H8Y17707   3.755   0.882   9.222  0.9712 -1.6120  1.4308
  158SAPE   C3917708   3.969   0.899   9.219 -0.2635  0.4802 -0.0352
  158SAPE   H9X17709   3.999   0.814   9.283 -2.1418  1.8463  2.8933
  158SAPE   H9Y17710   4.046   0.976   9.243  1.6978 -1.6199  0.7603
  158SAPE  C31017711   3.989   0.871   9.072 -0.3961  0.3898  0.5318
  158SAPE  H10X17712   3.956   0.959   9.012 -0.0889 -1.5829 -2.7748
  158SAPE  H10Y17713   3.919   0.793   9.037 -0.2058  1.1587 -1.7158
  158SAPE  C31117714   4.136   0.844   9.032  0.2425 -0.2971  0.1431
  158SAPE  H11X17715   4.190   0.929   9.080 -0.1012 -0.2889  0.5206
  158SAPE  H11Y17716   4.155   0.855   8.923 -0.7186  0.7633  0.0673
  158SAPE  C31217717   4.176   0.705   9.083 -0.2065  0.1772  0.7944
  158SAPE  H12X17718   4.095   0.635   9.054  1.1017 -1.7595  1.5642
  158SAPE  H12Y17719   4.184   0.715   9.193  1.7511  2.2556  0.5434
  158SAPE  C31317720   4.308   0.662   9.009  0.7162 -0.5852 -0.3990
  158SAPE  H13X17721   4.372   0.605   9.081 -1.0117 -1.1087  0.7883
  158SAPE  H13Y17722   4.367   0.754   8.990  0.9741 -0.9363 -1.3087
  158SAPE  C31417723   4.299   0.598   8.872 -0.4777 -0.3461 -0.4256
  158SAPE  H14X17724   4.222   0.641   8.805  0.0628 -0.5261 -1.1836
  158SAPE  H14Y17725   4.277   0.490   8.890  3.6552 -1.1125  1.3366
  158SAPE  C31517726   4.438   0.609   8.803  0.4215  0.7141  0.2551
  158SAPE  H15X17727   4.517   0.549   8.853  1.0895 -2.5629 -4.1191
  158SAPE  H15Y17728   4.474   0.714   8.800 -2.2822  1.7117 -0.5735
  158SAPE  C31617729   4.430   0.555   8.655 -0.2176 -0.2323 -0.1933
  158SAPE  H16X17730   4.525   0.578   8.603 -0.5469  2.1291  0.1401
  158SAPE  H16Y17731   4.353   0.618   8.606  1.0184  2.2423  0.8755
  158SAPE  C31717732   4.390   0.404   8.640  0.0620 -0.2385  0.4012
  158SAPE  H17X17733   4.309   0.383   8.713 -0.9719  1.4652 -0.2024
  158SAPE  H17Y17734   4.489   0.357   8.658  0.6998  1.1383  0.5993
  158SAPE  C31817735   4.357   0.353   8.497  0.3306  0.1935  0.1658
  158SAPE  H18X17736   4.286   0.414   8.437  1.6124  1.4573 -0.1385
  158SAPE  H18Y17737   4.309   0.254   8.501  0.2564  0.2668  1.5902
  158SAPE  H18Z17738   4.448   0.340   8.434  0.5155  1.5322  0.1136
  159SAPE     N17739   1.652   4.783   6.572  0.3135  0.4244 -0.3620
  159SAPE   HN117740   1.570   4.739   6.618 -0.1783  1.2023 -0.4721
  159SAPE   HN217741   1.640   4.886   6.583  0.7446  0.4288  0.1167
  159SAPE   HN317742   1.648   4.755   6.472 -0.4402  0.9759 -0.4901
  159SAPE   C1217743   1.772   4.734   6.640 -0.1635  0.0978  0.0841
  159SAPE  H12A17744   1.768   4.624   6.649  3.9081 -0.1482  0.7713
  159SAPE  H12B17745   1.778   4.786   6.738  2.9956 -0.8180  0.4998
  159SAPE   C1117746   1.891   4.769   6.547  0.2270 -0.2079 -0.1578
  159SAPE  H11A17747   1.986   4.744   6.600  1.5417  0.5041 -2.0409
  159SAPE  H11B17748   1.887   4.878   6.530  1.7724  0.0842  1.0563
  159SAPE     P17749   1.961   4.568   6.405 -0.4712  0.0942 -0.0759
  159SAPE   O1317750   1.866   4.470   6.344 -0.2248  0.0225  0.0944
  159SAPE   O1417751   2.083   4.595   6.328  0.0378 -0.4164 -0.3956
  159SAPE   O1217752   1.881   4.704   6.420 -0.3726 -0.3004  0.2782
  159SAPE   O1117753   1.982   4.523   6.553  0.1927 -0.0829 -0.4585
  159SAPE    C117754   1.978   4.387   6.600 -0.0474  0.4572 -0.0402
  159SAPE    HA17755   1.896   4.330   6.552  1.1597 -0.0226 -1.6087
  159SAPE    HB17756   2.071   4.341   6.559  0.1414  1.8696 -1.2826
  159SAPE    C217757   1.970   4.375   6.753 -0.1316 -0.3686 -0.4251
  159SAPE    HS17758   1.964   4.267   6.777 -2.1051  0.0411  1.2402
  159SAPE   O2117759   1.852   4.440   6.809  0.0674  0.0830  0.4124
  159SAPE   C2117760   1.744   4.371   6.811 -0.5930  0.3292  0.4837
  159SAPE   O2217761   1.735   4.250   6.779  0.3863 -0.6867 -0.1509
  159SAPE   C2217762   1.625   4.457   6.845 -0.3117 -0.5238  0.3593
  159SAPE   H2R17763   1.659   4.562   6.851  1.6509 -1.1994  3.0225
  159SAPE   H2S17764   1.548   4.443   6.766  0.7454 -0.3537 -0.7216
  159SAPE    C317765   2.102   4.436   6.813  0.7213 -0.2540 -0.0970
  159SAPE    HX17766   2.109   4.544   6.791 -0.6878 -0.0749  0.2181
  159SAPE    HY17767   2.188   4.402   6.752  0.6377  0.6234 -0.7190
  159SAPE   O3117768   2.116   4.413   6.955 -0.4889  0.0785  0.2893
  159SAPE   C3117769   2.089   4.517   7.042  0.4684 -0.3355  0.4924
  159SAPE   O3217770   2.095   4.636   7.018  0.8755  0.1951  0.8325
  159SAPE   C3217771   2.045   4.452   7.169 -1.2484  0.3638 -0.6201
  159SAPE   H2X17772   2.038   4.341   7.178 -0.1351  0.2303 -1.1968
  159SAPE   H2Y17773   1.941   4.490   7.181 -1.0442  0.0972  2.9032
  159SAPE   C2317774   1.560   4.409   6.977 -0.2386 -0.2098 -0.0233
  159SAPE   H3R17775   1.554   4.298   6.983 -0.0494 -0.2455 -0.5365
  159SAPE   H3S17776   1.455   4.445   6.976 -0.1686  0.0099  0.3554
  159SAPE   C2417777   1.636   4.463   7.100 -0.1420  0.5244  0.3526
  159SAPE   H4R17778   1.617   4.572   7.100 -1.6683  0.3010  1.5513
  159SAPE   H4S17779   1.743   4.453   7.073 -0.3765  1.9379 -1.3276
  159SAPE   C2517780   1.599   4.416   7.240 -0.8349 -0.1159  0.4223
  159SAPE   H5R17781   1.566   4.311   7.247 -2.0711  0.3410  2.2288
  159SAPE   C2617782   1.620   4.486   7.357  0.5191  0.5800 -0.2389
  159SAPE   H6R17783   1.615   4.428   7.450 -1.1894 -0.0467 -0.6778
  159SAPE   C2717784   1.683   4.620   7.363  0.1667 -0.8738 -0.1423
  159SAPE   H7R17785   1.718   4.667   7.269  3.4572 -1.6380  0.5902
  159SAPE   H7S17786   1.767   4.598   7.432 -1.4751 -2.9536  1.3204
  159SAPE   C2817787   1.587   4.710   7.436  0.2350 -0.3015 -0.5193
  159SAPE   H8R17788   1.520   4.770   7.373 -1.6229 -0.5294  1.1435
  159SAPE   C2917789   1.579   4.723   7.572  0.1033  0.3560  0.5860
  159SAPE   H9R17790   1.510   4.799   7.612  1.8526  2.4113 -0.1480
  159SAPE  C21017791   1.668   4.658   7.678  0.4959 -0.1348  0.0168
  159SAPE  H10R17792   1.759   4.722   7.693  0.1455  0.9351 -2.0775
  159SAPE  H10S17793   1.693   4.554   7.648  0.4734 -0.5936  1.5250
  159SAPE  C21117794   1.599   4.633   7.812  0.3293 -0.0148  0.4881
  159SAPE  H11R17795   1.489   4.626   7.803  0.3454 -0.6526  0.6623
  159SAPE  C21217796   1.668   4.596   7.921 -1.2418  0.2064 -0.1297
  159SAPE  H12R17797   1.624   4.573   8.019  0.1470  1.7738  0.9136
  159SAPE  C21317798   1.820   4.588   7.925  0.1361 -0.6722 -0.1622
  159SAPE  H13R17799   1.854   4.687   7.887 -1.2227 -0.5470 -1.1367
  159SAPE  H13S17800   1.861   4.504   7.865  1.4447  0.1034 -0.3814
  159SAPE  C21417801   1.867   4.582   8.074  0.3547  0.8957  0.1179
  159SAPE  H14R17802   1.845   4.487   8.124 -1.4044  1.2933  0.1656
  159SAPE  C21517803   1.915   4.684   8.149 -0.1702  0.1576 -0.3670
  159SAPE  H15R17804   1.941   4.664   8.254  0.7622  0.2105 -0.5769
  159SAPE  C21617805   1.935   4.827   8.100 -0.9696  0.2680  0.2795
  159SAPE  H16R17806   1.839   4.868   8.064 -1.4271 -0.6164  0.4480
  159SAPE  H16S17807   2.007   4.822   8.015 -0.9693  3.7270 -0.0387
  159SAPE  C21717808   1.989   4.936   8.197  0.1281 -0.1587 -0.0296
  159SAPE  H17R17809   1.998   5.038   8.154  0.4737  0.1148  0.6632
  159SAPE  H17S17810   2.095   4.904   8.212  0.3065  1.6285  3.6225
  159SAPE  C21817811   1.913   4.961   8.323  0.2906 -0.4178 -0.2861
  159SAPE  H18R17812   1.982   5.016   8.390  0.4086 -0.1119 -0.6568
  159SAPE  H18S17813   1.887   4.869   8.379 -0.2350  0.0869  0.3139
  159SAPE  C21917814   1.782   5.038   8.295  0.4753  0.4040  0.1107
  159SAPE  H19R17815   1.734   5.006   8.201  1.1568  2.3851 -0.9753
  159SAPE  H19S17816   1.821   5.140   8.273  2.0740 -0.1837  0.0771
  159SAPE  C22017817   1.684   5.036   8.417 -0.3521  0.1177 -0.1357
  159SAPE  H20R17818   1.661   4.929   8.436 -0.0691  0.0795 -0.0004
  159SAPE  H20S17819   1.589   5.088   8.391 -0.3445  1.0853  1.5980
  159SAPE  H20T17820   1.732   5.079   8.508  0.4372  0.1591 -0.5653
  159SAPE   C3317821   2.115   4.507   7.298  0.0101  0.3399 -0.6312
  159SAPE   H3X17822   2.102   4.617   7.303  1.2220  0.4546  0.3162
  159SAPE   H3Y17823   2.225   4.492   7.289  0.2509 -0.3867  2.5579
  159SAPE   C3417824   2.066   4.426   7.424  0.2745 -0.1935 -0.3101
  159SAPE   H4X17825   2.085   4.317   7.416 -1.7866 -0.6377  0.1216
  159SAPE   H4Y17826   1.955   4.441   7.423  0.5382  3.1053  2.3988
  159SAPE   C3517827   2.135   4.482   7.553  0.3492 -0.6871 -0.6622
  159SAPE   H5X17828   2.101   4.587   7.569  0.0261 -0.8950  0.0597
  159SAPE   H5Y17829   2.246   4.480   7.551  0.6571  0.9214  3.6679
  159SAPE   C3617830   2.107   4.406   7.685 -0.5488 -0.0431 -0.2131
  159SAPE   H6X17831   2.152   4.305   7.676 -1.0832 -0.2151 -1.0780
  159SAPE   H6Y17832   2.000   4.405   7.715 -0.3858 -0.4760  0.3678
  159SAPE   C3717833   2.181   4.482   7.801 -0.1512  0.3721 -0.1446
  159SAPE   H7X17834   2.150   4.589   7.810 -1.3362 -0.0462  1.2509
  159SAPE   H7Y17835   2.287   4.488   7.768  0.2847 -1.9650  0.6554
  159SAPE   C3817836   2.167   4.414   7.933  0.1399  0.2796 -0.5057
  159SAPE   H8X17837   2.211   4.313   7.942  0.3891  0.5744  4.1807
  159SAPE   H8Y17838   2.058   4.392   7.943  0.0455  0.8236 -0.2624
  159SAPE   C3917839   2.218   4.496   8.053 -0.5342  0.1742 -0.1900
  159SAPE   H9X17840   2.185   4.436   8.140 -0.9209  0.5454 -0.0801
  159SAPE   H9Y17841   2.157   4.589   8.063 -0.5080  0.2044 -0.3078
  159SAPE  C31017842   2.372   4.533   8.048 -0.4319 -0.8955 -0.1180
  159SAPE  H10X17843   2.382   4.642   8.029 -1.4366 -0.1164  3.2357
  159SAPE  H10Y17844   2.409   4.479   7.958  0.9271  2.1702 -1.5278
  159SAPE  C31117845   2.460   4.493   8.171  0.1942 -0.6466  0.0489
  159SAPE  H11X17846   2.565   4.520   8.148  0.5420 -0.4293  1.7625
  159SAPE  H11Y17847   2.445   4.384   8.189 -0.9231 -0.5382 -0.1546
  159SAPE  C31217848   2.426   4.565   8.302 -0.0346 -0.0152  1.0106
  159SAPE  H12X17849   2.320   4.595   8.306 -0.5813 -1.4881 -0.8203
  159SAPE  H12Y17850   2.489   4.656   8.297  0.0791 -0.1716 -1.1243
  159SAPE  C31317851   2.483   4.482   8.420  0.1789 -0.5725  0.3256
  159SAPE  H13X17852   2.585   4.441   8.408 -0.0394 -0.8661 -0.5895
  159SAPE  H13Y17853   2.418   4.392   8.418 -0.8541 -0.0317 -4.8511
  159SAPE  C31417854   2.468   4.555   8.560  0.8070 -0.3570  0.4765
  159SAPE  H14X17855   2.360   4.577   8.572  1.0209 -0.4039  2.9902
  159SAPE  H14Y17856   2.511   4.657   8.554  1.5422 -0.7412 -2.0493
  159SAPE  C31517857   2.526   4.485   8.678  0.4889 -0.6612 -0.9879
  159SAPE  H15X17858   2.634   4.507   8.687  0.5713 -1.7320  1.6646
  159SAPE  H15Y17859   2.519   4.374   8.675 -1.6099 -0.6849  1.3307
  159SAPE  C31617860   2.455   4.523   8.810  0.2670 -0.0843 -0.5216
  159SAPE  H16X17861   2.348   4.496   8.822  0.6339 -0.8157  1.5413
  159SAPE  H16Y17862   2.464   4.633   8.823  1.6917  0.1416 -2.7808
  159SAPE  C31717863   2.527   4.444   8.924 -0.4364  0.6507 -0.0293
  159SAPE  H17X17864   2.634   4.472   8.925  0.1942 -1.5453 -0.6968
  159SAPE  H17Y17865   2.519   4.341   8.882  1.2901 -0.3753  1.9846
  159SAPE  C31817866   2.456   4.449   9.057 -0.4939  0.6849  0.5906
  159SAPE  H18X17867   2.463   4.552   9.098  0.0695  1.4386 -1.2873
  159SAPE  H18Y17868   2.502   4.383   9.133 -1.9418 -1.0035  0.0742
  159SAPE  H18Z17869   2.348   4.424   9.051 -0.1171 -0.8951 -0.2708
  160SAPE     N17870   2.323   5.706   6.278  0.5191 -0.4048 -0.0969
  160SAPE   HN117871   2.415   5.718   6.326  0.3878  1.5198 -0.2413
  160SAPE   HN217872   2.328   5.718   6.175 -0.4221  2.0123  0.0710
  160SAPE   HN317873   2.264   5.777   6.326 -0.3016 -0.2193 -1.3334
  160SAPE   C1217874   2.257   5.569   6.297 -1.2020 -0.1910 -0.0758
  160SAPE  H12A17875   2.157   5.586   6.251 -0.8238 -0.2487 -0.9298
  160SAPE  H12B17876   2.238   5.544   6.404 -1.6731  1.2096  0.1955
  160SAPE   C1117877   2.332   5.462   6.220 -0.5128  0.7864 -0.5842
  160SAPE  H11A17878   2.348   5.484   6.112 -0.0487  0.1607 -0.6540
  160SAPE  H11B17879   2.267   5.373   6.207  1.7795 -1.0469 -0.3177
  160SAPE     P17880   2.452   5.327   6.420 -0.3114  0.2409  0.1188
  160SAPE   O1317881   2.370   5.207   6.390  0.5653 -0.1435 -0.1512
  160SAPE   O1417882   2.592   5.304   6.455  0.2593 -0.4297 -0.4370
  160SAPE   O1217883   2.456   5.422   6.289 -0.0003  0.6998  0.3232
  160SAPE   O1117884   2.377   5.410   6.531  0.1969  0.2858 -0.2927
  160SAPE    C117885   2.423   5.528   6.591  0.2211  0.1260 -0.5097
  160SAPE    HA17886   2.483   5.590   6.521  0.7253  0.9243  0.5847
  160SAPE    HB17887   2.339   5.597   6.616  0.8983  0.2910  1.5079
  160SAPE    C217888   2.497   5.511   6.730  0.2670 -0.0594  0.2947
  160SAPE    HS17889   2.578   5.446   6.692  0.7810  1.3570 -1.1519
  160SAPE   O2117890   2.410   5.450   6.828  0.0005 -0.7758  0.2813
  160SAPE   C2117891   2.410   5.315   6.832 -0.7618 -0.4895 -0.1124
  160SAPE   O2217892   2.479   5.245   6.757 -0.9431  0.1061 -0.2916
  160SAPE   C2217893   2.310   5.259   6.930 -0.3595  0.3017 -0.3117
  160SAPE   H2R17894   2.240   5.189   6.879  1.1460 -1.8716  0.4509
  160SAPE   H2S17895   2.373   5.185   6.984 -0.4509 -0.5511 -1.3239
  160SAPE    C317896   2.555   5.650   6.778  0.1347 -0.2582 -0.2320
  160SAPE    HX17897   2.475   5.727   6.770  1.0258  0.6076 -1.1236
  160SAPE    HY17898   2.634   5.689   6.709 -0.6652  0.4764 -0.7526
  160SAPE   O3117899   2.596   5.633   6.916  0.4716 -1.1414  0.1158
  160SAPE   C3117900   2.708   5.566   6.924 -0.5594 -0.5925 -0.2441
  160SAPE   O3217901   2.780   5.526   6.828  0.0071 -0.0852 -0.3284
  160SAPE   C3217902   2.737   5.537   7.076  0.4521 -0.2523 -0.1110
  160SAPE   H2X17903   2.823   5.600   7.108  0.9614 -0.9719 -0.0272
  160SAPE   H2Y17904   2.758   5.428   7.081 -0.6603 -0.5170 -0.9001
  160SAPE   C2317905   2.244   5.357   7.028 -0.2276  0.2143  0.3683
  160SAPE   H3R17906   2.176   5.414   6.961 -0.3131  0.1230  0.3779
  160SAPE   H3S17907   2.321   5.422   7.075  0.1360 -1.0585  1.5852
  160SAPE   C2417908   2.178   5.277   7.144 -0.0338 -0.5872 -0.4469
  160SAPE   H4R17909   2.258   5.223   7.200  0.0173  1.4550  1.6190
  160SAPE   H4S17910   2.101   5.207   7.105 -0.7845  0.5060 -0.9741
  160SAPE   C2517911   2.111   5.373   7.238 -0.6537 -0.6726  0.0062
  160SAPE   H5R17912   2.025   5.426   7.196 -0.2357  0.3800  0.4362
  160SAPE   C2617913   2.147   5.396   7.370 -0.0661  0.1476  0.4272
  160SAPE   H6R17914   2.095   5.476   7.426  1.4854  1.3892  0.1465
  160SAPE   C2717915   2.250   5.320   7.450 -0.6209 -0.1356  0.0108
  160SAPE   H7R17916   2.340   5.384   7.465  0.1725 -1.2535  0.1489
  160SAPE   H7S17917   2.290   5.235   7.390  0.2106 -0.4455  0.9730
  160SAPE   C2817918   2.204   5.261   7.586 -0.5105  0.2378  0.0284
  160SAPE   H8R17919   2.112   5.204   7.569 -0.7893  0.2140  1.4866
  160SAPE   C2917920   2.254   5.286   7.710  0.6408  0.2087 -0.1865
  160SAPE   H9R17921   2.209   5.225   7.790  1.4732 -0.9540 -0.5614
  160SAPE  C21017922   2.370   5.375   7.755  0.1160 -0.1655  0.2297
  160SAPE  H10R17923   2.363   5.484   7.734 -0.2405 -0.0820  0.7762
  160SAPE  H10S17924   2.468   5.344   7.711 -0.4796 -0.1500 -1.1577
  160SAPE  C21117925   2.411   5.358   7.896  0.1176  0.3089 -0.6710
  160SAPE  H11R17926   2.517   5.330   7.902 -0.1095 -0.3555  0.5744
  160SAPE  C21217927   2.336   5.371   8.011 -0.0283  0.4828  0.3620
  160SAPE  H12R17928   2.385   5.352   8.107  0.1839  1.9373  0.5661
  160SAPE  C21317929   2.192   5.413   8.014 -0.3569 -0.5625 -0.5463
  160SAPE  H13R17930   2.127   5.330   8.049 -0.3636 -0.4314 -0.2489
  160SAPE  H13S17931   2.142   5.432   7.916 -0.9113 -1.8573 -0.5400
  160SAPE  C21417932   2.179   5.536   8.107 -0.1675 -0.6760  1.1432
  160SAPE  H14R17933   2.219   5.634   8.076  1.2603 -0.8016  2.4383
  160SAPE  C21517934   2.133   5.518   8.230 -0.4394 -0.0558 -0.8323
  160SAPE  H15R17935   2.101   5.604   8.290  1.7842 -0.8937  1.7622
  160SAPE  C21617936   2.091   5.387   8.300  0.4707  0.2718  0.9607
  160SAPE  H16R17937   2.185   5.329   8.312  0.4480  0.1096  0.3797
  160SAPE  H16S17938   2.014   5.341   8.235  0.6553  0.4877  0.5877
  160SAPE  C21717939   2.036   5.405   8.445  0.3115  0.1043 -0.0357
  160SAPE  H17R17940   1.960   5.487   8.446 -0.9589 -1.0251 -0.7422
  160SAPE  H17S17941   2.116   5.455   8.504 -0.0339 -0.5015  0.9681
  160SAPE  C21817942   1.989   5.282   8.524  0.0218  0.0957 -0.0530
  160SAPE  H18R17943   2.069   5.206   8.511  2.1238  1.4245  3.3905
  160SAPE  H18S17944   1.891   5.248   8.486 -0.9726  1.4437  1.2046
  160SAPE  C21917945   1.977   5.301   8.678 -0.0168  0.1950  0.2851
  160SAPE  H19R17946   1.919   5.392   8.704  0.4567  1.3833 -2.4586
  160SAPE  H19S17947   2.080   5.315   8.717  1.7151  1.1632 -4.0471
  160SAPE  C22017948   1.915   5.176   8.747  0.6035  0.4301 -0.3029
  160SAPE  H20R17949   1.947   5.159   8.852 -0.6859  1.0555  0.2086
  160SAPE  H20S17950   1.939   5.090   8.681 -1.3468 -0.0928 -0.3839
  160SAPE  H20T17951   1.804   5.174   8.737  0.4453  1.0440  1.0979
  160SAPE   C3317952   2.617   5.553   7.177  0.2615 -0.0759  0.5090
  160SAPE   H3X17953   2.548   5.467   7.160  0.5862  0.1536 -2.3737
  160SAPE   H3Y17954   2.556   5.642   7.153 -1.5100 -1.0958  1.0062
  160SAPE   C3417955   2.648   5.575   7.326  0.5054  0.2241 -0.0297
  160SAPE   H4X17956   2.553   5.595   7.382  0.8865 -2.6441  1.8972
  160SAPE   H4Y17957   2.710   5.667   7.330 -0.4097  0.9823 -2.0290
  160SAPE   C3517958   2.725   5.467   7.393  0.3556  0.3363  0.8452
  160SAPE   H5X17959   2.826   5.460   7.348  0.7505  0.8705  1.6355
  160SAPE   H5Y17960   2.681   5.367   7.376  1.8749 -0.1442 -0.4125
  160SAPE   C3617961   2.752   5.493   7.541 -0.2487  0.8454 -0.1511
  160SAPE   H6X17962   2.657   5.538   7.576 -0.8675 -0.1764 -0.4557
  160SAPE   H6Y17963   2.814   5.584   7.555  0.1309  0.3496  1.7980
  160SAPE   C3717964   2.778   5.361   7.624 -0.0998  0.8058 -0.1290
  160SAPE   H7X17965   2.860   5.303   7.576 -0.0967  0.5459  0.1841
  160SAPE   H7Y17966   2.691   5.294   7.608  1.1299 -0.5545 -1.4889
  160SAPE   C3817967   2.813   5.388   7.773  0.2563  0.4461  0.8178
  160SAPE   H8X17968   2.715   5.413   7.821  0.1125  0.1479  0.6832
  160SAPE   H8Y17969   2.880   5.475   7.784  0.6341  0.0881  1.4168
  160SAPE   C3917970   2.875   5.259   7.834 -0.3793 -0.0963  0.0554
  160SAPE   H9X17971   2.942   5.220   7.755 -0.5420  1.3391 -0.8307
  160SAPE   H9Y17972   2.795   5.183   7.844  1.5898 -2.4219 -1.0149
  160SAPE  C31017973   2.946   5.279   7.962 -0.7133 -0.0811  0.1621
  160SAPE  H10X17974   3.031   5.348   7.942 -0.5373  0.2427  1.8333
  160SAPE  H10Y17975   2.995   5.182   7.985  0.3409 -0.0728 -1.8102
  160SAPE  C31117976   2.851   5.322   8.065 -0.5898  0.9766 -0.6540
  160SAPE  H11X17977   2.768   5.249   8.075  1.7477 -2.0300 -1.6441
  160SAPE  H11Y17978   2.816   5.425   8.041  0.6757  1.4441 -0.5677
  160SAPE  C31217979   2.927   5.333   8.201  0.7038 -0.0027 -0.5463
  160SAPE  H12X17980   3.012   5.404   8.191 -0.4830  1.3727 -1.4169
  160SAPE  H12Y17981   2.973   5.237   8.231 -0.0693 -0.0649  0.4986
  160SAPE  C31317982   2.840   5.393   8.309  0.2964 -0.4615 -0.0255
  160SAPE  H13X17983   2.736   5.354   8.304  0.6177 -1.5422  1.1721
  160SAPE  H13Y17984   2.849   5.503   8.301  0.7891 -0.5462 -0.8360
  160SAPE  C31417985   2.892   5.346   8.445 -0.0350 -0.1817  0.9883
  160SAPE  H14X17986   3.001   5.364   8.458  0.3067  1.3331 -2.7853
  160SAPE  H14Y17987   2.876   5.236   8.451 -3.6483  0.1378 -0.2539
  160SAPE  C31517988   2.809   5.412   8.558 -0.3569 -0.1987 -0.2199
  160SAPE  H15X17989   2.710   5.362   8.569 -0.3624 -0.3085 -0.7655
  160SAPE  H15Y17990   2.781   5.515   8.528 -0.1655 -0.3719 -1.0150
  160SAPE  C31617991   2.879   5.425   8.697 -0.0452  1.1040 -0.3381
  160SAPE  H16X17992   2.873   5.321   8.737 -1.4528  0.3045 -2.4592
  160SAPE  H16Y17993   2.816   5.489   8.763  1.0908  2.0626 -0.1375
  160SAPE  C31717994   3.017   5.484   8.685 -0.0658  0.2015  0.2604
  160SAPE  H17X17995   3.093   5.411   8.651 -1.2839  0.2272 -2.8552
  160SAPE  H17Y17996   3.046   5.497   8.792  1.3760  2.3441 -0.3364
  160SAPE  C31817997   3.030   5.614   8.612 -0.0390 -0.0818  1.2077
  160SAPE  H18X17998   3.030   5.600   8.502  0.2036  0.2018  1.1696
  160SAPE  H18Y17999   3.124   5.671   8.625  0.4346 -0.4153 -0.4706
  160SAPE  H18Z18000   2.953   5.691   8.635  0.5296  0.3084  1.8277
  161SAPE     N18001   5.041   1.411   6.205 -0.3194 -0.3079 -0.7928
  161SAPE   HN118002   5.060   1.401   6.307  2.1053  1.0717 -1.0368
  161SAPE   HN218003   4.940   1.430   6.190 -1.0614 -1.6105  1.8874
  161SAPE   HN318004   5.071   1.320   6.164  0.3787 -0.4823  0.0831
  161SAPE   C1218005   5.115   1.534   6.146  0.1894  0.1810  0.1859
  161SAPE  H12A18006   5.178   1.496   6.062 -3.0831 -2.8609 -1.1636
  161SAPE  H12B18007   5.175   1.572   6.231  1.8450 -1.9986  0.0874
  161SAPE   C1118008   5.013   1.627   6.082  0.0411 -0.4792 -0.8670
  161SAPE  H11A18009   4.964   1.569   6.001  0.5068  0.5959 -1.9678
  161SAPE  H11B18010   5.063   1.715   6.035 -0.3834  1.2723  1.7477
  161SAPE     P18011   4.910   1.817   6.233 -0.6339 -0.0334  0.0053
  161SAPE   O1318012   4.926   1.907   6.114 -0.3160  0.4332 -0.0698
  161SAPE   O1418013   4.788   1.839   6.312 -0.4696 -0.2694  0.5366
  161SAPE   O1218014   4.916   1.664   6.176 -0.0103 -0.5683 -0.0763
  161SAPE   O1118015   5.036   1.826   6.325 -0.0849  0.2430  0.2514
  161SAPE    C118016   5.041   1.774   6.458  1.0268  0.2551  0.1577
  161SAPE    HA18017   4.967   1.812   6.532 -1.4465 -1.8331 -1.0958
  161SAPE    HB18018   5.036   1.664   6.449  1.6838  0.2827 -0.5932
  161SAPE    C218019   5.174   1.805   6.524 -0.2103  0.4285 -0.6663
  161SAPE    HS18020   5.169   1.750   6.620  0.9978  0.3414 -0.6348
  161SAPE   O2118021   5.201   1.942   6.538 -0.4388  0.0109 -0.4360
  161SAPE   C2118022   5.148   1.997   6.641  0.5634 -1.0207 -0.6113
  161SAPE   O2218023   5.089   1.942   6.735  0.1706  0.2529  0.1440
  161SAPE   C2218024   5.164   2.151   6.631 -0.2316  0.2048 -0.5615
  161SAPE   H2R18025   5.105   2.184   6.543  1.2271 -0.2858 -1.7648
  161SAPE   H2S18026   5.104   2.186   6.718  1.5710  2.5578 -0.1627
  161SAPE    C318027   5.296   1.747   6.443  0.6948 -1.1552  0.5753
  161SAPE    HX18028   5.289   1.788   6.340 -1.5918 -1.7892  0.4273
  161SAPE    HY18029   5.277   1.638   6.433  0.8741 -1.2816  1.5083
  161SAPE   O3118030   5.430   1.770   6.495 -0.0735 -0.4028  0.1397
  161SAPE   C3118031   5.450   1.695   6.601  0.5620  0.5204 -0.3789
  161SAPE   O3218032   5.364   1.615   6.645  0.4016 -0.1526 -0.0921
  161SAPE   C3218033   5.589   1.734   6.664 -0.2082 -0.1716 -0.3428
  161SAPE   H2X18034   5.571   1.840   6.691 -3.6966 -0.6869 -0.1646
  161SAPE   H2Y18035   5.667   1.730   6.585 -0.7038  1.2068 -0.9330
  161SAPE   C2318036   5.306   2.198   6.618  0.0063 -0.2943 -0.2838
  161SAPE   H3R18037   5.298   2.292   6.561  0.4005 -0.4399 -0.5853
  161SAPE   H3S18038   5.352   2.125   6.548  0.1687  1.3505 -1.9529
  161SAPE   C2418039   5.385   2.205   6.746 -0.1608  0.6651  0.2927
  161SAPE   H4R18040   5.316   2.253   6.818 -0.8128 -0.2055  0.2587
  161SAPE   H4S18041   5.472   2.273   6.734  1.4503 -1.5271 -1.5304
  161SAPE   C2518042   5.444   2.080   6.787  0.1150 -0.5371  1.1851
  161SAPE   H5R18043   5.473   2.025   6.696 -1.0893  0.3792  0.2048
  161SAPE   C2618044   5.478   2.033   6.907 -0.0955 -0.0546  0.1109
  161SAPE   H6R18045   5.512   1.929   6.912  0.0667  0.0048  0.2535
  161SAPE   C2718046   5.452   2.093   7.041 -0.0113 -0.7297  0.3038
  161SAPE   H7R18047   5.375   2.042   7.103  1.8585 -2.9107  1.0093
  161SAPE   H7S18048   5.415   2.197   7.038  1.0522 -0.2575  2.0374
  161SAPE   C2818049   5.584   2.095   7.115  0.0284 -0.2587 -0.4559
  161SAPE   H8R18050   5.675   2.124   7.059  1.4370  1.5924  2.5333
  161SAPE   C2918051   5.614   2.040   7.234 -0.1349  0.5478  0.2512
  161SAPE   H9R18052   5.718   2.045   7.270  0.3392  0.9202 -1.1052
  161SAPE  C21018053   5.513   1.968   7.325 -0.0742 -0.6491 -0.0468
  161SAPE  H10R18054   5.445   1.898   7.272  0.4828 -0.9979 -0.3016
  161SAPE  H10S18055   5.439   2.045   7.358 -0.0567  0.7377 -2.9460
  161SAPE  C21118056   5.586   1.893   7.437 -0.1624 -0.2874 -0.4775
  161SAPE  H11R18057   5.600   1.786   7.419 -0.8249 -0.6891  1.2083
  161SAPE  C21218058   5.621   1.961   7.549 -0.3163  0.5588 -0.3054
  161SAPE  H12R18059   5.673   1.907   7.629  0.6230  0.0683 -1.2433
  161SAPE  C21318060   5.578   2.103   7.582 -0.0685 -0.2002  0.4702
  161SAPE  H13R18061   5.482   2.138   7.539  0.5710 -0.4889 -1.2857
  161SAPE  H13S18062   5.663   2.169   7.553  0.0504 -0.0891  1.0569
  161SAPE  C21418063   5.571   2.113   7.726 -0.5711  0.3421  0.4715
  161SAPE  H14R18064   5.473   2.087   7.769 -0.7827  0.4629  0.0709
  161SAPE  C21518065   5.673   2.141   7.803 -0.1343  0.0945  0.1482
  161SAPE  H15R18066   5.657   2.128   7.911 -1.2226  1.1500  0.1264
  161SAPE  C21618067   5.813   2.164   7.754  0.2691 -0.2698  0.3881
  161SAPE  H16R18068   5.830   2.228   7.665  1.9377 -1.0805  0.0703
  161SAPE  H16S18069   5.852   2.062   7.732 -2.2925 -1.2192 -0.1068
  161SAPE  C21718070   5.913   2.222   7.858 -0.2196 -0.1845  0.2724
  161SAPE  H17R18071   5.915   2.155   7.947  1.1823 -0.6312 -0.0654
  161SAPE  H17S18072   5.892   2.328   7.885 -1.7889 -0.6787  1.1532
  161SAPE  C21818073   6.063   2.231   7.811 -0.7926  0.3301  0.3503
  161SAPE  H18R18074   6.067   2.309   7.731 -0.5717  0.7830  0.7939
  161SAPE  H18S18075   6.086   2.135   7.762  0.3025  1.4362 -1.4344
  161SAPE  C21918076   6.162   2.264   7.923  0.3811  0.7305 -0.1561
  161SAPE  H19R18077   6.163   2.186   8.002  1.7363  1.8943  1.0195
  161SAPE  H19S18078   6.112   2.354   7.964 -0.8724  0.1108 -0.2824
  161SAPE  C22018079   6.304   2.277   7.879 -0.1000 -0.0601  0.1802
  161SAPE  H20R18080   6.299   2.364   7.810  0.6388 -1.9979 -2.4979
  161SAPE  H20S18081   6.346   2.185   7.831 -3.6990 -0.9607 -1.6121
  161SAPE  H20T18082   6.363   2.306   7.968 -1.8760 -0.4646  1.5396
  161SAPE   C3318083   5.628   1.657   6.783 -0.2438 -0.4286 -0.1439
  161SAPE   H3X18084   5.665   1.560   6.743 -1.4207 -0.0465 -2.3073
  161SAPE   H3Y18085   5.543   1.642   6.854 -0.5694 -0.5613 -0.5584
  161SAPE   C3418086   5.745   1.725   6.870 -0.4200  0.4090  0.1238
  161SAPE   H4X18087   5.712   1.819   6.919 -0.7545  0.8829 -0.9823
  161SAPE   H4Y18088   5.827   1.744   6.798 -0.7294 -0.3962 -0.4607
  161SAPE   C3518089   5.814   1.623   6.969  0.5135  0.3213  0.3642
  161SAPE   H5X18090   5.917   1.657   6.991  0.8840 -1.1659  1.0872
  161SAPE   H5Y18091   5.838   1.531   6.910  3.2375  0.3593  1.2711
  161SAPE   C3618092   5.742   1.619   7.101  0.2657  0.2156  0.4852
  161SAPE   H6X18093   5.644   1.569   7.089 -0.5202  1.7680  0.1429
  161SAPE   H6Y18094   5.707   1.720   7.131 -0.0773  0.4351 -0.6250
  161SAPE   C3718095   5.820   1.542   7.210 -0.2306 -0.1376 -0.3347
  161SAPE   H7X18096   5.924   1.580   7.207 -0.0368 -0.3742  1.8266
  161SAPE   H7Y18097   5.825   1.434   7.182 -1.2854 -0.3958  0.3978
  161SAPE   C3818098   5.774   1.579   7.352 -0.4444  0.5426  0.3539
  161SAPE   H8X18099   5.769   1.690   7.352  0.3208  0.6262 -1.6838
  161SAPE   H8Y18100   5.861   1.557   7.417 -0.1896  0.1670 -0.1100
  161SAPE   C3918101   5.652   1.503   7.385  0.2466  0.2733 -0.3752
  161SAPE   H9X18102   5.659   1.393   7.371  0.1468 -0.1713  2.4978
  161SAPE   H9Y18103   5.562   1.531   7.326 -0.1713 -1.8678 -0.8618
  161SAPE  C31018104   5.621   1.531   7.535 -0.1254 -0.6608 -0.0097
  161SAPE  H10X18105   5.581   1.633   7.555  3.2998  0.8082  0.0149
  161SAPE  H10Y18106   5.713   1.526   7.597  0.7460  1.4237 -1.0495
  161SAPE  C31118107   5.520   1.430   7.599  0.3465  0.5255  0.2205
  161SAPE  H11X18108   5.528   1.330   7.552 -1.9874  0.8045 -0.8933
  161SAPE  H11Y18109   5.416   1.464   7.581 -0.3595 -0.9524  1.2380
  161SAPE  C31218110   5.534   1.426   7.758  1.0526  0.4721 -0.0949
  161SAPE  H12X18111   5.539   1.525   7.808  0.6079 -0.1648  1.2577
  161SAPE  H12Y18112   5.634   1.385   7.783  0.9553 -0.0940 -0.6096
  161SAPE  C31318113   5.425   1.343   7.836  0.7865  0.3388  0.4222
  161SAPE  H13X18114   5.452   1.236   7.832  0.1864  0.2304 -1.5539
  161SAPE  H13Y18115   5.341   1.351   7.764  0.8566  1.6532  0.4517
  161SAPE  C31418116   5.385   1.395   7.983  0.4623 -0.1358  0.0612
  161SAPE  H14X18117   5.341   1.495   7.965  1.5476  0.1918 -0.9285
  161SAPE  H14Y18118   5.478   1.400   8.044 -0.0194 -1.3937  0.9344
  161SAPE  C31518119   5.269   1.322   8.058  0.5443 -0.4328 -0.3534
  161SAPE  H15X18120   5.291   1.213   8.063  1.6768 -0.2284 -0.4958
  161SAPE  H15Y18121   5.172   1.335   8.006  1.0891  0.4804 -1.1720
  161SAPE  C31618122   5.255   1.375   8.204  0.0719 -0.1264 -0.2447
  161SAPE  H16X18123   5.245   1.485   8.217  0.2562 -0.1567  0.1777
  161SAPE  H16Y18124   5.351   1.348   8.252  0.8976  0.9087 -1.2577
  161SAPE  C31718125   5.136   1.312   8.273  0.0020 -0.4652  0.6766
  161SAPE  H17X18126   5.138   1.203   8.255  2.8221 -0.0555 -2.2448
  161SAPE  H17Y18127   5.048   1.367   8.232  0.0775 -0.4661  0.5127
  161SAPE  C31818128   5.140   1.338   8.420 -0.0396 -0.2701  0.1673
  161SAPE  H18X18129   5.233   1.290   8.458 -0.5897 -2.5669 -1.1327
  161SAPE  H18Y18130   5.059   1.280   8.468 -0.9038 -0.5683 -1.5556
  161SAPE  H18Z18131   5.139   1.447   8.440  1.7141  0.0454 -1.1948
  162SAPE     N18132   1.915   6.294   5.716  0.1013  0.5348 -0.6476
  162SAPE   HN118133   1.952   6.200   5.694  0.6204  0.9678 -1.7108
  162SAPE   HN218134   1.813   6.290   5.692  0.3855 -1.7949 -1.7372
  162SAPE   HN318135   1.958   6.375   5.666  1.6213  0.3426  0.3004
  162SAPE   C1218136   1.940   6.313   5.859 -0.6733  0.5948  0.3170
  162SAPE  H12A18137   2.049   6.322   5.876 -0.2383  2.7539 -2.8139
  162SAPE  H12B18138   1.907   6.225   5.918 -0.3463  2.1592  2.9969
  162SAPE   C1118139   1.844   6.428   5.908 -0.1227 -0.3721 -0.5149
  162SAPE  H11A18140   1.880   6.518   5.853 -0.2694 -0.6709 -1.1135
  162SAPE  H11B18141   1.858   6.447   6.016  1.7378  0.1430 -0.8063
  162SAPE     P18142   1.613   6.314   5.953  0.3872 -0.0154 -0.4802
  162SAPE   O1318143   1.479   6.326   5.891  0.4093  0.3915 -0.2833
  162SAPE   O1418144   1.671   6.181   5.948  0.3452  0.0177  0.1514
  162SAPE   O1218145   1.710   6.401   5.871  0.0714 -0.4544 -0.0827
  162SAPE   O1118146   1.607   6.365   6.104  0.0553  0.2938 -0.4826
  162SAPE    C118147   1.586   6.507   6.124  0.2363  0.4187  0.3956
  162SAPE    HA18148   1.671   6.566   6.085  0.4159  0.4582  0.8464
  162SAPE    HB18149   1.486   6.547   6.095  0.5582 -0.7790 -2.7455
  162SAPE    C218150   1.587   6.529   6.284 -1.1490 -0.0053  0.2403
  162SAPE    HS18151   1.581   6.638   6.308  2.4412  0.1173  1.3024
  162SAPE   O2118152   1.711   6.481   6.347  0.2466 -0.6886  0.0988
  162SAPE   C2118153   1.821   6.539   6.317 -0.0828  0.0320  0.4246
  162SAPE   O2218154   1.834   6.635   6.243  0.1677 -0.2770  0.0526
  162SAPE   C2218155   1.943   6.482   6.384 -0.9426  0.3997  0.0870
  162SAPE   H2R18156   1.917   6.412   6.466  0.1254 -0.2664 -0.1214
  162SAPE   H2S18157   1.989   6.423   6.302  0.8277  0.6262  0.8601
  162SAPE    C318158   1.474   6.454   6.350 -0.3512 -0.0346 -0.6371
  162SAPE    HX18159   1.477   6.348   6.318 -0.3840 -0.0704 -0.5234
  162SAPE    HY18160   1.381   6.495   6.305 -0.3819  0.5033 -0.1038
  162SAPE   O3118161   1.480   6.480   6.492  0.2627  0.3483 -0.1503
  162SAPE   C3118162   1.506   6.372   6.565  0.5330 -0.4721 -0.4718
  162SAPE   O3218163   1.532   6.265   6.519 -0.3694  0.4750  0.2952
  162SAPE   C3218164   1.496   6.407   6.708 -0.0377  0.0876 -0.0577
  162SAPE   H2X18165   1.545   6.325   6.766  0.0934 -0.3154 -0.7295
  162SAPE   H2Y18166   1.387   6.398   6.728 -0.1782  0.5374 -0.6327
  162SAPE   C2318167   2.036   6.592   6.443  0.3172 -0.2138  0.6782
  162SAPE   H3R18168   2.059   6.673   6.370  0.4269  0.2164  1.1896
  162SAPE   H3S18169   2.126   6.532   6.469 -0.0155 -1.2768 -0.4671
  162SAPE   C2418170   1.990   6.654   6.574 -0.4047  0.2826  0.4523
  162SAPE   H4R18171   1.976   6.569   6.645 -0.8784  0.1441  0.2005
  162SAPE   H4S18172   1.887   6.697   6.572  0.3594  2.2145 -0.0506
  162SAPE   C2518173   2.076   6.768   6.625 -0.0894  0.5509  0.0097
  162SAPE   H5R18174   2.103   6.843   6.550  1.0124 -1.0395 -1.2618
  162SAPE   C2618175   2.127   6.784   6.749  0.2051 -0.8989  0.1980
  162SAPE   H6R18176   2.188   6.873   6.769 -0.8686 -0.1584  0.3147
  162SAPE   C2718177   2.100   6.699   6.872  0.0927 -0.3171 -0.4255
  162SAPE   H7R18178   2.195   6.661   6.917  1.0139 -0.7064 -2.5716
  162SAPE   H7S18179   2.050   6.602   6.849  0.3471 -0.8544  1.1444
  162SAPE   C2818180   2.010   6.773   6.969  0.1732 -0.1614 -0.4538
  162SAPE   H8R18181   1.930   6.830   6.921  0.7927  0.9575 -0.2062
  162SAPE   C2918182   2.021   6.787   7.106 -0.3924  0.8043 -0.2637
  162SAPE   H9R18183   1.933   6.837   7.151 -1.9290 -1.3590 -0.7108
  162SAPE  C21018184   2.125   6.719   7.195 -0.4899 -0.5272 -0.1046
  162SAPE  H10R18185   2.194   6.661   7.131 -0.3745 -1.5271  0.8997
  162SAPE  H10S18186   2.065   6.646   7.253 -0.4102 -2.3337 -2.1760
  162SAPE  C21118187   2.198   6.813   7.281 -0.7711  0.5203  0.3471
  162SAPE  H11R18188   2.231   6.904   7.228 -1.5721 -0.3025 -1.6243
  162SAPE  C21218189   2.223   6.804   7.414 -0.0812 -0.7092  0.0643
  162SAPE  H12R18190   2.289   6.881   7.458  1.1169 -0.7917 -1.5355
  162SAPE  C21318191   2.179   6.697   7.510  0.1533 -0.6275 -0.3233
  162SAPE  H13R18192   2.164   6.600   7.460  0.3402 -0.9862  0.3005
  162SAPE  H13S18193   2.077   6.723   7.547  1.4322  3.7716  0.7455
  162SAPE  C21418194   2.265   6.661   7.624 -0.1834  0.4406 -0.4506
  162SAPE  H14R18195   2.368   6.629   7.600  1.1116  2.0967  2.3487
  162SAPE  C21518196   2.249   6.680   7.752  0.7166 -0.5295  0.0958
  162SAPE  H15R18197   2.330   6.641   7.815  0.7648 -0.6408 -0.0366
  162SAPE  C21618198   2.143   6.743   7.834 -0.2895  0.2088 -0.1090
  162SAPE  H16R18199   2.114   6.674   7.917  0.1404  0.8330  0.5711
  162SAPE  H16S18200   2.046   6.757   7.781 -0.2271 -0.7036 -0.4704
  162SAPE  C21718201   2.182   6.880   7.890  0.2598  0.5311 -0.5136
  162SAPE  H17R18202   2.180   6.952   7.806  0.0015 -1.2189 -2.0607
  162SAPE  H17S18203   2.287   6.871   7.925  0.6016  0.6194 -1.4927
  162SAPE  C21818204   2.085   6.937   7.995 -0.1834  0.6978  0.1118
  162SAPE  H18R18205   2.088   6.862   8.078  0.0951  1.9286  1.2451
  162SAPE  H18S18206   1.983   6.934   7.953 -0.2466 -1.2380  0.2986
  162SAPE  C21918207   2.115   7.075   8.047 -1.0508 -0.3593 -0.1286
  162SAPE  H19R18208   2.128   7.144   7.962  0.9172  1.7989  1.7726
  162SAPE  H19S18209   2.214   7.070   8.098 -1.8200 -1.8886  1.3322
  162SAPE  C22018210   2.015   7.127   8.146 -0.2454  0.2670 -0.1700
  162SAPE  H20R18211   2.030   7.058   8.231  2.6561  0.8931 -0.0859
  162SAPE  H20S18212   1.915   7.108   8.101  0.4140 -0.2563 -1.4748
  162SAPE  H20T18213   2.031   7.233   8.176  1.9009 -0.5066  1.6596
  162SAPE   C3318214   1.552   6.543   6.733 -0.1566 -0.6649 -0.6147
  162SAPE   H3X18215   1.484   6.626   6.703 -2.1597 -2.0994 -0.2373
  162SAPE   H3Y18216   1.646   6.560   6.676  0.4044 -0.5325  0.3315
  162SAPE   C3418217   1.579   6.581   6.877  0.2799  0.5622  0.6095
  162SAPE   H4X18218   1.477   6.588   6.920 -0.4285  1.2393 -1.0856
  162SAPE   H4Y18219   1.615   6.686   6.876  0.1926  0.5948 -0.1863
  162SAPE   C3518220   1.670   6.490   6.956  0.0424  0.3220 -0.4603
  162SAPE   H5X18221   1.774   6.502   6.918  0.5829  0.6207  1.0326
  162SAPE   H5Y18222   1.633   6.386   6.941  0.3916  0.3582 -1.6567
  162SAPE   C3618223   1.651   6.524   7.107 -0.8995  0.4892  0.1978
  162SAPE   H6X18224   1.549   6.501   7.145 -0.7085  0.8081  0.9359
  162SAPE   H6Y18225   1.655   6.633   7.124  1.1403  0.4442  0.3395
  162SAPE   C3718226   1.759   6.457   7.204 -0.0616  0.1352  0.0071
  162SAPE   H7X18227   1.859   6.491   7.170  0.6161 -1.0613  0.7223
  162SAPE   H7Y18228   1.766   6.346   7.206 -0.3194  0.0882 -1.1147
  162SAPE   C3818229   1.733   6.497   7.355 -0.1787  0.7522  0.7204
  162SAPE   H8X18230   1.644   6.439   7.386 -0.5379  0.1139 -1.3725
  162SAPE   H8Y18231   1.705   6.604   7.364  0.9150  1.2193 -1.0929
  162SAPE   C3918232   1.836   6.453   7.458  0.2455  0.7201 -0.2753
  162SAPE   H9X18233   1.938   6.482   7.424  0.9790 -0.0387  1.2003
  162SAPE   H9Y18234   1.838   6.342   7.456  1.5803  0.7305 -1.3050
  162SAPE  C31018235   1.816   6.499   7.600 -0.5579 -0.1990 -0.1293
  162SAPE  H10X18236   1.715   6.476   7.641 -0.0401 -1.9725  0.2612
  162SAPE  H10Y18237   1.832   6.609   7.600  1.2990 -0.4376 -0.4472
  162SAPE  C31118238   1.908   6.443   7.710  0.1437  0.4150  0.1736
  162SAPE  H11X18239   2.013   6.472   7.690  0.0735 -0.1308 -1.0479
  162SAPE  H11Y18240   1.904   6.332   7.709  1.3790  0.3554  0.4078
  162SAPE  C31218241   1.864   6.485   7.854 -0.2911  0.3188 -0.2664
  162SAPE  H12X18242   1.757   6.462   7.872  0.1322 -1.0280  0.6906
  162SAPE  H12Y18243   1.875   6.595   7.853 -0.1663  0.3218  0.7956
  162SAPE  C31318244   1.963   6.435   7.965  0.4791  0.5936 -0.3732
  162SAPE  H13X18245   2.067   6.455   7.932  0.0893  1.2144 -1.2736
  162SAPE  H13Y18246   1.969   6.326   7.988  1.7666  0.4374 -1.3234
  162SAPE  C31418247   1.932   6.506   8.089  0.3322  0.5837  0.2367
  162SAPE  H14X18248   1.825   6.520   8.112  0.1097 -0.2435 -0.2425
  162SAPE  H14Y18249   1.980   6.604   8.068  0.1961  0.8328  1.0493
  162SAPE  C31518250   2.002   6.436   8.208  0.0428  0.5985  0.6992
  162SAPE  H15X18251   1.992   6.507   8.293  1.5260 -0.4237  1.7852
  162SAPE  H15Y18252   2.109   6.418   8.183 -0.7771 -1.4335 -1.7586
  162SAPE  C31618253   1.934   6.302   8.247  0.3658 -0.3720  0.5231
  162SAPE  H16X18254   1.950   6.223   8.171  0.4900 -0.2150  0.3858
  162SAPE  H16Y18255   1.824   6.313   8.255  0.6094  1.0261  2.6823
  162SAPE  C31718256   1.975   6.253   8.382  0.0164 -0.6430  1.0035
  162SAPE  H17X18257   1.955   6.324   8.466 -1.3154  0.2854 -0.0541
  162SAPE  H17Y18258   2.083   6.232   8.369  0.4719  2.1986 -0.7174
  162SAPE  C31818259   1.900   6.123   8.413  0.7739 -0.1656 -0.6971
  162SAPE  H18X18260   1.875   6.070   8.318  2.6013 -0.3443 -1.1096
  162SAPE  H18Y18261   1.808   6.130   8.475  1.3661  1.1917  0.0552
  162SAPE  H18Z18262   1.964   6.057   8.474  2.2879  0.2556 -1.7654
  163SAPE     N18263   2.147   5.128   6.515 -1.1759 -0.1311 -0.6926
  163SAPE   HN118264   2.233   5.158   6.465 -0.9371  1.1115  0.4164
  163SAPE   HN218265   2.182   5.057   6.584  1.9296  0.5154 -1.4293
  163SAPE   HN318266   2.091   5.070   6.450  0.4712  2.0794 -4.3702
  163SAPE   C1218267   2.075   5.241   6.581  0.4156 -0.2179  0.0647
  163SAPE  H12A18268   2.049   5.315   6.502 -0.7750 -0.0806  0.5745
  163SAPE  H12B18269   2.146   5.290   6.651  1.2653  0.3655 -1.1764
  163SAPE   C1118270   1.947   5.186   6.648  0.2088  0.2812  0.8506
  163SAPE  H11A18271   1.902   5.271   6.705 -0.2002 -0.8274  2.2453
  163SAPE  H11B18272   1.973   5.108   6.722 -0.8390 -0.2775  0.6466
  163SAPE     P18273   1.709   5.159   6.527  0.0865 -0.0298 -0.2679
  163SAPE   O1318274   1.681   5.207   6.388 -0.5198 -0.4309 -0.0303
  163SAPE   O1418275   1.630   5.040   6.576 -0.2510 -0.2704  0.2913
  163SAPE   O1218276   1.868   5.132   6.540  0.2036  0.1449  0.1165
  163SAPE   O1118277   1.678   5.278   6.623 -0.2439 -0.1308  0.2477
  163SAPE    C118278   1.551   5.315   6.666  0.2903  0.0299  0.5954
  163SAPE    HA18279   1.520   5.405   6.610  1.6239  0.4249  0.4785
  163SAPE    HB18280   1.479   5.235   6.637  3.0607 -0.6116 -6.1752
  163SAPE    C218281   1.544   5.351   6.815  0.4115 -0.3581 -0.8379
  163SAPE    HS18282   1.440   5.378   6.841  0.2115 -1.5393 -0.3464
  163SAPE   O2118283   1.647   5.451   6.848  0.4873  0.0773 -0.0297
  163SAPE   C2118284   1.600   5.574   6.845 -0.7347 -0.1901 -1.1776
  163SAPE   O2218285   1.486   5.608   6.814  0.3136  0.3901 -0.0933
  163SAPE   C2218286   1.712   5.672   6.893 -0.2909  0.0836 -0.6370
  163SAPE   H2R18287   1.810   5.622   6.908 -0.1007  0.1383 -1.6498
  163SAPE   H2S18288   1.729   5.748   6.813  1.4835 -1.4137 -1.7769
  163SAPE    C318289   1.575   5.215   6.886 -1.1517 -1.0403 -0.1619
  163SAPE    HX18290   1.676   5.184   6.853  0.1367 -1.6044  3.7378
  163SAPE    HY18291   1.495   5.141   6.862 -0.3810 -2.1616  0.6322
  163SAPE   O3118292   1.565   5.227   7.029 -0.6190 -0.2461  0.0580
  163SAPE   C3118293   1.665   5.215   7.114  0.5087  0.4921 -0.5026
  163SAPE   O3218294   1.776   5.171   7.090  0.1442 -0.0215  0.0189
  163SAPE   C3218295   1.633   5.264   7.256  0.3707  0.8240 -0.3804
  163SAPE   H2X18296   1.566   5.352   7.256 -1.3321 -0.4217  0.1612
  163SAPE   H2Y18297   1.736   5.289   7.289  0.4731  0.8466 -0.7091
  163SAPE   C2318298   1.677   5.731   7.031  0.1312 -0.2231  0.5844
  163SAPE   H3R18299   1.597   5.808   7.024  1.1821  1.0413  1.6606
  163SAPE   H3S18300   1.764   5.788   7.071 -2.8027  4.4661  1.0824
  163SAPE   C2418301   1.645   5.630   7.141  0.1332  0.5858  0.5168
  163SAPE   H4R18302   1.733   5.562   7.135 -1.6175 -1.6487 -1.7487
  163SAPE   H4S18303   1.558   5.567   7.114 -0.6145  0.4133  3.1081
  163SAPE   C2518304   1.612   5.685   7.275 -0.0259 -0.3350 -0.6662
  163SAPE   H5R18305   1.533   5.761   7.268 -1.1046 -1.3052  0.5891
  163SAPE   C2618306   1.661   5.657   7.394  0.2716 -0.5207  0.2745
  163SAPE   H6R18307   1.616   5.707   7.481  0.9362 -4.4671  3.1468
  163SAPE   C2718308   1.768   5.555   7.427 -0.6094  0.4962 -0.3903
  163SAPE   H7R18309   1.834   5.551   7.337  2.8561  1.8582  1.8716
  163SAPE   H7S18310   1.731   5.453   7.450  2.9200 -0.7262  0.5797
  163SAPE   C2818311   1.863   5.600   7.533 -0.1234  0.6438  0.5012
  163SAPE   H8R18312   1.944   5.663   7.492  0.5006 -0.9661 -0.8591
  163SAPE   C2918313   1.870   5.562   7.662  0.9339 -0.2630  0.1314
  163SAPE   H9R18314   1.947   5.603   7.729  3.2202 -2.7811 -0.7833
  163SAPE  C21018315   1.780   5.458   7.725  0.2853 -0.2377 -0.1163
  163SAPE  H10R18316   1.825   5.361   7.695  1.1056 -0.2957  1.2165
  163SAPE  H10S18317   1.675   5.467   7.689 -0.4878  1.8501  2.3750
  163SAPE  C21118318   1.776   5.470   7.875  0.5134 -1.2640  0.6692
  163SAPE  H11R18319   1.738   5.561   7.924  0.7884 -1.4863  1.3008
  163SAPE  C21218320   1.814   5.379   7.967 -0.6746  0.4827  0.0205
  163SAPE  H12R18321   1.790   5.406   8.071 -1.6900  2.2906 -0.6384
  163SAPE  C21318322   1.865   5.236   7.948  0.1047 -0.0999  0.4827
  163SAPE  H13R18323   1.918   5.204   8.041  0.0126  1.7310  1.2122
  163SAPE  H13S18324   1.953   5.239   7.880 -0.2523  0.4844  0.0286
  163SAPE  C21418325   1.755   5.133   7.921 -0.1110  0.1232 -0.5164
  163SAPE  H14R18326   1.662   5.148   7.979  0.2182 -0.9013  0.3159
  163SAPE  C21518327   1.770   5.018   7.851 -0.4505  1.0807 -1.1603
  163SAPE  H15R18328   1.691   4.941   7.853  0.8986 -0.3353 -1.1225
  163SAPE  C21618329   1.897   4.969   7.783 -0.0983  0.2532 -0.9667
  163SAPE  H16R18330   1.910   4.862   7.808 -0.7898 -0.4264 -3.2552
  163SAPE  H16S18331   1.972   5.038   7.827 -1.2953  0.5245  0.7307
  163SAPE  C21718332   1.893   4.971   7.633 -0.3061  0.3086 -0.7142
  163SAPE  H17R18333   1.895   5.078   7.603 -1.2382 -0.1714 -2.6187
  163SAPE  H17S18334   1.806   4.921   7.585 -0.0634 -1.4740  0.6035
  163SAPE  C21818335   2.016   4.907   7.575 -0.2380 -0.0613  0.4120
  163SAPE  H18R18336   2.023   4.808   7.626 -2.2617  0.1944  1.2579
  163SAPE  H18S18337   2.097   4.975   7.609 -0.7101  1.0149 -0.5565
  163SAPE  C21918338   2.015   4.876   7.421  0.5850  0.4568 -0.2908
  163SAPE  H19R18339   1.923   4.816   7.409  1.0143 -0.6887  1.6695
  163SAPE  H19S18340   2.106   4.813   7.406  0.5244  0.5690 -1.1851
  163SAPE  C22018341   2.026   5.001   7.332 -0.4408 -0.3415 -0.0764
  163SAPE  H20R18342   2.103   5.075   7.362 -1.8149  0.7701  0.8531
  163SAPE  H20S18343   1.925   5.046   7.337  0.2745  1.2065  1.5416
  163SAPE  H20T18344   2.043   4.966   7.228  1.8110  0.1649  0.0602
  163SAPE   C3318345   1.568   5.149   7.344  0.9715 -0.1417 -0.1764
  163SAPE   H3X18346   1.636   5.063   7.365  1.8711  0.2174 -1.4586
  163SAPE   H3Y18347   1.476   5.118   7.289 -0.2431 -0.4162  1.9299
  163SAPE   C3418348   1.513   5.212   7.478  0.4284 -0.7922  0.5904
  163SAPE   H4X18349   1.423   5.269   7.446  0.5665 -1.3868 -0.9783
  163SAPE   H4Y18350   1.586   5.277   7.530  0.8584  0.5940 -1.6024
  163SAPE   C3518351   1.467   5.103   7.578  0.1074 -0.2190  0.6375
  163SAPE   H5X18352   1.556   5.047   7.611  1.5373  1.2711 -0.5007
  163SAPE   H5Y18353   1.393   5.032   7.534 -0.4916  1.2370 -0.8311
  163SAPE   C3618354   1.403   5.176   7.708 -0.3321  0.2010 -0.5401
  163SAPE   H6X18355   1.306   5.220   7.676 -1.4615 -0.9644  1.1001
  163SAPE   H6Y18356   1.478   5.252   7.741 -0.3354 -0.0768  0.1387
  163SAPE   C3718357   1.384   5.086   7.834  0.1616  0.4687 -0.4300
  163SAPE   H7X18358   1.475   5.023   7.849  0.4500  1.0081  0.1247
  163SAPE   H7Y18359   1.301   5.016   7.812 -1.1615  0.9868  2.4915
  163SAPE   C3818360   1.362   5.167   7.963  0.1710 -0.6264  0.5895
  163SAPE   H8X18361   1.257   5.205   7.961 -0.0706 -1.2740  0.6342
  163SAPE   H8Y18362   1.428   5.255   7.957 -0.9994  0.4241  2.2609
  163SAPE   C3918363   1.375   5.079   8.087  0.0354 -0.5318 -0.5761
  163SAPE   H9X18364   1.368   5.146   8.176  1.4723  1.2637 -1.7253
  163SAPE   H9Y18365   1.470   5.021   8.088 -0.7573 -1.9827 -2.5916
  163SAPE  C31018366   1.268   4.972   8.106 -0.1451  0.4129  0.7198
  163SAPE  H10X18367   1.272   4.900   8.021  0.3945  0.4805  0.6811
  163SAPE  H10Y18368   1.177   5.034   8.096 -0.2404 -0.0357 -1.6011
  163SAPE  C31118369   1.273   4.896   8.237 -1.1967 -0.6556  0.2089
  163SAPE  H11X18370   1.174   4.847   8.245 -1.0520 -1.9521 -3.7938
  163SAPE  H11Y18371   1.291   4.963   8.324  1.7547  1.2002 -1.6881
  163SAPE  C31218372   1.393   4.786   8.229 -0.2487 -0.6511  0.0738
  163SAPE  H12X18373   1.487   4.843   8.214 -0.1259 -0.0082  2.8736
  163SAPE  H12Y18374   1.366   4.728   8.138 -0.3367 -1.0549  0.3571
  163SAPE  C31318375   1.404   4.692   8.342 -0.5946  0.2588 -0.1080
  163SAPE  H13X18376   1.312   4.638   8.370 -2.9782  3.6825 -0.6994
  163SAPE  H13Y18377   1.431   4.760   8.425  2.4420  0.5812 -1.2016
  163SAPE  C31418378   1.530   4.607   8.322  0.3348 -0.7630  0.3060
  163SAPE  H14X18379   1.613   4.675   8.294  0.1927 -0.4524  0.6379
  163SAPE  H14Y18380   1.508   4.536   8.239 -1.6629  0.3589 -0.1937
  163SAPE  C31518381   1.566   4.528   8.453 -0.3171  0.4170 -0.3851
  163SAPE  H15X18382   1.497   4.441   8.465  1.3511 -0.8491  0.4350
  163SAPE  H15Y18383   1.555   4.603   8.534 -0.5216  1.6570 -1.5307
  163SAPE  C31618384   1.711   4.498   8.438 -0.4867 -0.0893  0.0181
  163SAPE  H16X18385   1.777   4.588   8.433  1.3532 -1.3634  0.2042
  163SAPE  H16Y18386   1.738   4.433   8.351 -2.8663 -0.0940 -0.7907
  163SAPE  C31718387   1.763   4.436   8.569 -0.1778 -0.1734  0.6145
  163SAPE  H17X18388   1.729   4.333   8.592  0.0477 -0.1644  0.9964
  163SAPE  H17Y18389   1.731   4.503   8.651  1.9602  2.2684 -0.4157
  163SAPE  C31818390   1.914   4.452   8.579  0.3690  0.1655  0.1202
  163SAPE  H18X18391   1.949   4.556   8.562 -1.3482  0.5720 -1.1780
  163SAPE  H18Y18392   1.971   4.383   8.514 -1.5889  0.1305 -1.6831
  163SAPE  H18Z18393   1.939   4.443   8.687 -0.7300 -0.9352  0.3116
  164SAPE     N18394   6.137   0.666   5.982  0.1146 -0.6135 -0.6194
  164SAPE   HN118395   6.153   0.765   5.952  0.6372 -0.1597  1.0327
  164SAPE   HN218396   6.141   0.659   6.086 -3.1374  1.9219 -0.1484
  164SAPE   HN318397   6.226   0.627   5.944  0.3117  0.7485 -1.6482
  164SAPE   C1218398   6.020   0.610   5.921  0.2581 -0.7526  0.4817
  164SAPE  H12A18399   6.017   0.502   5.948  1.5535 -0.2933  2.7954
  164SAPE  H12B18400   6.035   0.616   5.812  0.2191  0.3262  0.5205
  164SAPE   C1118401   5.889   0.675   5.971  0.2745 -0.2235  0.8228
  164SAPE  H11A18402   5.807   0.638   5.907  2.3715 -3.5059 -0.1983
  164SAPE  H11B18403   5.904   0.784   5.954  3.4844 -0.5542  0.8527
  164SAPE     P18404   5.756   0.557   6.158 -0.4352  0.5570 -0.1876
  164SAPE   O1318405   5.627   0.624   6.124  0.8146  0.4190 -0.4912
  164SAPE   O1418406   5.785   0.418   6.110 -0.3161 -0.0161 -0.5488
  164SAPE   O1218407   5.870   0.653   6.107 -0.1258 -0.1006  0.1343
  164SAPE   O1118408   5.779   0.561   6.318 -0.0462 -0.5462 -0.0150
  164SAPE    C118409   5.797   0.693   6.376  0.3831 -1.3578  0.2122
  164SAPE    HA18410   5.899   0.698   6.420  1.5001  2.4560 -2.3060
  164SAPE    HB18411   5.801   0.779   6.305  0.7338 -1.1507  0.4758
  164SAPE    C218412   5.698   0.728   6.488  0.6631  0.1245 -0.0006
  164SAPE    HS18413   5.723   0.832   6.517 -1.7037  0.8120 -0.1778
  164SAPE   O2118414   5.723   0.625   6.595 -0.1248  0.2646  0.6326
  164SAPE   C2118415   5.686   0.664   6.712  0.2735 -0.1822  0.0802
  164SAPE   O2218416   5.658   0.779   6.751 -0.1186  0.0446  0.4589
  164SAPE   C2218417   5.662   0.536   6.795  0.4379  0.0302  0.6512
  164SAPE   H2R18418   5.629   0.451   6.730  2.2346 -0.6855  0.6249
  164SAPE   H2S18419   5.760   0.510   6.840  1.2963  2.2463  0.1662
  164SAPE    C318420   5.555   0.715   6.426  0.4095  0.0844 -1.1596
  164SAPE    HX18421   5.528   0.608   6.420 -0.7949  0.2915  0.0143
  164SAPE    HY18422   5.564   0.764   6.327  1.9547  1.1833 -0.5163
  164SAPE   O3118423   5.463   0.780   6.512  0.3021 -0.0204  0.4237
  164SAPE   C3118424   5.450   0.912   6.488 -0.1745 -0.7019  0.2480
  164SAPE   O3218425   5.510   0.971   6.402 -0.0064 -0.1956 -0.4158
  164SAPE   C3218426   5.368   0.977   6.598  0.0773 -0.2165  1.0239
  164SAPE   H2X18427   5.413   0.926   6.686  2.6940  1.9287  1.0451
  164SAPE   H2Y18428   5.263   0.951   6.575  0.1147  1.0019 -0.6972
  164SAPE   C2318429   5.561   0.564   6.906  0.9187  0.8091  0.4674
  164SAPE   H3R18430   5.462   0.586   6.860  1.0759 -0.0063 -0.2860
  164SAPE   H3S18431   5.590   0.656   6.962  1.1942  1.2154 -0.3277
  164SAPE   C2418432   5.551   0.441   7.006 -0.1050  0.8564  0.1955
  164SAPE   H4R18433   5.649   0.402   7.041 -0.0450  1.4715  0.7366
  164SAPE   H4S18434   5.507   0.354   6.953  0.8163 -1.2481  2.6722
  164SAPE   C2518435   5.476   0.476   7.131 -0.3325 -0.9609  0.2518
  164SAPE   H5R18436   5.367   0.470   7.116 -0.3140  0.2430 -0.5610
  164SAPE   C2618437   5.519   0.530   7.253  0.6668  0.0105  0.3162
  164SAPE   H6R18438   5.440   0.551   7.326 -0.6226 -1.9250 -0.4541
  164SAPE   C2718439   5.671   0.546   7.275  0.4013 -0.5084 -0.0621
  164SAPE   H7R18440   5.723   0.577   7.182  0.9464 -1.0153  0.0634
  164SAPE   H7S18441   5.718   0.451   7.309  1.9260  1.1603  2.8487
  164SAPE   C2818442   5.679   0.668   7.373  0.6528 -0.2806  0.7910
  164SAPE   H8R18443   5.682   0.765   7.322  0.9908 -0.3386  0.6927
  164SAPE   C2918444   5.666   0.669   7.507  0.2148  0.8069  0.4244
  164SAPE   H9R18445   5.694   0.756   7.568  3.0364 -0.2895  0.8355
  164SAPE  C21018446   5.633   0.546   7.601 -0.2731  0.1694 -0.0799
  164SAPE  H10R18447   5.725   0.522   7.658 -0.3288  0.6794  0.2312
  164SAPE  H10S18448   5.609   0.454   7.543  3.1103 -1.5404  0.9574
  164SAPE  C21118449   5.521   0.591   7.692 -0.3329 -0.5242 -0.2209
  164SAPE  H11R18450   5.433   0.613   7.630  0.0015  1.3365 -0.0945
  164SAPE  C21218451   5.520   0.601   7.826 -0.1809  0.4677 -0.0150
  164SAPE  H12R18452   5.421   0.628   7.866  0.0498 -0.6244  1.3740
  164SAPE  C21318453   5.627   0.577   7.931  0.3557 -0.0906  0.9986
  164SAPE  H13R18454   5.653   0.671   7.984 -0.5313  0.6827  0.0995
  164SAPE  H13S18455   5.722   0.562   7.876  1.0442 -1.2388  2.4176
  164SAPE  C21418456   5.604   0.462   8.019  0.0503  0.5319 -0.2030
  164SAPE  H14R18457   5.556   0.374   7.974 -0.9160  0.7701  0.3217
  164SAPE  C21518458   5.649   0.444   8.144  0.7543  0.4067 -0.0353
  164SAPE  H15R18459   5.608   0.359   8.200 -0.5971  0.4480 -0.9082
  164SAPE  C21618460   5.734   0.544   8.225 -0.6683 -0.1954 -0.1787
  164SAPE  H16R18461   5.768   0.626   8.159  1.6227 -1.3347 -0.5082
  164SAPE  H16S18462   5.828   0.491   8.250  0.6618  1.9627 -0.4107
  164SAPE  C21718463   5.680   0.599   8.357  0.7814  0.8255 -0.0990
  164SAPE  H17R18464   5.635   0.511   8.409  0.5836  0.5249 -0.7603
  164SAPE  H17S18465   5.592   0.663   8.332  0.5923  0.5466 -0.1528
  164SAPE  C21818466   5.796   0.673   8.427 -0.0876  0.0131 -0.4266
  164SAPE  H18R18467   5.824   0.763   8.368 -0.8975  0.3962 -0.2480
  164SAPE  H18S18468   5.882   0.604   8.420 -2.8829 -3.7160 -1.1353
  164SAPE  C21918469   5.752   0.712   8.571 -0.2464  0.2524  0.6885
  164SAPE  H19R18470   5.721   0.618   8.621  1.0169  0.3221  1.6740
  164SAPE  H19S18471   5.664   0.780   8.573 -1.5019 -1.3209  0.7795
  164SAPE  C22018472   5.867   0.768   8.659 -0.5443 -0.0235 -0.5935
  164SAPE  H20R18473   5.952   0.698   8.652 -0.4335 -0.5650  3.6879
  164SAPE  H20S18474   5.828   0.775   8.763 -0.1563  2.2128 -0.5546
  164SAPE  H20T18475   5.902   0.870   8.631  1.9558 -0.5121  0.4377
  164SAPE   C3318476   5.378   1.132   6.592 -0.0949  0.5707 -0.3528
  164SAPE   H3X18477   5.318   1.162   6.502 -1.7623 -0.3476  0.4044
  164SAPE   H3Y18478   5.481   1.173   6.583  0.1125  0.0042 -0.6302
  164SAPE   C3418479   5.322   1.198   6.714  0.0837  0.6404 -0.3768
  164SAPE   H4X18480   5.215   1.174   6.728  0.6914 -1.4635  1.3407
  164SAPE   H4Y18481   5.321   1.307   6.691 -0.7134  0.4053 -1.4996
  164SAPE   C3518482   5.396   1.177   6.845  0.6401  0.2634 -0.3790
  164SAPE   H5X18483   5.503   1.208   6.844  0.3626  1.2570 -1.7534
  164SAPE   H5Y18484   5.396   1.070   6.875  1.0827  0.2670 -0.3527
  164SAPE   C3618485   5.330   1.253   6.960  0.1405 -0.2817  0.3440
  164SAPE   H6X18486   5.225   1.224   6.940  1.0642 -2.1247 -2.5108
  164SAPE   H6Y18487   5.341   1.362   6.940 -1.3611  0.9889  5.0818
  164SAPE   C3718488   5.390   1.219   7.099  0.2519  0.2827  0.5907
  164SAPE   H7X18489   5.498   1.242   7.110  0.4830 -0.7218  0.5583
  164SAPE   H7Y18490   5.387   1.108   7.102 -1.6799  0.2434 -0.8146
  164SAPE   C3818491   5.307   1.277   7.201 -0.4556 -0.8682 -0.0445
  164SAPE   H8X18492   5.200   1.251   7.185 -1.0365  0.9422  0.6553
  164SAPE   H8Y18493   5.317   1.386   7.180  1.8740 -1.0864 -0.3557
  164SAPE   C3918494   5.365   1.260   7.343 -0.5957  0.0063 -0.1273
  164SAPE   H9X18495   5.320   1.335   7.410 -1.8836 -1.1429  0.3416
  164SAPE   H9Y18496   5.474   1.285   7.342 -0.7295  0.6011 -0.8066
  164SAPE  C31018497   5.326   1.118   7.396  0.1935 -0.2074  0.5655
  164SAPE  H10X18498   5.387   1.053   7.330 -0.9995  0.5121 -1.3232
  164SAPE  H10Y18499   5.216   1.111   7.381 -0.2812  1.5872  2.7372
  164SAPE  C31118500   5.354   1.085   7.547 -1.0667  0.3527 -0.2475
  164SAPE  H11X18501   5.314   1.170   7.608 -2.5296 -0.6476  0.2465
  164SAPE  H11Y18502   5.462   1.084   7.570 -1.3029  1.6004  1.0817
  164SAPE  C31218503   5.293   0.959   7.595  0.6262  0.0147 -0.2043
  164SAPE  H12X18504   5.327   0.873   7.532 -1.5853 -0.5940 -0.6735
  164SAPE  H12Y18505   5.184   0.959   7.573  1.3003 -0.8372 -4.3626
  164SAPE  C31318506   5.329   0.933   7.743 -0.6529  0.2832  0.4686
  164SAPE  H13X18507   5.425   0.988   7.758 -0.5833  1.4361 -3.1654
  164SAPE  H13Y18508   5.352   0.826   7.759  0.1472 -0.1477 -2.8380
  164SAPE  C31418509   5.217   0.993   7.833 -0.0061  0.4168  0.6024
  164SAPE  H14X18510   5.131   0.929   7.806 -1.2943  2.3249  0.0199
  164SAPE  H14Y18511   5.196   1.100   7.810  3.4362  0.8981 -0.9595
  164SAPE  C31518512   5.252   0.977   7.984  0.3434  0.1107 -0.6938
  164SAPE  H15X18513   5.167   1.021   8.040  0.3496 -2.7179  1.7679
  164SAPE  H15Y18514   5.340   1.041   8.003 -1.1529  1.7612  1.0460
  164SAPE  C31618515   5.281   0.835   8.035 -0.7239  0.3897 -0.1801
  164SAPE  H16X18516   5.371   0.788   7.990 -1.1216 -0.6208  0.0614
  164SAPE  H16Y18517   5.183   0.790   8.008 -1.3853  2.3975 -1.3585
  164SAPE  C31718518   5.301   0.830   8.186  0.6902  0.1083  0.1008
  164SAPE  H17X18519   5.216   0.883   8.235 -0.3736  0.5052 -2.0202
  164SAPE  H17Y18520   5.396   0.882   8.208  0.6277  1.5035 -2.5141
  164SAPE  C31818521   5.292   0.689   8.235  0.5024  0.3641 -1.0971
  164SAPE  H18X18522   5.345   0.615   8.171 -0.5969 -2.3970  0.9893
  164SAPE  H18Y18523   5.184   0.661   8.232  0.0888  1.5482  0.9010
  164SAPE  H18Z18524   5.325   0.687   8.341 -0.0709 -0.2353 -0.9175
  165SAPE     N18525   5.111   3.985   6.427 -0.1150  0.7649 -0.0226
  165SAPE   HN118526   5.039   3.997   6.353  0.4481 -3.2520 -1.4790
  165SAPE   HN218527   5.190   3.930   6.387 -1.1935 -0.7711 -0.0871
  165SAPE   HN318528   5.077   3.912   6.492  0.2365 -0.3359 -1.0360
  165SAPE   C1218529   5.141   4.112   6.501  0.1714  0.6419  0.3538
  165SAPE  H12A18530   5.226   4.160   6.447 -1.2287  1.5880 -1.0855
  165SAPE  H12B18531   5.176   4.081   6.602  1.1610 -0.0240 -0.1716
  165SAPE   C1118532   5.021   4.209   6.505 -0.1394 -0.1777  0.0015
  165SAPE  H11A18533   5.055   4.308   6.541 -0.2484  0.0491 -0.5028
  165SAPE  H11B18534   4.945   4.170   6.576  0.4772  0.8674  1.2622
  165SAPE     P18535   4.967   4.360   6.292  0.1325  0.0059 -0.2911
  165SAPE   O1318536   5.099   4.371   6.224  0.7451  0.4388  0.4486
  165SAPE   O1418537   4.849   4.353   6.208  0.0230  0.6911 -0.1371
  165SAPE   O1218538   4.964   4.222   6.379  0.1558  0.2921 -0.0226
  165SAPE   O1118539   4.948   4.468   6.405  0.1665 -0.5169 -0.1524
  165SAPE    C118540   4.815   4.498   6.452 -0.5812 -0.1142 -0.2400
  165SAPE    HA18541   4.755   4.547   6.372 -2.1945 -0.2301  0.8336
  165SAPE    HB18542   4.763   4.408   6.492 -3.2840  1.4273  0.0044
  165SAPE    C218543   4.815   4.603   6.562  0.2093  0.6336  0.8337
  165SAPE    HS18544   4.874   4.687   6.518 -1.3943  1.3127 -0.0993
  165SAPE   O2118545   4.870   4.539   6.680 -0.3096  0.4402  0.1718
  165SAPE   C2118546   4.990   4.574   6.713  0.1666 -0.5465 -0.4780
  165SAPE   O2218547   5.051   4.675   6.686  0.7818  0.6065  0.3391
  165SAPE   C2218548   5.053   4.454   6.790 -0.1830 -0.0179 -0.7984
  165SAPE   H2R18549   4.969   4.389   6.822 -0.3482 -0.5743 -2.2662
  165SAPE   H2S18550   5.111   4.391   6.718  0.7444 -0.3468  0.2160
  165SAPE    C318551   4.672   4.641   6.591  0.7943  0.4223  0.2731
  165SAPE    HX18552   4.615   4.549   6.617  1.2586  0.7533  2.6168
  165SAPE    HY18553   4.619   4.677   6.500  1.4671 -0.4041 -0.4579
  165SAPE   O3118554   4.664   4.740   6.693 -0.1560 -0.0041 -0.1139
  165SAPE   C3118555   4.629   4.713   6.815  0.0670  0.7948 -0.2763
  165SAPE   O3218556   4.591   4.607   6.864 -0.2383 -0.4445 -0.5385
  165SAPE   C3218557   4.650   4.833   6.899  0.0991 -0.4686 -0.0967
  165SAPE   H2X18558   4.561   4.898   6.889 -1.2259 -1.8508  1.9103
  165SAPE   H2Y18559   4.743   4.880   6.860 -0.2205  1.0893  0.9440
  165SAPE   C2318560   5.152   4.517   6.904 -0.0214  0.0505 -0.1863
  165SAPE   H3R18561   5.214   4.602   6.869 -0.7545  0.5420 -0.2965
  165SAPE   H3S18562   5.212   4.429   6.935 -0.2864  0.5073  1.7815
  165SAPE   C2418563   5.081   4.569   7.029 -0.2069  0.0294  0.0482
  165SAPE   H4R18564   4.994   4.626   6.992  0.8600  4.4334  3.5107
  165SAPE   H4S18565   5.148   4.641   7.080  1.8476 -0.8992 -1.2052
  165SAPE   C2518566   5.035   4.460   7.127  0.0473  0.4003  0.1604
  165SAPE   H5R18567   5.056   4.357   7.096 -1.3371 -0.0171  0.5302
  165SAPE   C2618568   4.977   4.475   7.241 -0.1692 -0.0894 -0.0284
  165SAPE   H6R18569   4.939   4.387   7.295 -1.8913 -0.1624 -1.2990
  165SAPE   C2718570   4.937   4.613   7.298 -0.2151  0.6811 -0.1787
  165SAPE   H7R18571   4.827   4.610   7.311 -0.5900  0.0052 -2.9497
  165SAPE   H7S18572   4.954   4.691   7.221  1.2675  0.8058  0.2432
  165SAPE   C2818573   5.020   4.656   7.417 -1.1599 -0.1598  0.6957
  165SAPE   H8R18574   5.118   4.698   7.390  0.5549 -2.3365  3.1546
  165SAPE   C2918575   4.988   4.657   7.548  0.5841  0.4825 -0.0734
  165SAPE   H9R18576   5.056   4.701   7.623 -0.0141  1.1463  0.0895
  165SAPE  C21018577   4.864   4.609   7.618 -0.0355 -0.1924  0.5517
  165SAPE  H10R18578   4.783   4.606   7.543  0.2899 -1.0333  0.2286
  165SAPE  H10S18579   4.831   4.677   7.700  0.0634 -1.7984  1.9671
  165SAPE  C21118580   4.871   4.468   7.674 -0.2750 -0.0298  0.2236
  165SAPE  H11R18581   4.875   4.392   7.595 -1.2973  0.8513 -0.7106
  165SAPE  C21218582   4.847   4.433   7.799  0.0414 -0.5183 -0.9212
  165SAPE  H12R18583   4.850   4.326   7.826 -2.4096 -0.2120  0.9779
  165SAPE  C21318584   4.814   4.523   7.917 -0.3569  0.5863  0.6435
  165SAPE  H13R18585   4.882   4.611   7.911  0.6973  0.0596  3.5346
  165SAPE  H13S18586   4.847   4.455   7.998  0.2877  0.7657  0.5446
  165SAPE  C21418587   4.668   4.567   7.918  0.2145 -0.2002  0.4604
  165SAPE  H14R18588   4.613   4.548   7.825  2.3538  0.4360 -1.0066
  165SAPE  C21518589   4.617   4.624   8.034  0.0265  1.4209 -0.2351
  165SAPE  H15R18590   4.518   4.673   8.034  0.1484  1.7045  0.9619
  165SAPE  C21618591   4.689   4.632   8.169  0.2562 -0.3870 -0.2396
  165SAPE  H16R18592   4.741   4.731   8.174  0.9309 -0.7944  2.7536
  165SAPE  H16S18593   4.773   4.564   8.193  1.4824  0.8038 -0.9984
  165SAPE  C21718594   4.593   4.642   8.286  0.3148 -0.3392 -0.4002
  165SAPE  H17R18595   4.520   4.721   8.260  1.4034  0.7324 -0.2857
  165SAPE  H17S18596   4.654   4.667   8.375  4.5990 -0.7172 -2.9375
  165SAPE  C21818597   4.518   4.507   8.311 -0.8889 -0.0492  0.4893
  165SAPE  H18R18598   4.589   4.423   8.329 -0.4002 -0.2088 -1.8989
  165SAPE  H18S18599   4.475   4.476   8.214 -1.4264  0.6702  0.4835
  165SAPE  C21918600   4.393   4.512   8.414 -0.2612  0.4794  0.8131
  165SAPE  H19R18601   4.323   4.588   8.373 -2.5013 -0.7027  2.2196
  165SAPE  H19S18602   4.420   4.545   8.517 -0.2389  1.2280  0.5685
  165SAPE  C22018603   4.317   4.380   8.414 -0.7145  0.0098  0.4800
  165SAPE  H20R18604   4.218   4.394   8.462 -0.9851  1.2218 -0.3833
  165SAPE  H20S18605   4.385   4.308   8.464  0.2415  0.1346 -0.6100
  165SAPE  H20T18606   4.300   4.349   8.309  1.7453 -0.4386  0.1471
  165SAPE   C3318607   4.655   4.805   7.048  0.4198 -0.0898  0.2821
  165SAPE   H3X18608   4.746   4.744   7.068  0.6937 -0.6134 -2.2090
  165SAPE   H3Y18609   4.567   4.741   7.072  0.3691 -0.1032  0.0657
  165SAPE   C3418610   4.678   4.938   7.127 -0.1284  0.4413  0.3259
  165SAPE   H4X18611   4.588   5.000   7.105 -1.9670 -1.8562  1.0128
  165SAPE   H4Y18612   4.770   4.987   7.087 -0.4919  1.7889  1.0761
  165SAPE   C3518613   4.678   4.913   7.280  0.8080 -1.0101  0.2806
  165SAPE   H5X18614   4.761   4.841   7.296 -0.0119 -1.7688  1.1552
  165SAPE   H5Y18615   4.589   4.851   7.303 -1.1849  1.0259 -1.4606
  165SAPE   C3618616   4.705   5.022   7.376  0.3105  0.3186 -0.4795
  165SAPE   H6X18617   4.613   5.084   7.377 -1.0541 -1.6068 -1.1547
  165SAPE   H6Y18618   4.779   5.100   7.346 -1.3700  2.5543  0.8985
  165SAPE   C3718619   4.729   4.957   7.509 -0.0680 -0.2007 -0.2341
  165SAPE   H7X18620   4.835   4.923   7.512 -0.5564 -1.7539  0.0842
  165SAPE   H7Y18621   4.667   4.866   7.522 -0.1513  0.1513  2.7305
  165SAPE   C3818622   4.697   5.048   7.627 -0.3052  0.2388 -0.3273
  165SAPE   H8X18623   4.590   5.075   7.628  0.3398  3.6751 -3.3299
  165SAPE   H8Y18624   4.755   5.142   7.618 -2.0961  1.2998 -1.1609
  165SAPE   C3918625   4.728   4.979   7.764  0.3319  0.5396  0.4458
  165SAPE   H9X18626   4.820   4.918   7.753 -0.3768 -0.4808  0.0675
  165SAPE   H9Y18627   4.643   4.917   7.800  0.1347  1.5564  1.8055
  165SAPE  C31018628   4.746   5.080   7.879  0.6529  0.1721  0.4182
  165SAPE  H10X18629   4.646   5.115   7.911  0.9958  3.0236 -1.2721
  165SAPE  H10Y18630   4.794   5.165   7.826 -0.8719  1.0812  0.4473
  165SAPE  C31118631   4.833   5.015   7.988  0.1493  0.2154 -0.1723
  165SAPE  H11X18632   4.929   5.001   7.935 -0.1588  1.8210 -1.2512
  165SAPE  H11Y18633   4.813   4.911   8.021  0.8370  0.2766  0.4743
  165SAPE  C31218634   4.863   5.091   8.118 -0.0507 -0.2272 -0.1311
  165SAPE  H12X18635   4.888   5.197   8.097 -0.5498 -0.4037 -1.7747
  165SAPE  H12Y18636   4.950   5.047   8.170 -0.6349 -0.3850  0.7334
  165SAPE  C31318637   4.732   5.090   8.207  0.1026 -0.1298 -0.2603
  165SAPE  H13X18638   4.710   4.988   8.245 -1.0185 -0.5629 -1.9262
  165SAPE  H13Y18639   4.645   5.125   8.148 -1.2912 -0.3228  1.5996
  165SAPE  C31418640   4.754   5.171   8.337 -0.5773 -0.2352  0.3442
  165SAPE  H14X18641   4.767   5.277   8.308  0.7371 -0.2821  0.7337
  165SAPE  H14Y18642   4.856   5.142   8.369 -0.7097 -1.1581 -0.0279
  165SAPE  C31518643   4.663   5.141   8.456  0.3399  0.2521  0.0909
  165SAPE  H15X18644   4.698   5.196   8.546  0.5586 -0.6474  0.5618
  165SAPE  H15Y18645   4.670   5.034   8.486 -1.8957 -0.4554 -1.6636
  165SAPE  C31618646   4.521   5.189   8.429  0.8477  0.5719 -0.0032
  165SAPE  H16X18647   4.471   5.137   8.345  0.7534 -0.2219  0.5442
  165SAPE  H16Y18648   4.518   5.301   8.429  2.7322  0.7565  3.3860
  165SAPE  C31718649   4.433   5.154   8.545 -0.2194 -0.0929 -0.2444
  165SAPE  H17X18650   4.478   5.189   8.641  1.3967 -0.9161 -0.6667
  165SAPE  H17Y18651   4.436   5.043   8.538  1.2932 -0.0500 -0.6646
  165SAPE  C31818652   4.290   5.209   8.537  0.6894 -0.0782  0.7227
  165SAPE  H18X18653   4.267   5.216   8.428 -1.7231  3.2329  1.2896
  165SAPE  H18Y18654   4.297   5.311   8.581 -2.3630 -0.2303  1.7641
  165SAPE  H18Z18655   4.225   5.143   8.599 -2.1851  1.1497 -0.7898
  166SAPE     N18656   2.404   0.855   5.689  0.8182  0.4390 -0.2251
  166SAPE   HN118657   2.491   0.912   5.680  1.8024 -0.9160  0.3201
  166SAPE   HN218658   2.371   0.879   5.785  2.2739  1.3252  0.1018
  166SAPE   HN318659   2.426   0.753   5.692  2.0360  0.6783 -0.1308
  166SAPE   C1218660   2.310   0.897   5.584  0.1301 -0.3247 -0.3333
  166SAPE  H12A18661   2.356   0.854   5.493  2.2593  0.7687  0.1686
  166SAPE  H12B18662   2.311   1.007   5.571  0.6608 -0.4717 -1.6612
  166SAPE   C1118663   2.172   0.849   5.624  0.0962  0.2635 -0.2949
  166SAPE  H11A18664   2.089   0.873   5.554 -2.1178 -0.2281  2.0224
  166SAPE  H11B18665   2.144   0.901   5.719 -1.9212 -1.7292  0.2789
  166SAPE     P18666   2.039   0.626   5.670 -0.5648 -0.1034 -0.0773
  166SAPE   O1318667   1.923   0.714   5.649 -0.1610 -0.4803 -0.1810
  166SAPE   O1418668   2.056   0.500   5.597 -0.5863  0.1869  0.0306
  166SAPE   O1218669   2.175   0.711   5.658 -0.4521  0.4479  0.2910
  166SAPE   O1118670   2.050   0.592   5.825 -0.3959 -0.5851 -0.2813
  166SAPE    C118671   2.173   0.545   5.889  0.3375  0.4819 -0.2832
  166SAPE    HA18672   2.260   0.542   5.819  0.7180 -0.5766  0.2130
  166SAPE    HB18673   2.200   0.615   5.970  2.0322  1.6669 -1.7780
  166SAPE    C218674   2.164   0.397   5.941  0.5572  0.6455 -0.3486
  166SAPE    HS18675   2.164   0.329   5.853  0.9649 -0.4461  0.4856
  166SAPE   O2118676   2.035   0.396   5.999  0.3096  0.4492 -0.1796
  166SAPE   C2118677   1.996   0.286   6.071  0.8020 -0.7833  0.1505
  166SAPE   O2218678   2.050   0.178   6.074  0.7206 -0.5029  0.7352
  166SAPE   C2218679   1.866   0.325   6.140 -0.1852 -0.4303  0.7731
  166SAPE   H2R18680   1.852   0.428   6.180  0.2362 -0.6900  1.6106
  166SAPE   H2S18681   1.780   0.311   6.071 -1.1098 -1.6389  2.1240
  166SAPE    C318682   2.280   0.360   6.045  0.5883 -0.3481  0.7712
  166SAPE    HX18683   2.376   0.379   5.991 -0.7663 -3.8181 -3.3979
  166SAPE    HY18684   2.281   0.254   6.079  1.6179  0.4820  3.6627
  166SAPE   O3118685   2.255   0.442   6.163  0.4930  0.1893 -0.3512
  166SAPE   C3118686   2.344   0.413   6.261  0.9400  0.7353 -0.5330
  166SAPE   O3218687   2.445   0.343   6.250  0.4062 -0.5258  0.1154
  166SAPE   C3218688   2.302   0.470   6.390  0.3098  0.9218 -0.6805
  166SAPE   H2X18689   2.195   0.452   6.413  0.3595  2.5439  1.1107
  166SAPE   H2Y18690   2.296   0.580   6.372  0.4799  1.7469  3.3366
  166SAPE   C2318691   1.838   0.230   6.260 -0.9231  0.3237 -0.2447
  166SAPE   H3R18692   1.858   0.124   6.232  0.1816  0.6495 -0.7583
  166SAPE   H3S18693   1.730   0.233   6.282 -0.9464  0.0671 -0.3212
  166SAPE   C2418694   1.910   0.258   6.388  0.4414 -1.2006 -0.2793
  166SAPE   H4R18695   2.017   0.259   6.356  0.5826 -0.8693  0.2045
  166SAPE   H4S18696   1.886   0.168   6.449  0.7104 -0.1004  1.5240
  166SAPE   C2518697   1.878   0.391   6.453  0.5280  0.1709  0.5377
  166SAPE   H5R18698   1.869   0.482   6.392 -1.5609  0.5004  1.2650
  166SAPE   C2618699   1.837   0.418   6.575 -0.4856 -0.2569  0.4225
  166SAPE   H6R18700   1.809   0.519   6.609 -0.1127 -0.4593  1.3539
  166SAPE   C2718701   1.817   0.317   6.688 -0.2596  0.8287 -0.5503
  166SAPE   H7R18702   1.839   0.362   6.787 -0.3731 -1.8248  0.7746
  166SAPE   H7S18703   1.876   0.223   6.681 -0.2984  0.3922  3.0276
  166SAPE   C2818704   1.670   0.280   6.678  0.4961 -0.3757 -0.5781
  166SAPE   H8R18705   1.629   0.282   6.576 -0.4911 -2.0142 -0.2387
  166SAPE   C2918706   1.590   0.255   6.781  0.2233 -0.2020 -0.5146
  166SAPE   H9R18707   1.486   0.226   6.763 -1.0933  2.5818  1.8350
  166SAPE  C21018708   1.623   0.257   6.925 -0.1548 -0.4667 -0.2061
  166SAPE  H10R18709   1.646   0.365   6.943 -0.3663 -0.1089 -1.8715
  166SAPE  H10S18710   1.716   0.200   6.947 -0.9506 -1.3237  1.0821
  166SAPE  C21118711   1.505   0.198   7.001  0.2474 -0.7432 -0.2081
  166SAPE  H11R18712   1.402   0.199   6.963 -0.5068  1.2629  1.6405
  166SAPE  C21218713   1.515   0.143   7.123  0.0908  0.4648  0.2953
  166SAPE  H12R18714   1.420   0.110   7.167 -0.0893 -0.2463 -0.5848
  166SAPE  C21318715   1.645   0.119   7.201 -0.1361 -0.5084 -0.0665
  166SAPE  H13R18716   1.718   0.064   7.138  1.6900  0.4253  1.1546
  166SAPE  H13S18717   1.620   0.047   7.282 -0.7941 -0.5052 -0.2612
  166SAPE  C21418718   1.696   0.252   7.249 -0.4292 -0.9140  0.5035
  166SAPE  H14R18719   1.621   0.333   7.250  0.9849  0.5396  3.7375
  166SAPE  C21518720   1.797   0.258   7.337 -0.1019  0.6218 -0.7061
  166SAPE  H15R18721   1.824   0.355   7.381  0.3562 -0.1353  0.7380
  166SAPE  C21618722   1.885   0.150   7.390  0.4836 -0.2973 -0.4314
  166SAPE  H16R18723   1.992   0.175   7.375  0.5940 -0.8523 -0.5956
  166SAPE  H16S18724   1.870   0.049   7.346  0.1257 -0.3235 -0.2511
  166SAPE  C21718725   1.855   0.138   7.539 -0.3032  0.3865  0.1518
  166SAPE  H17R18726   1.922   0.054   7.568 -1.3613 -0.6387 -0.3151
  166SAPE  H17S18727   1.749   0.109   7.553 -0.9900  2.4852 -0.2825
  166SAPE  C21818728   1.890   0.260   7.636 -0.0580  0.9023 -0.1669
  166SAPE  H18R18729   1.946   0.341   7.586  1.4544  0.3055  0.4852
  166SAPE  H18S18730   1.946   0.221   7.724 -0.5556 -3.2255 -1.4489
  166SAPE  C21918731   1.768   0.313   7.691  1.2397 -0.3210  0.0593
  166SAPE  H19R18732   1.704   0.228   7.724 -0.5156  0.4177 -1.2292
  166SAPE  H19S18733   1.703   0.361   7.614  0.2545 -1.9345 -0.1689
  166SAPE  C22018734   1.797   0.407   7.803 -0.3077  0.6838 -0.0137
  166SAPE  H20R18735   1.829   0.343   7.889  0.3463 -1.3243 -1.6803
  166SAPE  H20S18736   1.713   0.477   7.826 -0.8157  0.7482 -1.9453
  166SAPE  H20T18737   1.888   0.467   7.785  1.3173 -1.7672 -0.3952
  166SAPE   C3318738   2.391   0.430   6.513 -0.0480  0.3382  0.0213
  166SAPE   H3X18739   2.494   0.468   6.495 -0.4832  2.1558  1.0400
  166SAPE   H3Y18740   2.400   0.320   6.511 -0.2377  0.3003 -2.6211
  166SAPE   C3418741   2.337   0.488   6.645  0.4721  0.5791  0.4419
  166SAPE   H4X18742   2.308   0.595   6.641  0.1665  0.4869  0.0718
  166SAPE   H4Y18743   2.419   0.482   6.719 -0.2807  0.0478  1.2591
  166SAPE   C3518744   2.223   0.410   6.711  0.5187  0.1958  0.1720
  166SAPE   H5X18745   2.252   0.303   6.713 -0.0042  0.0152 -1.0707
  166SAPE   H5Y18746   2.133   0.427   6.648 -0.4468 -0.8944  1.2179
  166SAPE   C3618747   2.204   0.462   6.852  0.0251 -0.7532  0.1867
  166SAPE   H6X18748   2.189   0.571   6.860  0.3538 -0.8413  3.3172
  166SAPE   H6Y18749   2.302   0.443   6.902  0.7957 -1.6784 -1.5740
  166SAPE   C3718750   2.099   0.383   6.939  0.1325  0.6228 -0.5072
  166SAPE   H7X18751   2.123   0.276   6.926  1.1796  1.1661 -4.6359
  166SAPE   H7Y18752   2.000   0.402   6.891 -1.1488 -1.7408  1.0049
  166SAPE   C3818753   2.093   0.433   7.082  0.3341  0.3489  0.4847
  166SAPE   H8X18754   2.012   0.379   7.135  0.7770 -0.7713  0.0531
  166SAPE   H8Y18755   2.058   0.539   7.073 -0.4910  0.3702  3.0399
  166SAPE   C3918756   2.219   0.432   7.169  0.7514  0.6600  0.2693
  166SAPE   H9X18757   2.283   0.517   7.137  0.3336  0.3270 -1.5152
  166SAPE   H9Y18758   2.263   0.330   7.160 -1.2262 -0.1058 -1.4643
  166SAPE  C31018759   2.204   0.452   7.317 -0.0562  0.3661 -0.0129
  166SAPE  H10X18760   2.114   0.397   7.351  1.5857 -1.3732  1.8437
  166SAPE  H10Y18761   2.194   0.560   7.343 -2.6760 -0.1952  1.6521
  166SAPE  C31118762   2.312   0.371   7.394  0.2661  0.5147  0.1496
  166SAPE  H11X18763   2.412   0.417   7.377  0.9069 -1.5119 -2.0447
  166SAPE  H11Y18764   2.316   0.267   7.357 -0.2341  1.1929 -1.9098
  166SAPE  C31218765   2.290   0.382   7.539 -0.3764 -0.2817 -0.1204
  166SAPE  H12X18766   2.367   0.324   7.594  1.0429  0.4270 -1.2830
  166SAPE  H12Y18767   2.189   0.340   7.559 -0.3590 -0.0157  0.5318
  166SAPE  C31318768   2.293   0.523   7.594 -0.5572  0.4004 -0.1611
  166SAPE  H13X18769   2.205   0.574   7.549 -0.4181  1.3815  0.6541
  166SAPE  H13Y18770   2.384   0.569   7.550  0.7352 -1.6359  0.2673
  166SAPE  C31418771   2.292   0.519   7.750 -0.0409  0.2695 -0.2392
  166SAPE  H14X18772   2.382   0.467   7.789 -0.9165 -0.6935  0.5514
  166SAPE  H14Y18773   2.197   0.472   7.783  0.3000 -1.2209 -1.2670
  166SAPE  C31518774   2.300   0.655   7.812 -0.5929 -0.6111  0.0971
  166SAPE  H15X18775   2.209   0.719   7.809 -0.9772 -0.8323  3.2351
  166SAPE  H15Y18776   2.377   0.703   7.748  0.4540 -0.6154  1.3037
  166SAPE  C31618777   2.362   0.662   7.949  0.2418 -0.3801  0.4973
  166SAPE  H16X18778   2.466   0.626   7.935  0.1841 -0.5290  0.4487
  166SAPE  H16Y18779   2.305   0.587   8.007 -0.9129 -1.3580 -1.7489
  166SAPE  C31718780   2.334   0.785   8.038  0.1823 -0.8306  0.6140
  166SAPE  H17X18781   2.226   0.800   8.059  0.7636  1.2947  2.3939
  166SAPE  H17Y18782   2.357   0.878   7.980  0.0634 -0.7325  0.7248
  166SAPE  C31818783   2.431   0.793   8.154 -0.7813  0.0953 -0.6956
  166SAPE  H18X18784   2.410   0.720   8.235  3.0869 -0.6781 -0.1790
  166SAPE  H18Y18785   2.418   0.893   8.201 -0.2068  0.5528 -1.4639
  166SAPE  H18Z18786   2.537   0.781   8.122 -0.4271 -2.8284  1.2416
  167SAPE     N18787   3.262   1.489   6.276  0.3474 -0.6541  0.0033
  167SAPE   HN118788   3.252   1.415   6.348 -1.5183 -1.8208 -1.3796
  167SAPE   HN218789   3.262   1.432   6.190 -0.1277  0.0180 -0.4498
  167SAPE   HN318790   3.351   1.540   6.297 -0.1196  0.2645 -0.1901
  167SAPE   C1218791   3.145   1.580   6.271  0.6413 -0.1504 -0.0351
  167SAPE  H12A18792   3.109   1.586   6.376 -1.0708 -0.1557 -0.5885
  167SAPE  H12B18793   3.074   1.522   6.209  1.3222 -1.6498  0.5293
  167SAPE   C1118794   3.187   1.712   6.202  0.3359 -0.1842 -0.4766
  167SAPE  H11A18795   3.092   1.768   6.186  0.8508  0.7027 -0.4579
  167SAPE  H11B18796   3.238   1.678   6.110  0.9930 -1.8161  0.4498
  167SAPE     P18797   3.329   1.924   6.243  0.1790  0.4541 -0.1847
  167SAPE   O1318798   3.443   1.902   6.150 -0.4470 -0.4077 -0.4583
  167SAPE   O1418799   3.214   1.999   6.189 -1.1326  0.0720 -0.2408
  167SAPE   O1218800   3.271   1.786   6.289 -0.4765 -0.2716  0.2141
  167SAPE   O1118801   3.377   1.984   6.375 -0.3762  0.2805 -0.6466
  167SAPE    C118802   3.300   2.062   6.464 -0.0055 -0.4051 -0.2200
  167SAPE    HA18803   3.375   2.116   6.525  0.7113 -1.7780  0.1558
  167SAPE    HB18804   3.249   2.136   6.399 -1.1611  0.0228  1.1162
  167SAPE    C218805   3.198   1.988   6.550  0.1114  0.6080 -0.6955
  167SAPE    HS18806   3.122   1.941   6.484  0.2931  0.7015 -0.9759
  167SAPE   O2118807   3.147   2.074   6.654 -0.6712 -0.1581  0.0848
  167SAPE   C2118808   3.031   2.038   6.703  0.0617 -0.3346 -0.3270
  167SAPE   O2218809   2.973   1.937   6.672  0.4407 -0.6201 -0.2744
  167SAPE   C2218810   2.995   2.148   6.808 -0.7012 -0.3052 -0.4585
  167SAPE   H2R18811   3.080   2.215   6.830 -1.1565  0.0730  0.1769
  167SAPE   H2S18812   2.913   2.208   6.763  0.5616  0.1716 -2.1919
  167SAPE    C318813   3.263   1.854   6.608 -0.2342 -0.5868  0.0554
  167SAPE    HX18814   3.301   1.790   6.525 -0.5881  2.1805 -2.3931
  167SAPE    HY18815   3.189   1.797   6.668 -0.2888  0.5795  1.1251
  167SAPE   O3118816   3.371   1.893   6.697 -0.2947 -0.4906  0.3083
  167SAPE   C3118817   3.414   1.791   6.775 -0.1042 -0.3268  0.2175
  167SAPE   O3218818   3.376   1.676   6.769 -0.4672 -0.2826  0.2755
  167SAPE   C3218819   3.529   1.859   6.861  0.4051  0.3092  0.1892
  167SAPE   H2X18820   3.486   1.950   6.908 -0.0589  0.1361  0.1072
  167SAPE   H2Y18821   3.611   1.885   6.791  0.9515 -3.0202 -0.5632
  167SAPE   C2318822   2.941   2.093   6.945  0.2358 -0.1098 -0.4093
  167SAPE   H3R18823   2.862   2.018   6.925  1.6872 -1.5801 -0.7854
  167SAPE   H3S18824   2.902   2.175   7.010  0.5931  1.0672 -1.6244
  167SAPE   C2418825   3.057   2.031   7.030  0.2378  0.1638  0.7483
  167SAPE   H4R18826   3.107   1.958   6.962  1.4343  0.6655  1.0685
  167SAPE   H4S18827   2.999   1.972   7.104  0.4347 -1.7273 -0.5393
  167SAPE   C2518828   3.153   2.133   7.091 -0.4089  1.0402  0.1800
  167SAPE   H5R18829   3.170   2.215   7.020 -0.3646  0.5686 -0.3571
  167SAPE   C2618830   3.224   2.135   7.205 -0.0730  0.5942 -0.5537
  167SAPE   H6R18831   3.288   2.222   7.220  1.9301 -0.7203 -1.0696
  167SAPE   C2718832   3.216   2.032   7.317  0.2574  0.0777  0.6108
  167SAPE   H7R18833   3.319   1.990   7.317  0.2570 -0.1400 -2.4820
  167SAPE   H7S18834   3.155   1.941   7.297 -1.5340  1.3306  0.1323
  167SAPE   C2818835   3.157   2.109   7.434 -0.1506 -0.3598 -0.3036
  167SAPE   H8R18836   3.063   2.162   7.415 -0.2324 -0.5726 -0.5003
  167SAPE   C2918837   3.219   2.139   7.551 -0.2455  0.9439  0.2342
  167SAPE   H9R18838   3.174   2.204   7.628 -1.0016  0.6744  0.0264
  167SAPE  C21018839   3.358   2.094   7.600 -0.4132  0.2067 -0.0279
  167SAPE  H10R18840   3.412   2.039   7.519 -0.3917  2.0057 -1.2939
  167SAPE  H10S18841   3.353   2.022   7.685 -2.2004  1.4469  0.9667
  167SAPE  C21118842   3.442   2.217   7.627  0.0352  0.5648 -0.8692
  167SAPE  H11R18843   3.428   2.305   7.562  1.0818  0.6717 -0.9571
  167SAPE  C21218844   3.515   2.241   7.736  0.7541  0.0710 -0.8212
  167SAPE  H12R18845   3.568   2.337   7.749  2.5228 -1.2229  3.4676
  167SAPE  C21318846   3.533   2.157   7.861 -0.3938  0.5395 -0.2149
  167SAPE  H13R18847   3.451   2.084   7.874 -0.4400  0.4930 -0.7205
  167SAPE  H13S18848   3.524   2.224   7.949 -1.1543  2.0897 -1.4016
  167SAPE  C21418849   3.659   2.071   7.848 -0.1333 -0.0125  0.3428
  167SAPE  H14R18850   3.679   2.036   7.746 -0.4070  0.4482  0.1279
  167SAPE  C21518851   3.752   2.045   7.944 -0.1934  0.1509 -0.8464
  167SAPE  H15R18852   3.841   1.985   7.919 -1.0391 -1.8232  0.6229
  167SAPE  C21618853   3.750   2.104   8.085  0.0122  0.1478 -0.0440
  167SAPE  H16R18854   3.746   2.213   8.064 -0.2446 -0.5736 -5.1058
  167SAPE  H16S18855   3.849   2.087   8.132  0.7868  0.1289 -1.5965
  167SAPE  C21718856   3.636   2.054   8.178  0.0284  0.1658  0.4929
  167SAPE  H17R18857   3.564   2.014   8.104 -0.9977 -1.3408  2.2163
  167SAPE  H17S18858   3.583   2.134   8.234 -1.5910 -1.6024  1.6142
  167SAPE  C21818859   3.673   1.938   8.273 -0.6111 -0.6051  0.0885
  167SAPE  H18R18860   3.755   1.987   8.330  0.0867 -0.3815 -1.0546
  167SAPE  H18S18861   3.725   1.858   8.216 -1.2162 -0.2950 -0.9357
  167SAPE  C21918862   3.557   1.882   8.341  0.2877  0.0843 -0.0595
  167SAPE  H19R18863   3.599   1.798   8.400  1.2080 -0.4874 -1.4774
  167SAPE  H19S18864   3.479   1.841   8.272 -1.3985  1.1527  1.1281
  167SAPE  C22018865   3.477   1.975   8.429  0.2087  0.6845  0.4139
  167SAPE  H20R18866   3.435   2.056   8.366 -1.3993 -0.0872  0.4354
  167SAPE  H20S18867   3.520   2.018   8.522 -1.1623  2.6531  0.2137
  167SAPE  H20T18868   3.383   1.923   8.460  0.0818  0.0566 -0.9184
  167SAPE   C3318869   3.584   1.781   6.978 -0.2097  0.1360 -0.3517
  167SAPE   H3X18870   3.659   1.716   6.928 -0.0445  0.9484 -1.1832
  167SAPE   H3Y18871   3.514   1.708   7.025  1.0673 -0.4604  0.7062
  167SAPE   C3418872   3.655   1.854   7.092  0.0760 -0.0840 -0.5117
  167SAPE   H4X18873   3.603   1.951   7.106  0.3553  0.1258 -0.8947
  167SAPE   H4Y18874   3.761   1.876   7.063  0.5417 -0.6380  0.7045
  167SAPE   C3518875   3.653   1.766   7.219  0.2752 -0.3036  0.2818
  167SAPE   H5X18876   3.711   1.672   7.203  2.0881  0.8696 -0.4102
  167SAPE   H5Y18877   3.548   1.742   7.245 -0.4022  0.5357 -1.4949
  167SAPE   C3618878   3.722   1.842   7.331  0.0080  0.6948 -0.2644
  167SAPE   H6X18879   3.666   1.935   7.354 -1.0433 -0.1099  0.5610
  167SAPE   H6Y18880   3.826   1.874   7.309  0.7794 -1.6675 -0.3592
  167SAPE   C3718881   3.749   1.776   7.468  0.1737  0.1193 -0.1087
  167SAPE   H7X18882   3.794   1.857   7.530 -0.1502 -0.7616  1.3298
  167SAPE   H7Y18883   3.819   1.690   7.463 -1.9516 -1.6708 -0.6485
  167SAPE   C3818884   3.621   1.713   7.531  0.4290 -0.3081  0.3468
  167SAPE   H8X18885   3.604   1.618   7.476  1.0197 -0.5259  0.5361
  167SAPE   H8Y18886   3.540   1.789   7.522  0.1853 -0.6143 -0.0711
  167SAPE   C3918887   3.640   1.677   7.686 -0.0198 -0.4867 -0.3750
  167SAPE   H9X18888   3.701   1.756   7.734 -0.2685 -0.0780 -0.7330
  167SAPE   H9Y18889   3.694   1.580   7.700  2.0852  1.0261  4.0722
  167SAPE  C31018890   3.507   1.677   7.765 -0.2492  0.1240  0.1052
  167SAPE  H10X18891   3.431   1.625   7.702  0.2899 -0.1938 -0.2952
  167SAPE  H10Y18892   3.485   1.785   7.767  0.4994  0.3612 -1.9228
  167SAPE  C31118893   3.501   1.623   7.913 -1.0146 -0.5042 -0.4706
  167SAPE  H11X18894   3.444   1.682   7.988 -0.0700  0.8046 -0.7500
  167SAPE  H11Y18895   3.604   1.627   7.952 -1.4217  0.5462  0.5431
  167SAPE  C31218896   3.449   1.480   7.922 -0.4873  0.0507  0.4697
  167SAPE  H12X18897   3.504   1.423   7.844  1.1209  0.0935  1.5285
  167SAPE  H12Y18898   3.341   1.483   7.897 -0.5938 -2.5820  0.3808
  167SAPE  C31318899   3.474   1.418   8.059 -0.5692  0.0405 -0.0817
  167SAPE  H13X18900   3.582   1.399   8.072 -0.5657 -0.2549 -0.5227
  167SAPE  H13Y18901   3.416   1.323   8.062 -2.5806  1.1514 -1.1808
  167SAPE  C31418902   3.430   1.493   8.185  0.6484 -0.2061  0.8011
  167SAPE  H14X18903   3.323   1.517   8.167  0.6229 -0.5270  0.5083
  167SAPE  H14Y18904   3.487   1.587   8.206  1.6364 -0.6650  0.2595
  167SAPE  C31518905   3.424   1.406   8.313  0.2142 -0.3840  0.4768
  167SAPE  H15X18906   3.521   1.354   8.319  0.7653  0.1932 -2.2130
  167SAPE  H15Y18907   3.344   1.331   8.293 -1.1742  0.7252  1.6182
  167SAPE  C31618908   3.387   1.484   8.436 -0.7051  0.2299  0.2665
  167SAPE  H16X18909   3.298   1.551   8.428  1.1548  2.6775 -1.5336
  167SAPE  H16Y18910   3.474   1.548   8.461 -1.3581  0.1480  3.0033
  167SAPE  C31718911   3.356   1.404   8.563  0.4100  0.2020 -0.2268
  167SAPE  H17X18912   3.268   1.339   8.547  0.8393 -0.1426 -1.3226
  167SAPE  H17Y18913   3.329   1.463   8.653  2.1457 -1.1188  1.2321
  167SAPE  C31818914   3.471   1.311   8.594 -0.1603 -0.3023 -0.6552
  167SAPE  H18X18915   3.441   1.258   8.687  0.9943 -1.8204 -1.1001
  167SAPE  H18Y18916   3.560   1.374   8.615 -1.9974  2.1693  0.1544
  167SAPE  H18Z18917   3.481   1.223   8.527 -2.7643 -0.1698 -1.2992
  168SAPE     N18918   6.514   3.075   6.202 -0.1036 -0.2874 -0.7021
  168SAPE   HN118919   6.449   3.136   6.149 -0.9358  0.9391  1.6347
  168SAPE   HN218920   6.545   3.126   6.287 -0.0997 -3.5254  1.4473
  168SAPE   HN318921   6.593   3.053   6.138 -0.2899  3.2315 -2.3557
  168SAPE   C1218922   6.436   2.951   6.244  0.5928  0.7060 -0.6964
  168SAPE  H12A18923   6.327   2.965   6.229  0.4762  0.9356  0.3109
  168SAPE  H12B18924   6.462   2.926   6.349  1.1339 -2.3910 -1.4478
  168SAPE   C1118925   6.468   2.819   6.160 -0.1079  0.4269  0.7167
  168SAPE  H11A18926   6.431   2.850   6.060 -0.1879 -1.5946  0.0825
  168SAPE  H11B18927   6.411   2.731   6.196  3.2086 -1.5016  1.5855
  168SAPE     P18928   6.682   2.673   6.222  0.2555 -0.1748 -0.4404
  168SAPE   O1318929   6.594   2.607   6.328 -0.1458 -0.0820 -0.1059
  168SAPE   O1418930   6.739   2.576   6.121  0.0932 -0.3154  0.3261
  168SAPE   O1218931   6.611   2.790   6.146 -0.9302  0.3933 -0.3660
  168SAPE   O1118932   6.800   2.752   6.289 -0.3356 -0.2853 -0.3264
  168SAPE    C118933   6.766   2.839   6.403  0.3039  0.1741 -0.1142
  168SAPE    HA18934   6.806   2.943   6.393  2.0739  0.0646  3.9192
  168SAPE    HB18935   6.658   2.854   6.420  0.6475  1.2630  1.2676
  168SAPE    C218936   6.822   2.771   6.531  0.5401  0.0196 -0.1868
  168SAPE    HS18937   6.793   2.664   6.532  0.1597  0.1255  0.0595
  168SAPE   O2118938   6.781   2.840   6.651  0.1833  0.4106 -0.3838
  168SAPE   C2118939   6.660   2.842   6.689 -1.0041 -0.0789 -0.5670
  168SAPE   O2218940   6.564   2.799   6.625  0.0164  1.0675 -0.4111
  168SAPE   C2218941   6.660   2.908   6.833  0.1023  0.1928  0.1833
  168SAPE   H2R18942   6.754   2.968   6.837 -0.8938  2.1691 -2.8286
  168SAPE   H2S18943   6.573   2.975   6.841  0.5618  0.5930  2.2712
  168SAPE    C318944   6.973   2.767   6.516  0.0880 -0.5355  0.5819
  168SAPE    HX18945   7.004   2.869   6.484 -0.5032 -0.6523 -0.3906
  168SAPE    HY18946   7.005   2.703   6.431  0.9624  0.6527 -0.0170
  168SAPE   O3118947   7.031   2.717   6.636 -0.4850  0.3264  0.8614
  168SAPE   C3118948   7.081   2.802   6.726  0.2954  0.5665 -1.3503
  168SAPE   O3218949   7.121   2.914   6.703  0.1770 -0.8935 -0.0343
  168SAPE   C3218950   7.060   2.748   6.866 -0.8820  0.3003 -0.3225
  168SAPE   H2X18951   7.142   2.676   6.886 -0.1992  1.1455  0.0316
  168SAPE   H2Y18952   6.964   2.694   6.871  0.6253 -2.4055  1.9757
  168SAPE   C2318953   6.654   2.824   6.965  0.4657 -0.2953 -0.2658
  168SAPE   H3R18954   6.737   2.750   6.960 -1.6120 -2.7341 -0.2037
  168SAPE   H3S18955   6.563   2.761   6.959 -0.6679  1.0504  1.7254
  168SAPE   C2418956   6.626   2.921   7.083  0.6430 -0.0538 -0.1968
  168SAPE   H4R18957   6.543   2.995   7.078  0.9714  0.4888  1.5687
  168SAPE   H4S18958   6.715   2.987   7.090 -0.3677  1.5137 -1.3851
  168SAPE   C2518959   6.604   2.838   7.206  0.0827  0.1188 -0.8301
  168SAPE   H5R18960   6.536   2.751   7.203  0.2971 -0.0742 -0.1448
  168SAPE   C2618961   6.654   2.850   7.334 -0.6336  0.0567  0.7971
  168SAPE   H6R18962   6.628   2.784   7.418  0.2980  1.0574  1.8959
  168SAPE   C2718963   6.755   2.954   7.379  0.1087  0.3772  1.0548
  168SAPE   H7R18964   6.841   2.958   7.308 -0.8199 -0.1837 -0.1300
  168SAPE   H7S18965   6.806   2.910   7.468 -1.9675 -3.0938  0.6886
  168SAPE   C2818966   6.690   3.086   7.407 -0.1444  0.1265 -0.0300
  168SAPE   H8R18967   6.644   3.132   7.318 -1.8032  2.9370  2.1027
  168SAPE   C2918968   6.692   3.158   7.523  0.4709  0.1003 -0.0793
  168SAPE   H9R18969   6.629   3.248   7.536  0.3619 -0.0911  0.7929
  168SAPE  C21018970   6.765   3.110   7.647  0.2512 -0.3595 -0.2996
  168SAPE  H10R18971   6.865   3.071   7.618  0.9654  0.4770  0.9566
  168SAPE  H10S18972   6.718   3.018   7.687  0.7928 -0.2318  0.6597
  168SAPE  C21118973   6.780   3.218   7.754 -0.2006  1.1680  1.0267
  168SAPE  H11R18974   6.845   3.302   7.725  1.6641 -0.3764  0.5727
  168SAPE  C21218975   6.737   3.206   7.880  0.0091  0.5623 -0.3788
  168SAPE  H12R18976   6.730   3.293   7.947  0.1017 -0.3783  0.8680
  168SAPE  C21318977   6.665   3.085   7.940  0.7317 -0.0124  0.0014
  168SAPE  H13R18978   6.610   3.027   7.863  1.7409 -2.1198  0.7934
  168SAPE  H13S18979   6.592   3.130   8.010  0.5242  2.6735 -1.8046
  168SAPE  C21418980   6.744   2.984   8.016 -0.8254  0.8240 -0.5911
  168SAPE  H14R18981   6.781   2.903   7.952 -0.4110  1.3240 -0.9939
  168SAPE  C21518982   6.770   2.974   8.147  0.7913  0.0905 -0.2080
  168SAPE  H15R18983   6.833   2.892   8.184 -1.4332 -0.6541  2.2747
  168SAPE  C21618984   6.712   3.064   8.253 -0.4976 -0.2576 -0.1913
  168SAPE  H16R18985   6.667   3.155   8.209 -0.2249  0.9315  1.8811
  168SAPE  H16S18986   6.799   3.090   8.317 -0.1343 -0.8316 -0.4345
  168SAPE  C21718987   6.620   2.994   8.351  0.8501  0.7963 -0.5419
  168SAPE  H17R18988   6.539   2.930   8.310  1.7361 -0.5092 -0.3000
  168SAPE  H17S18989   6.560   3.075   8.398 -1.3148  0.8305 -3.1078
  168SAPE  C21818990   6.690   2.915   8.461  0.4650  0.5642 -0.1466
  168SAPE  H18R18991   6.749   2.836   8.407  0.0142  0.6874 -0.8322
  168SAPE  H18S18992   6.607   2.865   8.514 -0.8778  0.7411 -1.9971
  168SAPE  C21918993   6.771   3.004   8.564 -0.2310  1.7809 -0.3984
  168SAPE  H19R18994   6.703   3.081   8.608 -2.9734 -0.6516 -0.0855
  168SAPE  H19S18995   6.863   3.047   8.519  1.2024  0.4794  1.1340
  168SAPE  C22018996   6.819   2.919   8.683 -0.2581 -0.1516  1.2238
  168SAPE  H20R18997   6.862   2.991   8.756  0.0795  1.4306 -0.4689
  168SAPE  H20S18998   6.900   2.851   8.650 -0.7827 -0.2597  0.1397
  168SAPE  H20T18999   6.736   2.858   8.725 -1.7414  1.7834  1.2650
  168SAPE   C3319000   7.078   2.854   6.970 -0.3938 -0.6457 -0.1290
  168SAPE   H3X19001   6.984   2.912   6.958  0.3636  0.5302 -0.5915
  168SAPE   H3Y19002   7.163   2.921   6.946 -1.4104  0.9977  0.6978
  168SAPE   C3419003   7.083   2.804   7.119 -0.6074 -0.1159  0.0157
  168SAPE   H4X19004   7.164   2.728   7.126  2.1776  2.4447 -1.6976
  168SAPE   H4Y19005   6.994   2.750   7.157 -0.7702  0.6067  0.6748
  168SAPE   C3519006   7.119   2.923   7.209  0.8214  0.8609  0.3040
  168SAPE   H5X19007   7.044   3.004   7.208 -0.5832 -0.2744  2.8815
  168SAPE   H5Y19008   7.218   2.966   7.182  1.8122 -0.9428  0.8899
  168SAPE   C3619009   7.115   2.888   7.361  0.0832  0.1020 -0.3520
  168SAPE   H6X19010   7.169   2.793   7.379  1.3754  0.2787 -2.8295
  168SAPE   H6Y19011   7.013   2.873   7.400  0.3065 -1.0011 -0.1707
  168SAPE   C3719012   7.168   3.002   7.451 -0.1148  0.2255  0.4318
  168SAPE   H7X19013   7.095   3.086   7.449 -0.6776 -0.2628 -0.2706
  168SAPE   H7Y19014   7.255   3.045   7.396 -0.6873  1.4832  0.4776
  168SAPE   C3819015   7.200   2.960   7.594  0.1151  0.5577  0.2961
  168SAPE   H8X19016   7.237   2.856   7.586 -0.8274 -0.1128  3.4086
  168SAPE   H8Y19017   7.113   2.963   7.663 -0.4539  0.8120 -0.4240
  168SAPE   C3919018   7.322   3.036   7.659  0.3595 -0.2323 -0.1814
  168SAPE   H9X19019   7.285   3.138   7.678 -0.1317 -0.7244  1.6450
  168SAPE   H9Y19020   7.401   3.041   7.581  0.4009 -4.5233 -0.6764
  168SAPE  C31019021   7.380   2.950   7.774  0.6097  0.1370 -0.2503
  168SAPE  H10X19022   7.489   2.962   7.791  0.3121 -0.0496  2.1000
  168SAPE  H10Y19023   7.358   2.842   7.758  1.1617  0.2469 -1.8943
  168SAPE  C31119024   7.323   2.984   7.910 -0.1873 -0.0564  0.8620
  168SAPE  H11X19025   7.367   2.905   7.974  2.4693 -1.3035 -2.1990
  168SAPE  H11Y19026   7.215   2.961   7.922  0.5874 -3.2572  2.9385
  168SAPE  C31219027   7.353   3.121   7.954 -0.1766 -0.5769  0.0477
  168SAPE  H12X19028   7.282   3.191   7.904 -0.8660  0.1838  2.0031
  168SAPE  H12Y19029   7.452   3.164   7.927 -0.3066  0.1500  0.6885
  168SAPE  C31319030   7.327   3.127   8.106 -1.4991 -0.2200  0.5637
  168SAPE  H13X19031   7.348   3.234   8.127 -2.1042  0.3649 -1.5487
  168SAPE  H13Y19032   7.412   3.067   8.144 -0.1745  1.0543 -0.2904
  168SAPE  C31419033   7.181   3.104   8.162 -0.6151 -0.7179 -0.3018
  168SAPE  H14X19034   7.144   3.004   8.129  0.3260 -1.2580  0.2522
  168SAPE  H14Y19035   7.119   3.173   8.100  0.1486 -0.6839 -1.0488
  168SAPE  C31519036   7.169   3.147   8.305  0.2463  0.0222  0.1073
  168SAPE  H15X19037   7.074   3.205   8.313 -1.7557 -2.9265 -0.5592
  168SAPE  H15Y19038   7.257   3.206   8.338 -0.9211 -0.0295  3.8207
  168SAPE  C31619039   7.157   3.022   8.396  0.1931  0.0844  0.4001
  168SAPE  H16X19040   7.244   2.955   8.380  1.1300  1.4881 -0.6330
  168SAPE  H16Y19041   7.068   2.960   8.373  0.5571 -1.5294  2.9955
  168SAPE  C31719042   7.148   3.066   8.542  0.5273 -0.2215 -0.1623
  168SAPE  H17X19043   7.113   2.976   8.597 -1.5940  1.2779  1.1099
  168SAPE  H17Y19044   7.059   3.132   8.558  0.8145  0.1252  0.0136
  168SAPE  C31819045   7.283   3.106   8.599 -0.2369 -0.5024 -0.4953
  168SAPE  H18X19046   7.333   3.191   8.550 -2.2632  0.5166 -0.9077
  168SAPE  H18Y19047   7.352   3.021   8.581 -0.7255 -0.9278 -0.3776
  168SAPE  H18Z19048   7.281   3.139   8.705  0.6909  0.1558 -0.6700
  169SAPE     N19049   4.608   4.209   6.220 -0.6927 -0.4171  0.3393
  169SAPE   HN119050   4.554   4.295   6.197  0.4579  0.0642 -0.6469
  169SAPE   HN219051   4.707   4.237   6.231 -0.8599  0.2645  0.1581
  169SAPE   HN319052   4.588   4.142   6.143 -3.2000  1.8952 -1.2397
  169SAPE   C1219053   4.568   4.148   6.348 -0.3334  0.8758  0.3224
  169SAPE  H12A19054   4.457   4.135   6.348 -0.2003 -0.3928 -0.4124
  169SAPE  H12B19055   4.591   4.226   6.424  2.4903  1.3732 -0.9177
  169SAPE   C1119056   4.661   4.027   6.375 -0.0584 -0.3327 -0.0567
  169SAPE  H11A19057   4.607   3.978   6.459  1.1572 -0.9738  0.3744
  169SAPE  H11B19058   4.764   4.047   6.412 -0.1386  0.7102 -0.3795
  169SAPE     P19059   4.793   3.888   6.206 -0.3365  0.6539 -0.4566
  169SAPE   O1319060   4.763   3.772   6.113 -0.0320  0.2264  0.4872
  169SAPE   O1419061   4.878   3.997   6.149 -0.0799 -0.3690  0.7796
  169SAPE   O1219062   4.655   3.942   6.265 -0.2347 -0.3689  0.1496
  169SAPE   O1119063   4.870   3.831   6.336 -0.1538 -0.2864  0.1063
  169SAPE    C119064   4.843   3.699   6.381 -0.0714 -0.5242 -0.4225
  169SAPE    HA19065   4.736   3.696   6.412  0.4357 -2.0460  1.3237
  169SAPE    HB19066   4.850   3.628   6.296  0.6464  0.9564 -1.6543
  169SAPE    C219067   4.916   3.670   6.510 -0.8764 -0.6068 -0.0148
  169SAPE    HS19068   4.859   3.580   6.539 -0.4304 -3.2063 -5.7871
  169SAPE   O2119069   4.924   3.792   6.590 -1.0162 -0.6862 -0.3601
  169SAPE   C2119070   4.806   3.830   6.641  0.2506 -0.1144 -0.3174
  169SAPE   O2219071   4.705   3.762   6.634 -0.3090  0.1236  0.3435
  169SAPE   C2219072   4.826   3.942   6.734 -0.5529  0.0923 -0.6432
  169SAPE   H2R19073   4.841   4.034   6.673 -1.4244  0.2086 -0.6916
  169SAPE   H2S19074   4.729   3.957   6.785  1.1582  1.0945  2.6343
  169SAPE    C319075   5.059   3.620   6.482  0.0693  0.1319  0.7348
  169SAPE    HX19076   5.110   3.695   6.418  2.1666 -0.3155  1.7861
  169SAPE    HY19077   5.047   3.526   6.425 -1.1657  2.0416 -2.4712
  169SAPE   O3119078   5.126   3.585   6.601  0.1739 -0.0437 -0.2685
  169SAPE   C3119079   5.186   3.685   6.674 -0.0840 -0.1236  0.8450
  169SAPE   O3219080   5.192   3.799   6.635  0.5338 -0.1518  0.0827
  169SAPE   C3219081   5.230   3.630   6.814 -0.0619 -0.2116 -0.1297
  169SAPE   H2X19082   5.329   3.582   6.802 -0.9167 -1.3803 -3.8518
  169SAPE   H2Y19083   5.158   3.546   6.825  0.6828 -0.6966  1.1020
  169SAPE   C2319084   4.952   3.942   6.824 -0.1998  0.0181 -0.1470
  169SAPE   H3R19085   5.041   3.953   6.758 -0.7160  3.2872 -0.4763
  169SAPE   H3S19086   4.960   3.845   6.876  0.3165 -0.4353 -1.0531
  169SAPE   C2419087   4.953   4.045   6.934  0.1553 -0.3070 -0.4717
  169SAPE   H4R19088   4.895   4.007   7.021 -0.8376 -0.4681 -1.1881
  169SAPE   H4S19089   4.909   4.142   6.905 -0.6999 -0.9322 -1.3512
  169SAPE   C2519090   5.093   4.083   6.961  0.0957 -0.2923  0.4103
  169SAPE   H5R19091   5.157   4.100   6.873  0.7595 -0.1332  0.9186
  169SAPE   C2619092   5.148   4.088   7.087 -0.1975  0.9337  0.1888
  169SAPE   H6R19093   5.258   4.094   7.096 -0.0261 -0.6203 -0.5332
  169SAPE   C2719094   5.081   4.062   7.222 -0.5313 -0.3090  0.2975
  169SAPE   H7R19095   4.973   4.088   7.223  0.2642  3.8469 -0.7093
  169SAPE   H7S19096   5.127   4.122   7.303  0.8418 -1.1527  0.1734
  169SAPE   C2819097   5.114   3.921   7.254  0.5834 -0.0259 -0.3674
  169SAPE   H8R19098   5.106   3.854   7.166 -0.5325  1.1333 -1.1900
  169SAPE   C2919099   5.152   3.863   7.372  0.3666 -0.2085  0.1347
  169SAPE   H9R19100   5.173   3.755   7.368  1.8739  0.0385  0.5621
  169SAPE  C21019101   5.182   3.933   7.500  0.0840  0.0333 -0.0001
  169SAPE  H10R19102   5.252   4.017   7.482  0.4318 -0.3066 -0.2301
  169SAPE  H10S19103   5.232   3.870   7.578 -0.2929  0.5065  0.6362
  169SAPE  C21119104   5.060   3.998   7.561  0.3379  0.3440 -0.9600
  169SAPE  H11R19105   4.977   4.000   7.488 -0.4243  1.4546 -0.0970
  169SAPE  C21219106   5.035   4.035   7.687  0.2207 -0.6985  0.3757
  169SAPE  H12R19107   4.940   4.090   7.694 -0.4938 -1.8909  0.3087
  169SAPE  C21319108   5.108   4.031   7.820  0.6893 -0.2839  0.5842
  169SAPE  H13R19109   5.164   3.935   7.821 -0.0075 -0.7958 -2.0590
  169SAPE  H13S19110   5.029   4.024   7.897  1.2238  0.4055  1.2022
  169SAPE  C21419111   5.212   4.143   7.841  0.4749 -0.1731 -0.5936
  169SAPE  H14R19112   5.232   4.203   7.752 -0.5426  0.8586 -0.1519
  169SAPE  C21519113   5.271   4.176   7.960 -0.3918  0.0784 -0.1105
  169SAPE  H15R19114   5.351   4.251   7.955 -1.2972  1.2044  1.5302
  169SAPE  C21619115   5.247   4.108   8.094  0.8385  0.2141  0.5973
  169SAPE  H16R19116   5.348   4.080   8.131  0.0211 -1.9363  1.3664
  169SAPE  H16S19117   5.196   4.010   8.084 -0.7181  0.9609  0.9386
  169SAPE  C21719118   5.154   4.185   8.187 -0.0333  0.0367 -0.3367
  169SAPE  H17R19119   5.134   4.123   8.277  1.3400 -0.3377 -0.2605
  169SAPE  H17S19120   5.053   4.199   8.144  0.9338  1.3630 -2.3534
  169SAPE  C21819121   5.211   4.324   8.228 -1.1184  0.0595  0.1239
  169SAPE  H18R19122   5.139   4.376   8.295 -0.0749  0.8434  0.6623
  169SAPE  H18S19123   5.232   4.395   8.145  1.5267  1.5046  1.8732
  169SAPE  C21919124   5.340   4.310   8.302 -0.4920  0.2244  0.5114
  169SAPE  H19R19125   5.410   4.257   8.234 -1.3062  0.3394 -0.4428
  169SAPE  H19S19126   5.325   4.242   8.388  0.4535 -1.2256 -0.4240
  169SAPE  C22019127   5.402   4.445   8.343 -0.2996 -0.9595  0.1997
  169SAPE  H20R19128   5.483   4.430   8.418 -0.5856  0.3393  0.7946
  169SAPE  H20S19129   5.330   4.497   8.409 -0.3914 -0.8176 -0.0128
  169SAPE  H20T19130   5.430   4.507   8.256  0.4163 -0.4082  0.8082
  169SAPE   C3319131   5.233   3.731   6.933  0.2023  0.3726  0.3378
  169SAPE   H3X19132   5.132   3.764   6.968 -0.3689  0.7981 -1.6149
  169SAPE   H3Y19133   5.283   3.822   6.893 -1.6413  0.3706 -2.2142
  169SAPE   C3419134   5.300   3.676   7.055 -0.3963 -1.0776 -0.5865
  169SAPE   H4X19135   5.312   3.759   7.128 -1.5973  0.1056 -1.6775
  169SAPE   H4Y19136   5.402   3.640   7.029  0.3442  0.7023 -0.3248
  169SAPE   C3519137   5.219   3.564   7.125  1.0140 -0.1360  0.4793
  169SAPE   H5X19138   5.210   3.477   7.057 -0.4573  2.3826 -2.8582
  169SAPE   H5Y19139   5.118   3.600   7.154  0.6880 -1.5196  1.1141
  169SAPE   C3619140   5.284   3.532   7.264  0.7369 -0.4449 -0.2829
  169SAPE   H6X19141   5.301   3.628   7.317 -0.3587 -0.2628 -0.2356
  169SAPE   H6Y19142   5.378   3.487   7.225  2.6583  2.1104  1.0794
  169SAPE   C3719143   5.194   3.446   7.350 -0.5398  0.2414 -0.3118
  169SAPE   H7X19144   5.158   3.360   7.288  0.5157  0.7597 -1.7071
  169SAPE   H7Y19145   5.113   3.514   7.383  0.8977  0.8827  2.1082
  169SAPE   C3819146   5.267   3.402   7.475 -0.2657 -0.2112  0.0081
  169SAPE   H8X19147   5.363   3.349   7.456 -0.4305 -0.6215  0.2953
  169SAPE   H8Y19148   5.198   3.335   7.530 -0.0082  0.4313  1.1456
  169SAPE   C3919149   5.292   3.523   7.577 -0.0622  0.3369  0.8321
  169SAPE   H9X19150   5.197   3.579   7.582 -1.0077 -0.7455 -2.4021
  169SAPE   H9Y19151   5.379   3.579   7.535 -0.0887  0.2025  0.5942
  169SAPE  C31019152   5.330   3.465   7.716  0.0696  0.4040  0.1512
  169SAPE  H10X19153   5.405   3.384   7.706 -0.7236 -0.2503 -0.6510
  169SAPE  H10Y19154   5.235   3.429   7.762 -0.3286  2.4564  1.0670
  169SAPE  C31119155   5.364   3.568   7.820  0.3400 -0.3066  0.3928
  169SAPE  H11X19156   5.289   3.650   7.820  1.3301  0.6279 -0.2658
  169SAPE  H11Y19157   5.453   3.610   7.767 -0.8100 -0.4859 -1.7903
  169SAPE  C31219158   5.392   3.504   7.950  0.8443  0.2472 -0.2350
  169SAPE  H12X19159   5.453   3.412   7.934 -0.2991 -0.5521 -0.0611
  169SAPE  H12Y19160   5.293   3.477   7.993  1.0768 -0.2170  0.0199
  169SAPE  C31319161   5.443   3.612   8.049  0.1482  0.3032  0.2177
  169SAPE  H13X19162   5.377   3.701   8.042 -0.0543  0.0178 -2.6463
  169SAPE  H13Y19163   5.546   3.644   8.021  0.6785 -1.6550 -0.2302
  169SAPE  C31419164   5.453   3.563   8.196  0.3731 -0.2296  1.0508
  169SAPE  H14X19165   5.524   3.478   8.206 -1.2504 -2.2553 -2.6387
  169SAPE  H14Y19166   5.354   3.521   8.221 -0.7214  0.8645 -1.1524
  169SAPE  C31519167   5.493   3.678   8.288  0.4653 -0.9937 -0.0496
  169SAPE  H15X19168   5.583   3.736   8.258  0.3229 -0.7620 -0.0345
  169SAPE  H15Y19169   5.530   3.642   8.386  3.3042 -0.2001 -0.7248
  169SAPE  C31619170   5.387   3.783   8.316  0.0651 -0.3838  0.2253
  169SAPE  H16X19171   5.321   3.811   8.231 -0.6411  1.2482  1.2703
  169SAPE  H16Y19172   5.448   3.872   8.342  1.9403 -2.6454  4.5309
  169SAPE  C31719173   5.298   3.728   8.426  0.0160 -0.1643 -0.3744
  169SAPE  H17X19174   5.359   3.706   8.516  1.1404  1.5674 -0.6713
  169SAPE  H17Y19175   5.256   3.634   8.385  0.1267 -0.0552 -0.7386
  169SAPE  C31819176   5.193   3.835   8.457 -0.5513  0.0459 -0.5085
  169SAPE  H18X19177   5.110   3.796   8.520 -0.6407 -1.1296 -1.3135
  169SAPE  H18Y19178   5.143   3.884   8.371 -0.3338 -2.3485 -2.0961
  169SAPE  H18Z19179   5.245   3.915   8.514  1.2919 -1.6238  0.2668
  170SAPE     N19180   4.667   0.068   6.231 -0.1484  0.0574  0.1537
  170SAPE   HN119181   4.690  -0.032   6.210 -0.7882 -0.5148  1.9603
  170SAPE   HN219182   4.696   0.078   6.331 -2.4368  1.1000  0.7863
  170SAPE   HN319183   4.564   0.078   6.226 -0.3662 -1.7114  0.1918
  170SAPE   C1219184   4.765   0.156   6.146  0.6472  0.4579 -0.2950
  170SAPE  H12A19185   4.765   0.260   6.186  1.9923  0.6219 -0.6688
  170SAPE  H12B19186   4.716   0.148   6.046 -2.0691  0.8442  0.8958
  170SAPE   C1119187   4.902   0.102   6.109 -0.3860 -0.5073  0.0891
  170SAPE  H11A19188   4.957   0.177   6.050  1.0325  0.0842  2.0482
  170SAPE  H11B19189   4.899   0.006   6.053  0.3687 -0.9889  0.8474
  170SAPE     P19190   5.137   0.078   6.237  0.1911  0.2356  0.3183
  170SAPE   O1319191   5.192   0.009   6.114 -0.3310 -0.3954 -0.4719
  170SAPE   O1419192   5.170   0.216   6.255  0.2884 -0.8572 -0.6156
  170SAPE   O1219193   4.980   0.071   6.232 -0.1577  0.2818 -0.1151
  170SAPE   O1119194   5.181  -0.001   6.368  0.2638  0.5760 -0.2924
  170SAPE    C119195   5.086  -0.052   6.464 -0.3685 -0.0678 -0.9032
  170SAPE    HA19196   5.010  -0.108   6.406 -1.0032 -0.6840  0.4975
  170SAPE    HB19197   5.129  -0.129   6.531  0.9280 -0.9623 -2.6618
  170SAPE    C219198   5.031   0.060   6.548 -0.7841  0.3017  0.2318
  170SAPE    HS19199   4.986   0.128   6.473 -0.1752 -0.4405 -0.8351
  170SAPE   O2119200   5.146   0.117   6.627 -0.3324  0.1333  0.6257
  170SAPE   C2119201   5.130   0.249   6.652  0.3699  0.1346  0.4151
  170SAPE   O2219202   5.029   0.310   6.621  0.0553 -0.0013  0.5626
  170SAPE   C2219203   5.246   0.298   6.723  0.8684  0.6355  0.5357
  170SAPE   H2R19204   5.313   0.218   6.763  0.9139  1.4312  2.1451
  170SAPE   H2S19205   5.294   0.362   6.646 -1.5845 -0.7321 -2.3325
  170SAPE    C319206   4.915   0.006   6.641  0.0407 -0.3011  0.6031
  170SAPE    HX19207   4.976  -0.038   6.723  0.8822 -0.5241 -0.1282
  170SAPE    HY19208   4.857  -0.078   6.597  0.1326  0.0398 -0.1743
  170SAPE   O3119209   4.832   0.111   6.698  0.0371  0.8272  0.1094
  170SAPE   C3119210   4.751   0.170   6.605 -1.2614 -0.5352 -0.0789
  170SAPE   O3219211   4.731   0.120   6.496  0.0523 -0.1039 -0.2425
  170SAPE   C3219212   4.700   0.300   6.659 -0.6392 -0.7604 -0.0600
  170SAPE   H2X19213   4.766   0.380   6.619 -2.1341  0.6680  0.2215
  170SAPE   H2Y19214   4.699   0.307   6.770  3.2180  0.1767  0.0584
  170SAPE   C2319215   5.209   0.364   6.859  0.2617 -0.2392  0.1172
  170SAPE   H3R19216   5.134   0.440   6.831  1.1483  0.2992 -0.8340
  170SAPE   H3S19217   5.288   0.428   6.905 -0.5166  0.9024 -0.1024
  170SAPE   C2419218   5.150   0.279   6.968  0.0976  0.4331 -0.4144
  170SAPE   H4R19219   5.174   0.334   7.062 -0.3930 -1.5613  0.9540
  170SAPE   H4S19220   5.211   0.186   6.982 -0.4532  0.5428  4.4720
  170SAPE   C2519221   5.001   0.233   6.965 -0.3485  0.3958  0.3502
  170SAPE   H5R19222   4.998   0.133   6.919  1.2552  1.2812 -1.8629
  170SAPE   C2619223   4.896   0.308   7.001 -0.3443  0.4056  0.0905
  170SAPE   H6R19224   4.796   0.272   6.972 -0.8995  2.4312 -0.7228
  170SAPE   C2719225   4.905   0.448   7.055 -0.1487  0.1302  0.6854
  170SAPE   H7R19226   5.009   0.486   7.069 -0.4419  1.1891  0.0819
  170SAPE   H7S19227   4.861   0.457   7.157 -0.7395  0.0840  0.4350
  170SAPE   C2819228   4.840   0.547   6.972 -0.6773 -0.0465  0.8585
  170SAPE   H8R19229   4.861   0.531   6.865 -0.3223 -1.0310  1.0629
  170SAPE   C2919230   4.767   0.659   6.999 -0.2975  0.0202 -0.0660
  170SAPE   H9R19231   4.723   0.716   6.916 -0.0150 -2.1583 -1.8159
  170SAPE  C21019232   4.720   0.690   7.137 -0.1439 -0.2738  0.1452
  170SAPE  H10R19233   4.692   0.605   7.203  0.4509 -0.4864  0.1220
  170SAPE  H10S19234   4.619   0.738   7.134 -1.3348 -2.7084 -2.0015
  170SAPE  C21119235   4.820   0.774   7.207 -0.5288 -0.7994  0.1906
  170SAPE  H11R19236   4.925   0.759   7.177 -1.0759 -1.9436 -1.2812
  170SAPE  C21219237   4.815   0.847   7.328 -0.0466 -0.0690  0.0608
  170SAPE  H12R19238   4.900   0.913   7.348 -0.2928  0.8614 -1.7311
  170SAPE  C21319239   4.701   0.859   7.423  0.3885 -0.4137  0.8519
  170SAPE  H13R19240   4.623   0.784   7.395  0.1360  0.7457 -1.8229
  170SAPE  H13S19241   4.658   0.960   7.408  1.9450 -0.1007 -2.3919
  170SAPE  C21419242   4.729   0.859   7.567 -0.1314  0.1264  0.2206
  170SAPE  H14R19243   4.780   0.948   7.604  0.5663 -0.6368  1.1579
  170SAPE  C21519244   4.720   0.745   7.644 -0.7382 -0.3110 -0.1638
  170SAPE  H15R19245   4.752   0.753   7.749  0.0306 -0.1867 -0.4016
  170SAPE  C21619246   4.668   0.607   7.608  0.2808 -0.4708  0.2668
  170SAPE  H16R19247   4.754   0.537   7.614  0.2567 -0.6438 -1.1361
  170SAPE  H16S19248   4.634   0.609   7.502  2.0909 -2.3273 -0.4284
  170SAPE  C21719249   4.547   0.556   7.689  0.0527  0.0374  0.2245
  170SAPE  H17R19250   4.508   0.465   7.639 -0.7583 -1.9318  4.0276
  170SAPE  H17S19251   4.466   0.632   7.689 -1.9286 -1.9410 -1.2639
  170SAPE  C21819252   4.578   0.523   7.836  0.6706  0.1770 -0.3545
  170SAPE  H18R19253   4.633   0.607   7.885 -0.7462  2.0494 -1.8222
  170SAPE  H18S19254   4.641   0.432   7.822  2.1649  0.9421  1.0227
  170SAPE  C21919255   4.456   0.478   7.925 -0.4297 -0.2887  0.6341
  170SAPE  H19R19256   4.491   0.416   8.011  0.5501 -1.2504 -0.4232
  170SAPE  H19S19257   4.400   0.411   7.856  0.0540 -0.4936  0.4393
  170SAPE  C22019258   4.361   0.590   7.975 -0.0488 -0.6683 -0.1824
  170SAPE  H20R19259   4.416   0.639   8.059 -0.1035 -1.0856  0.1009
  170SAPE  H20S19260   4.268   0.546   8.015 -0.1442 -1.8965 -1.6806
  170SAPE  H20T19261   4.343   0.656   7.888 -0.1869  0.3053  0.5628
  170SAPE   C3319262   4.552   0.318   6.613  0.2245 -0.1607  0.6548
  170SAPE   H3X19263   4.537   0.279   6.510  0.5440 -1.5121  1.0917
  170SAPE   H3Y19264   4.530   0.427   6.614  0.3940 -0.1267  0.6754
  170SAPE   C3419265   4.440   0.254   6.699 -0.0378 -0.7859  0.3991
  170SAPE   H4X19266   4.340   0.279   6.658  0.2594  0.9004  0.6264
  170SAPE   H4Y19267   4.449   0.306   6.797  1.3173  1.5090 -0.8730
  170SAPE   C3519268   4.444   0.100   6.714 -0.4099 -0.5470  0.1696
  170SAPE   H5X19269   4.534   0.062   6.766  1.3306  0.2815 -2.0415
  170SAPE   H5Y19270   4.452   0.057   6.612 -1.0935 -1.3511  0.4450
  170SAPE   C3619271   4.332   0.036   6.801 -0.4856  0.2583  0.0350
  170SAPE   H6X19272   4.344  -0.074   6.794  0.8538  0.3058  1.1234
  170SAPE   H6Y19273   4.231   0.064   6.766 -0.2265  1.6299  0.3307
  170SAPE   C3719274   4.343   0.072   6.951 -0.1495 -0.1356  0.1271
  170SAPE   H7X19275   4.315   0.177   6.975 -1.4721 -0.5014  0.2330
  170SAPE   H7Y19276   4.452   0.065   6.970  0.0945  0.3592 -0.9895
  170SAPE   C3819277   4.277  -0.034   7.036  0.0330  0.2895  0.0978
  170SAPE   H8X19278   4.332  -0.129   7.021  1.1370  0.4432  2.7297
  170SAPE   H8Y19279   4.171  -0.049   7.005 -0.2739  1.0809  0.7274
  170SAPE   C3919280   4.270  -0.020   7.191  0.1475  0.3531 -0.1557
  170SAPE   H9X19281   4.220   0.077   7.208  0.5139  0.5756 -0.3175
  170SAPE   H9Y19282   4.371  -0.013   7.237  0.0641  0.3681  0.0232
  170SAPE  C31019283   4.185  -0.126   7.251  0.8117 -0.2394  0.6309
  170SAPE  H10X19284   4.208  -0.229   7.218  0.2319 -0.1133 -0.1840
  170SAPE  H10Y19285   4.086  -0.108   7.203  1.4183  0.2773 -0.4365
  170SAPE  C31119286   4.173  -0.121   7.402 -0.5905 -0.6214 -0.2342
  170SAPE  H11X19287   4.134  -0.217   7.442  0.6573 -1.2844 -0.5520
  170SAPE  H11Y19288   4.106  -0.038   7.433 -0.6244  0.6068 -3.2417
  170SAPE  C31219289   4.310  -0.104   7.469 -0.3037  0.1829 -0.1816
  170SAPE  H12X19290   4.335   0.004   7.462 -0.7631  0.2780 -0.3736
  170SAPE  H12Y19291   4.387  -0.160   7.411  0.3758  2.3943 -1.5767
  170SAPE  C31319292   4.306  -0.158   7.610 -0.4472  0.3417  0.2295
  170SAPE  H13X19293   4.410  -0.191   7.628 -1.1871 -3.0663 -0.9876
  170SAPE  H13Y19294   4.243  -0.249   7.623  0.9445 -0.9189 -1.3977
  170SAPE  C31419295   4.255  -0.054   7.711  1.1257 -0.0837  0.4883
  170SAPE  H14X19296   4.147  -0.039   7.690  1.5601  2.0903 -0.4675
  170SAPE  H14Y19297   4.306   0.042   7.686  0.5983 -0.1164 -0.7664
  170SAPE  C31519298   4.284  -0.080   7.860 -0.1461 -0.7246 -1.2774
  170SAPE  H15X19299   4.387  -0.119   7.873  0.5322  0.9375 -1.3566
  170SAPE  H15Y19300   4.221  -0.158   7.906  0.3592  0.1676  1.0628
  170SAPE  C31619301   4.255   0.046   7.940  0.2438 -1.0597 -0.1300
  170SAPE  H16X19302   4.154   0.087   7.918 -0.1308  0.3964  3.6622
  170SAPE  H16Y19303   4.332   0.123   7.916 -2.3854  2.1491  1.0365
  170SAPE  C31719304   4.249   0.032   8.097 -0.0639 -0.0137  0.2131
  170SAPE  H17X19305   4.335  -0.032   8.125 -0.8166 -1.3259 -0.4323
  170SAPE  H17Y19306   4.154  -0.012   8.132  1.0418 -0.1117  3.4711
  170SAPE  C31819307   4.282   0.164   8.164  0.2597 -0.2065  0.0597
  170SAPE  H18X19308   4.374   0.207   8.118 -0.2756 -0.6847 -1.4994
  170SAPE  H18Y19309   4.302   0.160   8.274 -1.3052  1.8670  0.4900
  170SAPE  H18Z19310   4.200   0.237   8.149  2.3879  2.0054 -1.6762
  171SAPE     N19311   1.527   2.673   6.430  0.3285  0.1887  0.1721
  171SAPE   HN119312   1.575   2.763   6.452 -1.7170  1.3278  0.2456
  171SAPE   HN219313   1.429   2.700   6.408  0.6328  0.7421 -0.5195
  171SAPE   HN319314   1.519   2.602   6.506 -0.6737  0.4320  0.3157
  171SAPE   C1219315   1.572   2.611   6.301 -0.2248 -0.8621 -0.4145
  171SAPE  H12A19316   1.602   2.689   6.228  2.5746 -2.4120 -1.0712
  171SAPE  H12B19317   1.486   2.550   6.265 -0.7368  0.1766 -0.9915
  171SAPE   C1119318   1.687   2.510   6.328 -0.0908  0.0495  0.1446
  171SAPE  H11A19319   1.773   2.578   6.346 -0.0723 -0.4464  2.0820
  171SAPE  H11B19320   1.712   2.455   6.235  2.1444 -0.3506  0.9374
  171SAPE     P19321   1.594   2.287   6.418 -0.4864  0.5776 -0.1460
  171SAPE   O1319322   1.529   2.247   6.546  0.8614  0.6957  0.1644
  171SAPE   O1419323   1.510   2.281   6.293 -0.2317 -0.3120 -0.1112
  171SAPE   O1219324   1.660   2.426   6.437 -0.6175  0.1318  0.0747
  171SAPE   O1119325   1.724   2.195   6.391  0.9449  0.1036 -0.2475
  171SAPE    C119326   1.825   2.198   6.489 -0.3781  0.1141  0.0366
  171SAPE    HA19327   1.922   2.166   6.445  0.7436  0.7162  1.9437
  171SAPE    HB19328   1.848   2.302   6.520  1.7045 -0.3624  0.2415
  171SAPE    C219329   1.802   2.100   6.603 -0.4030  0.1191 -0.2067
  171SAPE    HS19330   1.699   2.094   6.644  0.0164  0.2815  0.9073
  171SAPE   O2119331   1.892   2.124   6.710 -0.1219  0.1540  0.0493
  171SAPE   C2119332   1.852   2.147   6.839  0.7649 -0.0340  0.3366
  171SAPE   O2219333   1.736   2.142   6.878  0.0038  0.0230 -0.0827
  171SAPE   C2219334   1.977   2.176   6.917 -0.4388 -1.0438  0.0698
  171SAPE   H2R19335   2.042   2.087   6.903 -0.0152 -0.9836  1.5223
  171SAPE   H2S19336   2.040   2.258   6.877  1.2413 -2.0551  0.5800
  171SAPE    C319337   1.818   1.951   6.548 -0.5858 -0.1984  0.6469
  171SAPE    HX19338   1.899   1.963   6.472 -1.0192 -0.1226  0.1940
  171SAPE    HY19339   1.717   1.921   6.513  0.0412 -3.1716  1.1515
  171SAPE   O3119340   1.880   1.859   6.640  0.1273 -0.1988 -1.0010
  171SAPE   C3119341   1.808   1.750   6.663  0.5271  0.0526 -0.0639
  171SAPE   O3219342   1.712   1.716   6.601 -0.6966  0.4522 -0.7705
  171SAPE   C3219343   1.871   1.665   6.775 -0.1012  0.6430  0.2326
  171SAPE   H2X19344   1.973   1.638   6.741  0.6272  1.9854  1.2343
  171SAPE   H2Y19345   1.805   1.575   6.778  0.7429 -0.0610 -1.1998
  171SAPE   C2319346   1.933   2.219   7.060 -0.1691 -0.4811  0.2750
  171SAPE   H3R19347   1.881   2.141   7.119 -1.4949  0.0110 -0.2068
  171SAPE   H3S19348   1.860   2.303   7.053  0.4660 -0.0028 -0.9643
  171SAPE   C2419349   2.054   2.278   7.141 -0.2881 -0.8067 -0.3309
  171SAPE   H4R19350   2.015   2.351   7.215  0.5180 -1.2517  0.5477
  171SAPE   H4S19351   2.112   2.346   7.074  1.7029 -0.2020  1.8717
  171SAPE   C2519352   2.143   2.175   7.196 -0.3917  0.1927 -0.6699
  171SAPE   H5R19353   2.205   2.127   7.119  1.1294 -2.1208  1.7793
  171SAPE   C2619354   2.149   2.132   7.324  0.5014  0.1164  0.2029
  171SAPE   H6R19355   2.206   2.042   7.351  0.2719 -0.8088 -2.1270
  171SAPE   C2719356   2.066   2.182   7.447 -0.6081 -0.1059  0.3937
  171SAPE   H7R19357   1.958   2.184   7.422 -0.3155 -1.8969 -1.2769
  171SAPE   H7S19358   2.102   2.286   7.462  0.7957 -0.3129 -1.1688
  171SAPE   C2819359   2.074   2.110   7.573  0.3322 -0.2723  0.0410
  171SAPE   H8R19360   1.973   2.074   7.598 -0.5178  2.3916  0.8191
  171SAPE   C2919361   2.166   2.094   7.665  0.2687 -0.6822  0.3025
  171SAPE   H9R19362   2.131   2.039   7.754 -0.9138  1.4447  1.2400
  171SAPE  C21019363   2.304   2.155   7.661  0.2468 -0.2240 -0.0833
  171SAPE  H10R19364   2.301   2.244   7.727  2.1091 -0.9487  1.0666
  171SAPE  H10S19365   2.335   2.188   7.560  2.2611  0.9583  0.8625
  171SAPE  C21119366   2.413   2.069   7.727  0.0633 -0.3297  0.5532
  171SAPE  H11R19367   2.483   2.017   7.660 -0.0704 -0.4837  0.5324
  171SAPE  C21219368   2.420   2.052   7.863  0.1526 -0.5064  0.3250
  171SAPE  H12R19369   2.501   1.992   7.907 -0.4324 -0.8482  0.9508
  171SAPE  C21319370   2.337   2.109   7.980 -0.2447 -0.3825 -0.3301
  171SAPE  H13R19371   2.274   2.192   7.941 -1.2284 -0.9987 -0.0749
  171SAPE  H13S19372   2.402   2.169   8.048 -1.3264 -0.7088  1.0129
  171SAPE  C21419373   2.267   2.004   8.062  0.1829  0.3144 -0.0359
  171SAPE  H14R19374   2.204   1.931   8.009 -1.5307  0.7890  1.2688
  171SAPE  C21519375   2.267   2.003   8.197  0.6511 -0.4171  0.1324
  171SAPE  H15R19376   2.221   1.921   8.254 -0.0430 -1.6616 -2.0927
  171SAPE  C21619377   2.334   2.113   8.282  0.0180  1.0373  0.6563
  171SAPE  H16R19378   2.368   2.207   8.232  1.6326 -0.3225 -0.9372
  171SAPE  H16S19379   2.427   2.076   8.332 -0.6253 -1.5296  0.0564
  171SAPE  C21719380   2.242   2.155   8.405 -0.0766  0.0607  0.0770
  171SAPE  H17R19381   2.207   2.062   8.453 -1.4348  0.7546  0.4674
  171SAPE  H17S19382   2.156   2.212   8.365  0.6377 -0.1583 -1.9150
  171SAPE  C21819383   2.326   2.235   8.499 -0.0432 -0.1160 -0.5326
  171SAPE  H18R19384   2.379   2.307   8.433  1.3395 -2.5382 -2.2263
  171SAPE  H18S19385   2.407   2.181   8.553  0.2364 -0.1139 -0.9486
  171SAPE  C21919386   2.251   2.316   8.602  0.4227  0.1067 -0.4112
  171SAPE  H19R19387   2.160   2.356   8.552 -0.5092 -1.4536 -0.0619
  171SAPE  H19S19388   2.324   2.389   8.641  1.7181 -1.5508  0.3852
  171SAPE  C22019389   2.211   2.233   8.727  0.4088 -0.5956 -0.1166
  171SAPE  H20R19390   2.301   2.190   8.776  0.1160  0.5563  1.4979
  171SAPE  H20S19391   2.141   2.148   8.714 -0.7342  0.2967  0.0868
  171SAPE  H20T19392   2.173   2.304   8.803  1.3845  1.8860 -1.8374
  171SAPE   C3319393   1.884   1.735   6.908  0.3270  0.0249  0.3407
  171SAPE   H3X19394   1.919   1.839   6.888 -0.5868  0.0349 -1.4203
  171SAPE   H3Y19395   1.963   1.685   6.969  0.6080  0.2202  0.1417
  171SAPE   C3419396   1.766   1.732   6.998 -0.6484 -0.4881 -0.6353
  171SAPE   H4X19397   1.749   1.624   7.020 -1.1756 -0.3759 -0.4875
  171SAPE   H4Y19398   1.681   1.772   6.939  1.0101 -0.8694 -3.4115
  171SAPE   C3519399   1.786   1.811   7.131 -0.1180  0.2547 -0.0297
  171SAPE   H5X19400   1.689   1.851   7.170 -0.2954  0.8605 -1.0629
  171SAPE   H5Y19401   1.857   1.892   7.103 -0.0026 -0.4387 -1.8274
  171SAPE   C3619402   1.863   1.731   7.237  0.9081  0.0784  0.2717
  171SAPE   H6X19403   1.938   1.669   7.185 -0.9384 -0.3745 -2.0016
  171SAPE   H6Y19404   1.790   1.659   7.281  0.5771  0.2851  0.0662
  171SAPE   C3719405   1.919   1.823   7.349 -0.0354  0.5912  0.4485
  171SAPE   H7X19406   1.860   1.916   7.337 -1.4417 -0.2879  0.3461
  171SAPE   H7Y19407   2.027   1.847   7.346  0.6833 -2.1212  1.5752
  171SAPE   C3819408   1.891   1.760   7.489  0.2929 -0.6713 -0.3469
  171SAPE   H8X19409   1.971   1.802   7.555  0.8951  0.6529 -1.8523
  171SAPE   H8Y19410   1.897   1.649   7.494 -1.3847 -0.7375  1.1191
  171SAPE   C3919411   1.745   1.798   7.538 -0.9692  0.3667 -0.2869
  171SAPE   H9X19412   1.674   1.769   7.457  1.2094  2.0402 -2.9523
  171SAPE   H9Y19413   1.742   1.909   7.545  0.9419  0.5347 -1.6221
  171SAPE  C31019414   1.715   1.728   7.675 -0.2634 -0.8794 -0.2276
  171SAPE  H10X19415   1.705   1.618   7.665 -2.6873 -0.6280 -1.2054
  171SAPE  H10Y19416   1.623   1.785   7.699  0.2809  0.9692 -2.1821
  171SAPE  C31119417   1.822   1.750   7.780  0.1576 -0.0745 -0.0837
  171SAPE  H11X19418   1.863   1.853   7.775  0.1843  0.0257  1.6757
  171SAPE  H11Y19419   1.907   1.681   7.762 -0.1574 -0.4925  0.0051
  171SAPE  C31219420   1.774   1.712   7.926 -0.7289  0.0901  0.4010
  171SAPE  H12X19421   1.754   1.602   7.929 -1.2329  0.1349 -0.7250
  171SAPE  H12Y19422   1.679   1.766   7.945 -0.8341 -0.4159  1.4072
  171SAPE  C31319423   1.875   1.752   8.038  0.3188 -0.3312 -0.1888
  171SAPE  H13X19424   1.901   1.858   8.015 -3.1404  0.2836 -2.0065
  171SAPE  H13Y19425   1.960   1.681   8.023 -0.0064 -1.1315  1.5602
  171SAPE  C31419426   1.829   1.751   8.179 -0.0737 -0.2225 -0.5169
  171SAPE  H14X19427   1.801   1.645   8.197  1.2005 -0.3579  0.9057
  171SAPE  H14Y19428   1.737   1.812   8.190 -0.7456 -1.4592  1.2835
  171SAPE  C31519429   1.930   1.788   8.288 -0.1349 -0.3141 -0.6303
  171SAPE  H15X19430   1.958   1.891   8.259 -1.4969 -0.1355 -1.3876
  171SAPE  H15Y19431   2.026   1.733   8.286 -0.2024 -0.4295 -0.7248
  171SAPE  C31619432   1.861   1.805   8.424  0.1636  0.3368 -0.7743
  171SAPE  H16X19433   1.844   1.703   8.465 -1.5975  1.6182  1.9602
  171SAPE  H16Y19434   1.758   1.842   8.408 -1.3020 -2.9978  0.1310
  171SAPE  C31719435   1.942   1.885   8.526 -1.3207 -0.5765  0.0960
  171SAPE  H17X19436   2.052   1.878   8.512 -0.9414  4.4983 -1.6022
  171SAPE  H17Y19437   1.916   1.850   8.628 -0.2926 -1.5756  0.0263
  171SAPE  C31819438   1.901   2.033   8.524  0.2366 -0.8107 -0.1332
  171SAPE  H18X19439   1.948   2.092   8.605  0.7969 -0.7806 -0.4780
  171SAPE  H18Y19440   1.790   2.043   8.528  0.3182 -0.0563  0.6361
  171SAPE  H18Z19441   1.926   2.072   8.423 -3.6257  1.1425 -0.5594
  172SAPE     N19442   3.289   0.991   5.763 -0.1875 -0.1365 -0.2768
  172SAPE   HN119443   3.266   1.020   5.666  0.2980  1.8986  0.1708
  172SAPE   HN219444   3.322   1.077   5.811  3.0107 -2.8372  3.0268
  172SAPE   HN319445   3.365   0.921   5.750 -1.1478 -1.1995 -0.3263
  172SAPE   C1219446   3.172   0.937   5.847  0.4235 -0.1378 -0.2863
  172SAPE  H12A19447   3.228   0.916   5.941 -0.5518  1.0528  0.5938
  172SAPE  H12B19448   3.139   0.840   5.804 -1.2773 -0.8645  2.4084
  172SAPE   C1119449   3.072   1.055   5.867  0.2189 -1.0276 -0.3001
  172SAPE  H11A19450   2.995   1.029   5.943 -1.5841  0.6976 -1.4129
  172SAPE  H11B19451   3.016   1.081   5.774  1.4124  1.5345 -0.3908
  172SAPE     P19452   3.181   1.221   6.043 -0.6812  0.1267  0.4847
  172SAPE   O1319453   3.308   1.153   6.082 -0.1758 -0.0787  0.0974
  172SAPE   O1419454   3.182   1.363   6.053 -0.3171  0.3818 -1.0403
  172SAPE   O1219455   3.134   1.180   5.898 -0.2400  0.0285  0.3600
  172SAPE   O1119456   3.062   1.157   6.129 -0.2267 -0.2036  0.2058
  172SAPE    C119457   2.932   1.208   6.133  0.0201 -0.1353 -0.1792
  172SAPE    HA19458   2.914   1.293   6.064 -1.7197  0.4838  0.9681
  172SAPE    HB19459   2.852   1.135   6.106  0.1026 -0.0005 -0.7879
  172SAPE    C219460   2.893   1.262   6.272 -0.2658 -0.0990 -0.4570
  172SAPE    HS19461   2.932   1.366   6.275 -1.8453  0.7194 -3.8881
  172SAPE   O2119462   2.945   1.179   6.378  0.1706 -0.4901 -0.2497
  172SAPE   C2119463   3.061   1.196   6.431  0.4082 -0.2554 -0.5561
  172SAPE   O2219464   3.143   1.277   6.393 -0.4247  0.4076 -0.4701
  172SAPE   C2219465   3.081   1.110   6.553 -0.3923  0.4102 -0.4831
  172SAPE   H2R19466   3.109   1.008   6.517 -1.3879  0.3502 -1.1448
  172SAPE   H2S19467   3.163   1.153   6.614 -1.6075  0.8768  0.9026
  172SAPE    C319468   2.742   1.263   6.288 -0.3886 -0.1357 -0.4331
  172SAPE    HX19469   2.720   1.155   6.298  1.0344 -0.3445  0.7319
  172SAPE    HY19470   2.708   1.308   6.193  1.6839 -1.0832 -1.6888
  172SAPE   O3119471   2.702   1.345   6.399 -0.3708  0.0237 -0.1007
  172SAPE   C3119472   2.575   1.339   6.432 -0.4680 -0.2703  0.6677
  172SAPE   O3219473   2.490   1.289   6.357  0.0784 -0.0767 -0.3414
  172SAPE   C3219474   2.551   1.413   6.558 -0.0619  0.7506 -0.0288
  172SAPE   H2X19475   2.444   1.439   6.555 -1.1993 -3.2455 -0.3717
  172SAPE   H2Y19476   2.612   1.505   6.557  0.1819  0.6598  1.8641
  172SAPE   C2319477   2.961   1.101   6.644  0.0065  0.9176  0.7371
  172SAPE   H3R19478   2.894   1.035   6.585  0.7926  1.3883 -0.7433
  172SAPE   H3S19479   2.916   1.202   6.653 -2.2639 -0.0246  0.8080
  172SAPE   C2419480   2.981   1.032   6.772 -0.0272 -0.1495 -0.0298
  172SAPE   H4R19481   3.059   1.067   6.842 -1.2711  0.0013  1.3421
  172SAPE   H4S19482   3.013   0.930   6.741 -0.7530 -0.6038  0.6664
  172SAPE   C2519483   2.848   1.027   6.842 -0.2908 -0.2360  0.4087
  172SAPE   H5R19484   2.758   1.015   6.780  0.9661 -1.1996 -1.3282
  172SAPE   C2619485   2.830   1.033   6.975  0.7122  0.1503 -0.5960
  172SAPE   H6R19486   2.730   1.022   7.019  1.3675 -0.8529  0.7074
  172SAPE   C2719487   2.946   1.052   7.080  0.6419  0.1101  0.1921
  172SAPE   H7R19488   2.913   1.136   7.145 -1.8944 -0.8181  0.2371
  172SAPE   H7S19489   3.041   1.075   7.028 -0.4139  2.3839 -0.8428
  172SAPE   C2819490   2.961   0.934   7.172  1.0072 -0.3575  0.0362
  172SAPE   H8R19491   2.993   0.848   7.111 -1.1508 -0.5802 -0.8581
  172SAPE   C2919492   2.925   0.920   7.298  0.2656  0.3924  0.8268
  172SAPE   H9R19493   2.941   0.829   7.358 -0.9570 -0.8206 -0.6196
  172SAPE  C21019494   2.863   1.030   7.380  0.2822 -0.3214  0.2415
  172SAPE  H10R19495   2.802   0.979   7.458 -3.6370 -1.0001 -2.9015
  172SAPE  H10S19496   2.790   1.090   7.322  1.5549 -0.1694 -1.2908
  172SAPE  C21119497   2.963   1.124   7.444  0.6801 -0.4334 -0.1018
  172SAPE  H11R19498   2.976   1.218   7.389  0.6688 -1.6681 -2.3172
  172SAPE  C21219499   3.031   1.098   7.555  0.0176  0.0495  0.0220
  172SAPE  H12R19500   3.103   1.175   7.586  1.5161 -0.8966 -0.9915
  172SAPE  C21319501   3.033   0.973   7.635 -0.6650  0.4784  0.5322
  172SAPE  H13R19502   2.997   0.888   7.572  2.9015 -0.6650 -0.1621
  172SAPE  H13S19503   2.964   0.969   7.722 -1.9005 -1.8868 -0.4304
  172SAPE  C21419504   3.164   0.945   7.699 -0.3369  0.2426  0.4496
  172SAPE  H14R19505   3.192   0.844   7.664 -2.7404 -0.7111  1.1086
  172SAPE  C21519506   3.234   1.014   7.791 -0.3893 -0.1152  0.3174
  172SAPE  H15R19507   3.333   0.977   7.824 -0.3175 -1.8385 -1.5954
  172SAPE  C21619508   3.190   1.146   7.846 -0.4233  0.6966 -0.6339
  172SAPE  H16R19509   3.116   1.197   7.781 -2.2659 -2.3024 -1.0555
  172SAPE  H16S19510   3.286   1.203   7.849  0.3582 -0.4933 -1.8131
  172SAPE  C21719511   3.139   1.120   7.991  0.1274 -0.3553 -0.5742
  172SAPE  H17R19512   3.217   1.067   8.050 -1.7848 -2.0313  0.5588
  172SAPE  H17S19513   3.050   1.056   7.976 -0.3066  0.1274 -0.0699
  172SAPE  C21819514   3.095   1.243   8.066 -0.2305  0.0974  0.7994
  172SAPE  H18R19515   3.010   1.288   8.010 -1.1992 -0.0409  2.1049
  172SAPE  H18S19516   3.181   1.313   8.068 -0.0509 -0.1006  0.0336
  172SAPE  C21919517   3.041   1.220   8.202  0.4256  0.9167  0.7385
  172SAPE  H19R19518   3.118   1.191   8.277  1.9880  1.4776 -0.5938
  172SAPE  H19S19519   2.962   1.142   8.197 -0.6966  2.0936 -3.6437
  172SAPE  C22019520   2.972   1.345   8.255 -0.1444  0.2555  1.2127
  172SAPE  H20R19521   2.881   1.374   8.197 -0.0688 -0.1346  0.8898
  172SAPE  H20S19522   3.042   1.431   8.247 -1.3122  1.1407  0.2387
  172SAPE  H20T19523   2.945   1.332   8.362 -1.1476 -2.2518  0.7363
  172SAPE   C3319524   2.582   1.338   6.690  0.4593 -0.3160 -0.1911
  172SAPE   H3X19525   2.687   1.308   6.709 -0.3537 -2.3824  1.4175
  172SAPE   H3Y19526   2.527   1.243   6.675  1.1322 -0.5322 -1.4636
  172SAPE   C3419527   2.546   1.411   6.821 -0.2253  0.0206 -0.1437
  172SAPE   H4X19528   2.436   1.426   6.830  0.0139  1.9977 -0.0991
  172SAPE   H4Y19529   2.585   1.514   6.828  0.5374 -0.3526  1.5377
  172SAPE   C3519530   2.589   1.331   6.945 -0.5271 -0.1115  0.2327
  172SAPE   H5X19531   2.700   1.332   6.935 -0.4115  1.0108  1.4144
  172SAPE   H5Y19532   2.550   1.227   6.934 -2.8366  0.7277  0.0838
  172SAPE   C3619533   2.554   1.395   7.076  0.0611 -0.0634 -0.5016
  172SAPE   H6X19534   2.459   1.451   7.072 -0.0608 -0.3152 -1.2137
  172SAPE   H6Y19535   2.631   1.475   7.087  1.5069 -1.3748 -0.7397
  172SAPE   C3719536   2.580   1.298   7.192  0.4041  0.0025 -0.1928
  172SAPE   H7X19537   2.676   1.247   7.168 -0.7059 -2.4481  0.3067
  172SAPE   H7Y19538   2.504   1.217   7.183 -0.4672  0.8625 -0.6988
  172SAPE   C3819539   2.581   1.375   7.325 -0.1864 -0.2193  0.6691
  172SAPE   H8X19540   2.481   1.375   7.375  0.8573 -0.2288  2.8845
  172SAPE   H8Y19541   2.620   1.478   7.307 -0.7137 -0.5625 -3.0679
  172SAPE   C3919542   2.663   1.300   7.436 -0.2420  0.3595  0.0696
  172SAPE   H9X19543   2.772   1.308   7.414  0.0511 -1.6895  0.5363
  172SAPE   H9Y19544   2.635   1.193   7.442  0.8721  0.0760  0.4898
  172SAPE  C31019545   2.641   1.363   7.575 -0.5528 -0.7467 -0.2883
  172SAPE  H10X19546   2.540   1.333   7.609 -0.4828 -0.9617 -0.2635
  172SAPE  H10Y19547   2.657   1.473   7.576  2.3006 -1.0760 -0.4344
  172SAPE  C31119548   2.742   1.296   7.667  0.4373 -0.2837  0.2905
  172SAPE  H11X19549   2.847   1.316   7.640 -0.4393 -1.4627 -5.1595
  172SAPE  H11Y19550   2.743   1.187   7.643 -2.4217 -0.3675  0.2121
  172SAPE  C31219551   2.710   1.322   7.814 -0.3119 -0.1792  0.1455
  172SAPE  H12X19552   2.679   1.428   7.829  1.0715  0.3610 -0.5928
  172SAPE  H12Y19553   2.805   1.290   7.863 -0.8935 -0.4102  1.1497
  172SAPE  C31319554   2.601   1.236   7.874 -0.1656  0.3040 -0.1779
  172SAPE  H13X19555   2.617   1.129   7.851  0.4504  0.6273 -1.3162
  172SAPE  H13Y19556   2.498   1.260   7.837  0.4259  1.7087 -1.0134
  172SAPE  C31419557   2.590   1.251   8.024  0.5690 -0.0016 -0.3286
  172SAPE  H14X19558   2.579   1.360   8.039 -0.9972 -0.0087 -1.1593
  172SAPE  H14Y19559   2.688   1.226   8.069  1.0387  0.1775 -1.2358
  172SAPE  C31519560   2.477   1.164   8.075 -0.1741 -0.1316  0.3809
  172SAPE  H15X19561   2.499   1.056   8.064 -1.3662 -0.4909  1.4147
  172SAPE  H15Y19562   2.382   1.183   8.020  0.4957 -0.2091 -0.8465
  172SAPE  C31619563   2.440   1.191   8.222 -1.3913 -0.2116  0.3311
  172SAPE  H16X19564   2.348   1.132   8.240  0.2085 -1.8870  3.8943
  172SAPE  H16Y19565   2.427   1.298   8.246 -1.2993 -0.8048  3.4370
  172SAPE  C31719566   2.540   1.137   8.327 -0.0928 -0.1298 -0.6969
  172SAPE  H17X19567   2.643   1.153   8.290  0.1642  3.0298  0.9793
  172SAPE  H17Y19568   2.530   1.027   8.339 -1.7253  0.1313  0.8021
  172SAPE  C31819569   2.524   1.200   8.466 -0.3117  0.8362 -0.6077
  172SAPE  H18X19570   2.435   1.161   8.521  1.6398 -0.1521  2.0394
  172SAPE  H18Y19571   2.506   1.309   8.466  0.8908  1.1532  2.6670
  172SAPE  H18Z19572   2.608   1.176   8.534 -0.8187 -0.5740 -0.4457
  173SOPE     N19573   3.185   4.209  10.707  0.5665  0.1168 -0.1541
  173SOPE   HN119574   3.242   4.294  10.726 -0.3539  0.1765  2.9878
  173SOPE   HN219575   3.192   4.153  10.794 -0.2133 -0.6009 -0.5364
  173SOPE   HN319576   3.227   4.149  10.633 -0.4442 -0.6391 -0.1461
  173SOPE   C1219577   3.045   4.250  10.674  0.2242  0.0438  0.2333
  173SOPE  H12A19578   3.032   4.273  10.566 -1.0021  3.7626  1.0358
  173SOPE  H12B19579   3.015   4.341  10.731  2.2843 -1.2591  3.7113
  173SOPE   C1119580   2.950   4.129  10.708 -0.2750 -0.1396  0.5349
  173SOPE  H11A19581   2.865   4.147  10.639  0.4038 -2.0387 -0.9112
  173SOPE  H11B19582   2.934   4.141  10.817  2.8178 -3.0733  1.4767
  173SOPE     P19583   2.939   3.873  10.742 -0.1535  0.3541 -0.9401
  173SOPE   O1319584   2.823   3.918  10.822 -0.4823  0.4104  0.1092
  173SOPE   O1419585   3.040   3.781  10.803 -0.6995  0.2217  1.0873
  173SOPE   O1219586   3.008   4.001  10.675  0.0191 -0.1904  0.4828
  173SOPE   O1119587   2.887   3.803  10.612  0.5410  0.4764 -0.1939
  173SOPE    C119588   2.771   3.853  10.539  0.2884 -0.6471  0.3303
  173SOPE    HA19589   2.738   3.956  10.565 -0.2676 -0.7549  0.0672
  173SOPE    HB19590   2.686   3.784  10.559 -1.6485  2.1907  2.6002
  173SOPE    C219591   2.801   3.846  10.385 -0.1176 -0.1089  0.8226
  173SOPE    HS19592   2.701   3.856  10.336  1.7437 -0.5399 -3.5314
  173SOPE   O2119593   2.860   3.721  10.344 -0.0612 -0.1542  0.1860
  173SOPE   C2119594   2.786   3.615  10.351  0.4798 -0.4467  0.1828
  173SOPE   O2219595   2.665   3.607  10.372  0.4799 -0.1730 -0.4421
  173SOPE   C2219596   2.871   3.493  10.309 -0.1377  0.4069  0.3956
  173SOPE   H2R19597   2.867   3.427  10.398  0.1502 -0.6934 -0.3895
  173SOPE   H2S19598   2.979   3.519  10.295 -0.3017  0.4742 -0.8629
  173SOPE    C319599   2.894   3.963  10.338  0.7841  0.2643  0.6973
  173SOPE    HX19600   2.989   3.929  10.383  1.5492  0.1164 -0.9333
  173SOPE    HY19601   2.854   4.056  10.383 -0.8022  0.2061 -0.4814
  173SOPE   O3119602   2.925   3.962  10.194 -0.4979  0.0817  0.0099
  173SOPE   C3119603   2.895   4.075  10.130  0.1199 -1.4348  0.0395
  173SOPE   O3219604   2.849   4.177  10.176  0.3793 -0.1108 -0.5595
  173SOPE   C3219605   2.937   4.070   9.985 -0.1385  0.2020 -0.4084
  173SOPE   H2X19606   2.917   3.966   9.951 -0.4888  0.6171 -1.5188
  173SOPE   H2Y19607   3.048   4.068   9.989 -0.1312 -3.3204  1.8582
  173SOPE   C2319608   2.819   3.410  10.190  0.4168  0.1790  0.0904
  173SOPE   H3R19609   2.709   3.397  10.198  0.4898 -1.0945 -0.6121
  173SOPE   H3S19610   2.862   3.308  10.196 -1.1453 -0.5082  0.2117
  173SOPE   C2419611   2.852   3.483  10.062 -0.1443  0.4531 -0.1037
  173SOPE   H4R19612   2.800   3.580  10.057 -0.9383  0.0887  0.8117
  173SOPE   H4S19613   2.962   3.495  10.052 -0.2773  0.2802 -2.3102
  173SOPE   C2519614   2.818   3.391   9.941  0.3310  0.2030  0.4412
  173SOPE   H5R19615   2.911   3.335   9.917  0.2158 -0.0792  0.6473
  173SOPE   H5S19616   2.735   3.324   9.972  0.0415  0.0621 -0.6090
  173SOPE   C2619617   2.770   3.468   9.820 -1.1759 -0.4649 -0.0663
  173SOPE   H6R19618   2.728   3.398   9.744 -0.7810  2.8481 -3.6475
  173SOPE   H6S19619   2.689   3.537   9.850 -0.3760  0.8695 -0.8604
  173SOPE   C2719620   2.886   3.547   9.758 -0.0115 -0.3772 -0.2015
  173SOPE   H7R19621   2.907   3.632   9.825  0.4758 -0.5582 -0.1192
  173SOPE   H7S19622   2.974   3.481   9.743  1.1099  0.7854  1.0083
  173SOPE   C2819623   2.858   3.615   9.623  0.0923 -0.2204 -0.7123
  173SOPE   H8R19624   2.835   3.529   9.556 -0.1468 -1.3150  0.7362
  173SOPE   H8S19625   2.775   3.686   9.646 -0.0005 -1.1596  2.2707
  173SOPE   C2919626   2.979   3.695   9.580  0.1077 -0.1315  0.4769
  173SOPE   H9119627   2.994   3.781   9.648 -0.1695  0.2056  0.1138
  173SOPE  C21019628   3.041   3.691   9.461 -0.1328  0.6283  0.2337
  173SOPE  H10119629   3.129   3.757   9.451  1.3848 -0.9959  2.1858
  173SOPE  C21119630   2.992   3.596   9.346 -0.1609  0.2537  0.3875
  173SOPE  H11R19631   2.961   3.498   9.387 -1.2487  0.2598 -0.3584
  173SOPE  H11S19632   3.083   3.567   9.289 -1.2948  1.1545 -2.0428
  173SOPE  C21219633   2.894   3.656   9.246 -0.2092 -0.0557  0.1517
  173SOPE  H12R19634   2.899   3.766   9.249 -0.9601  0.0806 -2.0415
  173SOPE  H12S19635   2.793   3.634   9.287  0.1861 -1.8251  0.2604
  173SOPE  C21319636   2.906   3.612   9.105  0.3060  0.2055  0.0041
  173SOPE  H13R19637   3.010   3.622   9.068 -0.1844 -1.7921 -2.1431
  173SOPE  H13S19638   2.841   3.680   9.045 -1.6181 -0.7704  0.8868
  173SOPE  C21419639   2.871   3.467   9.077  0.5757 -0.1187  0.1492
  173SOPE  H14R19640   2.765   3.459   9.108  0.9193  0.8878  1.6833
  173SOPE  H14S19641   2.928   3.409   9.152  0.9900  0.4539  0.2836
  173SOPE  C21519642   2.889   3.451   8.925 -0.5574  0.8704  0.6954
  173SOPE  H15R19643   2.999   3.441   8.910 -0.7984 -0.4210 -0.4662
  173SOPE  H15S19644   2.848   3.543   8.878 -1.8491  0.4307  0.9384
  173SOPE  C21619645   2.826   3.320   8.873  0.2909  0.5433 -0.1358
  173SOPE  H16R19646   2.719   3.336   8.899  0.1566  1.4293 -1.1183
  173SOPE  H16S19647   2.861   3.236   8.936 -2.4507 -0.0367  0.7538
  173SOPE  C21719648   2.843   3.304   8.717 -0.1046 -0.6015 -0.6038
  173SOPE  H17R19649   2.802   3.394   8.667  0.2735  0.7642  1.4502
  173SOPE  H17S19650   2.785   3.214   8.688  1.3039 -2.1465  1.0814
  173SOPE  C21819651   2.996   3.291   8.684  0.6391 -0.3013  0.3696
  173SOPE  H18R19652   3.040   3.202   8.733 -2.4774 -0.9954  2.1707
  173SOPE  H18S19653   3.060   3.379   8.706  0.9528 -0.5723  0.5511
  173SOPE  H18T19654   2.995   3.266   8.575 -1.7940  0.3974  0.1652
  173SOPE   C3319655   2.883   4.185   9.892 -0.0451  0.1809 -0.9091
  173SOPE   H3X19656   2.962   4.264   9.895  0.7199 -0.5826 -0.5063
  173SOPE   H3Y19657   2.800   4.243   9.938  1.5713  2.3871 -0.6021
  173SOPE   C3419658   2.857   4.149   9.749  0.0610 -0.3513  0.2724
  173SOPE   H4X19659   2.791   4.230   9.712  0.9012 -0.1202 -0.7583
  173SOPE   H4Y19660   2.799   4.054   9.746  0.0148 -0.2965 -0.9853
  173SOPE   C3519661   2.981   4.136   9.662 -0.4715  1.0144  0.2939
  173SOPE   H5X19662   3.054   4.075   9.718 -1.5768 -1.2001 -0.5719
  173SOPE   H5Y19663   3.016   4.242   9.665 -0.2427  0.9625 -0.2948
  173SOPE   C3619664   2.952   4.097   9.520 -0.2862 -0.7883 -0.2493
  173SOPE   H6X19665   2.862   4.152   9.483 -0.7129  0.4170  2.3315
  173SOPE   H6Y19666   2.936   3.988   9.504  1.9710 -1.2754  0.5079
  173SOPE   C3719667   3.076   4.133   9.426 -0.0810  0.7586  0.6829
  173SOPE   H7X19668   3.158   4.066   9.460  1.0437  0.3633 -2.4313
  173SOPE   H7Y19669   3.088   4.240   9.450  1.4025  0.4261  1.5602
  173SOPE   C3819670   3.044   4.094   9.286  0.3618  0.4164  1.1945
  173SOPE   H8X19671   2.955   4.152   9.255  0.6470 -0.3741 -1.4396
  173SOPE   H8Y19672   3.019   3.986   9.271 -1.2258  0.9488 -0.2830
  173SOPE   C3919673   3.158   4.124   9.187  0.3523 -0.4942 -1.0651
  173SOPE   H9X19674   3.189   4.230   9.197  1.7793 -0.8688 -1.2668
  173SOPE   H9Y19675   3.115   4.117   9.085  2.6790 -0.0987 -2.1558
  173SOPE  C31019676   3.285   4.043   9.196  0.5950 -0.3906 -0.4852
  173SOPE  H10X19677   3.337   4.053   9.294  0.1550 -1.9076 -0.0656
  173SOPE  H10Y19678   3.357   4.090   9.126 -0.7651  1.9920 -0.3874
  173SOPE  C31119679   3.254   3.893   9.158  0.4883 -0.0243 -0.6287
  173SOPE  H11X19680   3.172   3.851   9.219 -0.8380  2.0433 -0.8830
  173SOPE  H11Y19681   3.347   3.835   9.178  1.5049  2.4013  2.7284
  173SOPE  C31219682   3.204   3.890   9.013  0.2026  0.0886  0.0431
  173SOPE  H12X19683   3.247   3.974   8.955  0.7418 -0.0998  0.1639
  173SOPE  H12Y19684   3.094   3.901   9.008  0.1604  2.5695  3.2059
  173SOPE  C31319685   3.250   3.760   8.949 -0.0220  0.4049 -0.4313
  173SOPE  H13X19686   3.206   3.673   9.002 -0.6507 -0.7708 -2.7448
  173SOPE  H13Y19687   3.360   3.758   8.960  0.2334  1.4563 -2.3802
  173SOPE  C31419688   3.225   3.752   8.800  0.6388 -0.0770  0.1847
  173SOPE  H14X19689   3.260   3.650   8.772  1.2950  0.2098 -0.0489
  173SOPE  H14Y19690   3.283   3.833   8.752 -0.3380 -0.7193 -2.2471
  173SOPE  C31519691   3.079   3.761   8.755 -0.2139  0.0436  0.0728
  173SOPE  H15X19692   3.039   3.863   8.773  0.4554  0.6864 -1.8203
  173SOPE  H15Y19693   3.028   3.694   8.827  2.8363 -1.9208  0.6152
  173SOPE  C31619694   3.063   3.719   8.608 -0.2946  0.5761 -0.9442
  173SOPE  H16X19695   3.113   3.619   8.605  0.1996  0.5832  2.7742
  173SOPE  H16Y19696   3.114   3.787   8.537 -0.4975  0.6449 -1.0238
  173SOPE  C31719697   2.916   3.713   8.563 -1.0605  0.0004  0.3000
  173SOPE  H17X19698   2.885   3.819   8.574  2.2038  1.2341 -0.9792
  173SOPE  H17Y19699   2.856   3.642   8.625 -1.5941  0.4563  0.3121
  173SOPE  C31819700   2.924   3.679   8.412 -0.1303 -0.2690  0.3331
  173SOPE  H18X19701   2.981   3.758   8.358 -1.5607 -0.1935 -1.1289
  173SOPE  H18Y19702   2.822   3.674   8.370 -1.1954 -0.0612  2.7465
  173SOPE  H18Z19703   2.973   3.579   8.402 -0.6415 -0.5048  0.1830
  174SOPE     N19704   2.051   3.363  10.993  0.3775 -0.7116  0.5263
  174SOPE   HN119705   2.001   3.373  10.903  1.9876 -1.9281 -0.5526
  174SOPE   HN219706   2.001   3.427  11.058 -3.2431 -1.7575 -1.0040
  174SOPE   HN319707   2.152   3.389  10.993  0.3446 -0.5447 -0.6117
  174SOPE   C1219708   2.054   3.225  11.041  0.1584  0.3591 -0.8162
  174SOPE  H12A19709   2.036   3.167  10.947  1.0505 -0.4298 -0.5195
  174SOPE  H12B19710   1.982   3.209  11.123  1.0114  0.0193 -0.1111
  174SOPE   C1119711   2.195   3.196  11.099 -0.3335 -0.2876 -0.4597
  174SOPE  H11A19712   2.194   3.090  11.135 -0.8963 -0.3679 -0.6960
  174SOPE  H11B19713   2.216   3.261  11.186  0.4446 -1.1474  0.0145
  174SOPE     P19714   2.431   3.109  11.010 -0.0881  0.0616 -0.1443
  174SOPE   O1319715   2.463   3.093  11.154 -0.0168  0.6413 -0.6307
  174SOPE   O1419716   2.534   3.163  10.922  0.4415 -0.9301 -0.5244
  174SOPE   O1219717   2.305   3.211  11.006 -0.0762  0.3964 -0.4478
  174SOPE   O1119718   2.383   2.970  10.943 -0.8627 -0.2481 -0.9941
  174SOPE    C119719   2.350   2.957  10.808  0.0450  0.1735  0.3065
  174SOPE    HA19720   2.342   3.056  10.757  1.4085 -0.5818 -1.4855
  174SOPE    HB19721   2.251   2.908  10.802 -0.9234  2.1126 -0.6941
  174SOPE    C219722   2.452   2.862  10.743 -0.0202  0.7225 -0.5911
  174SOPE    HS19723   2.477   2.779  10.812 -1.2573  0.8875  0.0903
  174SOPE   O2119724   2.563   2.937  10.693 -0.8595  0.6436  0.7348
  174SOPE   C2119725   2.685   2.882  10.689  1.0964 -0.8858  0.4049
  174SOPE   O2219726   2.703   2.767  10.727  0.1732  0.4410 -0.3851
  174SOPE   C2219727   2.780   2.991  10.653  0.0497 -0.3734 -0.7747
  174SOPE   H2R19728   2.805   3.045  10.747  0.9119 -0.2768 -1.0491
  174SOPE   H2S19729   2.731   3.064  10.585  0.2725  1.2870  0.7950
  174SOPE    C319730   2.379   2.787  10.621 -0.4334  0.1701 -0.5719
  174SOPE    HX19731   2.290   2.731  10.657  0.9109 -0.8159  1.4223
  174SOPE    HY19732   2.453   2.717  10.578 -1.1914 -1.2809  0.3950
  174SOPE   O3119733   2.334   2.886  10.522  0.3913  0.3934 -0.0075
  174SOPE   C3119734   2.431   2.926  10.438 -0.2396 -0.7948  0.0350
  174SOPE   O3219735   2.536   2.878  10.415 -0.5879 -0.5009  0.3234
  174SOPE   C3219736   2.376   3.044  10.361  0.2241 -0.2495  0.2124
  174SOPE   H2X19737   2.385   3.122  10.440 -2.4538  0.4639 -0.1119
  174SOPE   H2Y19738   2.267   3.046  10.344  0.6410 -2.2651 -3.9608
  174SOPE   C2319739   2.902   2.925  10.578  0.4440  0.3924 -0.3929
  174SOPE   H3R19740   2.945   2.840  10.635  0.5241  1.6570  1.5370
  174SOPE   H3S19741   2.988   2.992  10.555 -0.4788  1.4896 -0.7995
  174SOPE   C2419742   2.867   2.882  10.437  0.3574 -0.1465  1.3460
  174SOPE   H4R19743   2.956   2.825  10.402  1.0007  1.2600  0.6315
  174SOPE   H4S19744   2.788   2.804  10.437  2.4548 -2.4216  2.1260
  174SOPE   C2519745   2.835   2.994  10.334  0.0717  0.2439 -0.7360
  174SOPE   H5R19746   2.734   3.040  10.347  0.9039  1.9415  0.0189
  174SOPE   H5S19747   2.908   3.076  10.347  0.0552 -0.1655  2.6834
  174SOPE   C2619748   2.831   2.939  10.185  0.7603  0.9065 -0.9976
  174SOPE   H6R19749   2.923   2.877  10.178 -0.5494 -1.0348 -2.0143
  174SOPE   H6S19750   2.750   2.863  10.182 -0.3116  1.7529  2.3823
  174SOPE   C2719751   2.821   3.040  10.078  0.1168 -0.5197 -0.2180
  174SOPE   H7R19752   2.755   3.117  10.124  0.4830 -0.0336 -0.5011
  174SOPE   H7S19753   2.916   3.090  10.050 -0.5347  2.0204  1.7768
  174SOPE   C2819754   2.751   2.991   9.949  0.4328 -0.0855  0.7965
  174SOPE   H8R19755   2.653   2.947   9.977  1.2771 -2.5784  0.1676
  174SOPE   H8S19756   2.734   3.083   9.891  2.5659 -1.0690 -1.5970
  174SOPE   C2919757   2.834   2.890   9.866 -0.5095  0.1762 -0.5567
  174SOPE   H9119758   2.822   2.784   9.893  0.2949  0.4585  0.9696
  174SOPE  C21019759   2.922   2.932   9.776 -0.2267 -0.7538  0.1152
  174SOPE  H10119760   2.971   2.859   9.710 -0.1962 -0.9063  0.3076
  174SOPE  C21119761   2.962   3.082   9.735 -0.5096 -0.1384 -0.7952
  174SOPE  H11R19762   3.068   3.103   9.761  0.2659 -2.8409 -1.4994
  174SOPE  H11S19763   2.908   3.153   9.802  1.1316 -1.2028  1.8302
  174SOPE  C21219764   2.923   3.109   9.595 -0.0079 -0.7409  0.2720
  174SOPE  H12R19765   2.978   3.042   9.525  1.1880  1.1541 -0.6771
  174SOPE  H12S19766   2.954   3.214   9.577 -1.1718 -0.1881  1.3885
  174SOPE  C21319767   2.769   3.091   9.569  0.6134  0.1303 -0.4306
  174SOPE  H13R19768   2.704   3.163   9.624 -2.3968 -0.9184 -2.3531
  174SOPE  H13S19769   2.747   2.989   9.606 -0.1073  1.2987  2.6966
  174SOPE  C21419770   2.741   3.111   9.421  0.1824  0.2301  0.2522
  174SOPE  H14R19771   2.819   3.059   9.361  0.4745  1.9077 -0.8797
  174SOPE  H14S19772   2.759   3.218   9.399 -2.9827  0.7956 -0.0055
  174SOPE  C21519773   2.604   3.069   9.377  0.4130 -0.3135 -0.4231
  174SOPE  H15R19774   2.526   3.146   9.387 -2.4470 -2.9831 -0.7082
  174SOPE  H15S19775   2.560   2.991   9.443  2.5171 -0.4541  0.9300
  174SOPE  C21619776   2.596   3.032   9.225 -0.3534  0.1048 -0.6945
  174SOPE  H16R19777   2.590   2.921   9.224  1.9532 -0.0569 -1.2201
  174SOPE  H16S19778   2.689   3.069   9.177 -1.6603  1.0474 -2.6524
  174SOPE  C21719779   2.482   3.095   9.154 -0.4681  0.0073 -0.4837
  174SOPE  H17R19780   2.488   3.206   9.159  1.4541 -0.0929  0.2070
  174SOPE  H17S19781   2.385   3.051   9.185 -1.0710 -0.3990 -2.7171
  174SOPE  C21819782   2.496   3.048   9.007 -0.3734 -0.3038  0.0020
  174SOPE  H18R19783   2.600   3.062   8.970 -0.2414 -0.3138  0.3594
  174SOPE  H18S19784   2.438   3.111   8.937  3.2890  1.2926 -1.9268
  174SOPE  H18T19785   2.472   2.944   8.979  2.6893 -1.0600 -0.2435
  174SOPE   C3319786   2.460   3.083  10.236  0.4209  1.1134 -0.4113
  174SOPE   H3X19787   2.497   2.986  10.196 -1.3046  0.0817  0.4024
  174SOPE   H3Y19788   2.541   3.158  10.250  1.6343 -0.0980 -0.6912
  174SOPE   C3419789   2.366   3.136  10.131 -0.6679  0.6047  1.1311
  174SOPE   H4X19790   2.295   3.209  10.177 -1.4558  1.4876 -1.3065
  174SOPE   H4Y19791   2.314   3.047  10.090  1.1055  0.4098 -0.8333
  174SOPE   C3519792   2.447   3.205  10.025  0.2240  0.1644  0.2820
  174SOPE   H5X19793   2.534   3.148   9.986  1.0936  1.7840 -0.2524
  174SOPE   H5Y19794   2.486   3.290  10.085 -0.9962  0.3894  0.7933
  174SOPE   C3619795   2.355   3.258   9.919 -0.2815 -0.8472  0.3529
  174SOPE   H6X19796   2.285   3.323   9.976  0.5115  0.2875  0.0495
  174SOPE   H6Y19797   2.292   3.179   9.873 -0.5109  0.9690 -2.7158
  174SOPE   C3719798   2.435   3.330   9.815 -0.0666  0.5744 -0.1828
  174SOPE   H7X19799   2.515   3.258   9.789 -0.2628 -0.4886  1.9586
  174SOPE   H7Y19800   2.490   3.422   9.844  2.1005 -0.9634  0.8077
  174SOPE   C3819801   2.357   3.351   9.682  0.9720  0.1161 -0.0146
  174SOPE   H8X19802   2.275   3.426   9.689  0.6158 -0.3286  0.7961
  174SOPE   H8Y19803   2.316   3.255   9.643  0.0283  1.3024 -2.1471
  174SOPE   C3919804   2.456   3.397   9.577  0.2898 -0.9411  0.0162
  174SOPE   H9X19805   2.535   3.320   9.562  2.4579  0.7857  1.9244
  174SOPE   H9Y19806   2.501   3.496   9.600 -0.3294 -1.2781  3.1577
  174SOPE  C31019807   2.377   3.420   9.450 -0.1068  0.3220  0.8950
  174SOPE  H10X19808   2.312   3.506   9.477  0.1078  1.4553 -1.9085
  174SOPE  H10Y19809   2.320   3.327   9.428 -0.5820  0.7148  0.4275
  174SOPE  C31119810   2.463   3.457   9.334 -0.0060  0.0451 -0.0074
  174SOPE  H11X19811   2.532   3.376   9.304  1.9362  1.0059  1.6347
  174SOPE  H11Y19812   2.528   3.540   9.368 -2.0558  1.0247  1.8028
  174SOPE  C31219813   2.384   3.484   9.203  0.8303  0.0918  0.2959
  174SOPE  H12X19814   2.292   3.547   9.204 -1.4816 -3.0732  1.2867
  174SOPE  H12Y19815   2.346   3.399   9.143 -1.4110  0.7123  0.7337
  174SOPE  C31319816   2.478   3.562   9.105 -0.5129 -0.3758  0.1595
  174SOPE  H13X19817   2.539   3.484   9.055 -1.1072 -0.8030  0.0972
  174SOPE  H13Y19818   2.533   3.635   9.168 -2.3679 -0.4519  1.9555
  174SOPE  C31419819   2.395   3.629   8.996 -0.6934 -0.2590 -0.6929
  174SOPE  H14X19820   2.352   3.722   9.040 -0.3118  0.1861 -1.2388
  174SOPE  H14Y19821   2.310   3.564   8.966 -1.9675  1.1466 -0.2659
  174SOPE  C31519822   2.478   3.662   8.872 -0.7387 -0.1136 -0.6229
  174SOPE  H15X19823   2.535   3.568   8.853 -3.3897 -1.8209 -0.5761
  174SOPE  H15Y19824   2.554   3.739   8.899  0.2745 -0.8593 -1.2603
  174SOPE  C31619825   2.393   3.716   8.759 -0.1733  0.4029  0.3136
  174SOPE  H16X19826   2.327   3.628   8.743 -1.8093  0.9100  3.4274
  174SOPE  H16Y19827   2.464   3.735   8.676  2.3583  0.8866  2.4477
  174SOPE  C31719828   2.313   3.842   8.796 -0.4675  0.3662  0.1402
  174SOPE  H17X19829   2.371   3.904   8.868  1.3026 -0.7347 -0.2865
  174SOPE  H17Y19830   2.221   3.811   8.850  0.4723 -0.7128  1.1976
  174SOPE  C31819831   2.280   3.918   8.669  0.1547 -0.1724 -0.4421
  174SOPE  H18X19832   2.234   4.015   8.698  0.3393 -0.3020  0.3010
  174SOPE  H18Y19833   2.207   3.869   8.601 -0.4883  0.8282 -0.5009
  174SOPE  H18Z19834   2.381   3.935   8.627 -0.1541  0.5140 -0.9233
  175SOPE     N19835   3.771   6.780  10.535  0.5432 -0.2660 -0.3282
  175SOPE   HN119836   3.794   6.802  10.436  0.3110 -1.3727 -0.6455
  175SOPE   HN219837   3.677   6.734  10.538 -0.1912  1.1226 -1.2807
  175SOPE   HN319838   3.752   6.878  10.565 -0.1433 -0.2566 -0.7619
  175SOPE   C1219839   3.881   6.714  10.616  0.2017 -0.2287 -0.0580
  175SOPE  H12A19840   3.878   6.604  10.602  0.0946 -0.3070  0.5450
  175SOPE  H12B19841   3.849   6.738  10.720  0.0495  2.4755 -0.6462
  175SOPE   C1119842   4.028   6.768  10.572  0.2706  0.0324  0.3471
  175SOPE  H11A19843   4.039   6.752  10.463  0.5060 -0.6751  0.4698
  175SOPE  H11B19844   4.099   6.701  10.626  1.3821  1.4296  0.6639
  175SOPE     P19845   4.192   6.966  10.588 -0.4534  0.0946  0.2045
  175SOPE   O1319846   4.293   6.871  10.632  0.0083 -0.1929 -0.3970
  175SOPE   O1419847   4.204   7.097  10.654 -0.0752  0.3015  0.6257
  175SOPE   O1219848   4.050   6.905  10.615  0.1107 -0.6047  0.1025
  175SOPE   O1119849   4.209   6.983  10.431 -0.1290 -0.6641 -0.3154
  175SOPE    C119850   4.119   7.061  10.363  0.9366 -0.9830  0.9182
  175SOPE    HA19851   4.125   7.165  10.403 -0.7054 -0.9939  1.2299
  175SOPE    HB19852   4.014   7.032  10.380 -0.3366  3.0482  1.0674
  175SOPE    C219853   4.155   7.066  10.216  0.0431 -0.1905 -0.0156
  175SOPE    HS19854   4.073   7.113  10.158 -0.9674 -0.9795  0.7413
  175SOPE   O2119855   4.180   6.931  10.169  0.1166 -0.1621 -0.0397
  175SOPE   C2119856   4.075   6.847  10.168  0.3644  0.2261 -0.5590
  175SOPE   O2219857   3.958   6.881  10.181 -0.1791 -0.1019  0.2793
  175SOPE   C2219858   4.124   6.698  10.156 -0.2164  0.2204 -0.0904
  175SOPE   H2R19859   4.075   6.642  10.238 -2.6255 -0.7565 -2.0564
  175SOPE   H2S19860   4.234   6.685  10.165 -0.3604  0.0843  1.8360
  175SOPE    C319861   4.290   7.151  10.184 -0.5713  0.7790  0.7286
  175SOPE    HX19862   4.378   7.115  10.241 -0.3951  0.6021  0.3525
  175SOPE    HY19863   4.258   7.250  10.223  0.7405  2.1759 -1.4712
  175SOPE   O3119864   4.324   7.162  10.041 -0.4087 -0.4080  0.2954
  175SOPE   C3119865   4.385   7.056   9.989  0.8051  0.7863 -0.1227
  175SOPE   O3219866   4.414   6.956  10.048  0.0504  0.0132 -0.0459
  175SOPE   C3219867   4.406   7.072   9.836 -0.0744 -0.8146  0.3386
  175SOPE   H2X19868   4.424   7.181   9.823 -0.4036 -0.6252  1.3767
  175SOPE   H2Y19869   4.308   7.037   9.797 -0.1913 -0.2567  0.1233
  175SOPE   C2319870   4.061   6.635  10.026  0.7386  0.0927  0.2398
  175SOPE   H3R19871   3.969   6.690  10.000  0.9642  1.2025  1.6443
  175SOPE   H3S19872   4.042   6.526  10.038  2.0700 -0.3333 -1.1351
  175SOPE   C2419873   4.155   6.641   9.902  0.2003  0.1559  0.3587
  175SOPE   H4R19874   4.165   6.746   9.868 -1.8844  0.1077 -0.5372
  175SOPE   H4S19875   4.255   6.608   9.938  0.6311  0.1862 -0.7896
  175SOPE   C2519876   4.105   6.562   9.782  0.9356  0.4567 -0.5922
  175SOPE   H5R19877   4.049   6.472   9.814  0.9309  0.0535 -1.7095
  175SOPE   H5S19878   4.028   6.625   9.733  0.3165  0.2240  0.0582
  175SOPE   C2619879   4.214   6.532   9.678  0.6076  0.3830  0.5463
  175SOPE   H6R19880   4.289   6.461   9.719 -0.3796 -1.0736 -0.0952
  175SOPE   H6S19881   4.165   6.476   9.595 -0.6117  1.3113  0.6198
  175SOPE   C2719882   4.278   6.657   9.621 -0.0425 -0.6823  0.0789
  175SOPE   H7R19883   4.209   6.738   9.589  1.1958 -0.4672 -2.2123
  175SOPE   H7S19884   4.337   6.716   9.694 -1.7566  0.9821  0.2109
  175SOPE   C2819885   4.370   6.642   9.500 -0.4445 -0.0123  0.4070
  175SOPE   H8R19886   4.413   6.740   9.472 -0.6955 -0.1340 -0.4363
  175SOPE   H8S19887   4.455   6.581   9.535 -0.7504 -0.2300  0.7778
  175SOPE   C2919888   4.293   6.598   9.377  0.1152 -0.1778 -0.0700
  175SOPE   H9119889   4.202   6.646   9.340  0.0337 -0.3756 -0.1250
  175SOPE  C21019890   4.319   6.487   9.305  0.6132  0.6015 -0.1032
  175SOPE  H10119891   4.256   6.452   9.223  1.2466  0.8880 -0.7240
  175SOPE  C21119892   4.431   6.395   9.328  0.0974  0.2743  0.1846
  175SOPE  H11R19893   4.408   6.290   9.299 -2.0828  0.6260  0.4584
  175SOPE  H11S19894   4.466   6.392   9.433  0.1609 -0.8923  0.1494
  175SOPE  C21219895   4.550   6.448   9.251 -0.1514  0.0076  0.6819
  175SOPE  H12R19896   4.576   6.548   9.292 -0.1864  0.2842  0.0465
  175SOPE  H12S19897   4.513   6.463   9.147 -2.6283 -1.5392  1.2474
  175SOPE  C21319898   4.678   6.369   9.262 -0.4934  0.3399  0.4445
  175SOPE  H13R19899   4.713   6.344   9.364 -0.7276 -1.2660  0.1619
  175SOPE  H13S19900   4.758   6.430   9.215 -0.8885  1.2829  0.9509
  175SOPE  C21419901   4.668   6.238   9.175 -0.0264 -0.4325 -0.0234
  175SOPE  H14R19902   4.652   6.256   9.067 -1.2276  0.0312  0.2238
  175SOPE  H14S19903   4.579   6.189   9.218  0.6396 -0.2539  1.6351
  175SOPE  C21519904   4.799   6.154   9.191  0.1222  0.3262  0.5066
  175SOPE  H15R19905   4.815   6.162   9.301  0.7772 -0.4610  0.4743
  175SOPE  H15S19906   4.880   6.192   9.126 -1.5795  3.7737  0.1725
  175SOPE  C21619907   4.757   6.006   9.156 -0.2046 -0.7151  0.5760
  175SOPE  H16R19908   4.669   5.976   9.217 -0.4671  0.8677  1.0130
  175SOPE  H16S19909   4.836   5.938   9.193  2.0382  0.1537 -2.2649
  175SOPE  C21719910   4.748   5.967   9.004 -0.1108  0.2275 -0.3860
  175SOPE  H17R19911   4.826   6.005   8.935  0.8091 -0.7398  0.0982
  175SOPE  H17S19912   4.651   6.007   8.967 -0.1760  0.0825 -0.3724
  175SOPE  C21819913   4.738   5.815   8.984 -0.0787 -0.2365  0.4325
  175SOPE  H18R19914   4.676   5.778   8.900  2.0571 -1.6629 -0.6144
  175SOPE  H18S19915   4.695   5.767   9.075  1.1245 -1.7661  0.2392
  175SOPE  H18T19916   4.842   5.787   8.958 -0.2362  0.2818 -0.8495
  175SOPE   C3319917   4.521   6.989   9.788 -0.5475  0.4609  0.4254
  175SOPE   H3X19918   4.538   6.998   9.678  1.1918 -0.5950  0.5716
  175SOPE   H3Y19919   4.517   6.882   9.816 -0.6222  0.9422  2.4012
  175SOPE   C3419920   4.658   7.033   9.855  0.4170  0.0470  0.4570
  175SOPE   H4X19921   4.642   7.007   9.962 -1.5275  0.7935  0.3809
  175SOPE   H4Y19922   4.652   7.141   9.831 -1.6738 -0.4623 -1.6396
  175SOPE   C3519923   4.786   6.967   9.807 -0.0902 -0.3814  0.0388
  175SOPE   H5X19924   4.786   6.862   9.841 -1.2853 -0.3330  0.2593
  175SOPE   H5Y19925   4.870   7.004   9.869 -1.3494  2.2818  0.3493
  175SOPE   C3619926   4.805   6.969   9.659  0.2240 -0.2816 -0.2803
  175SOPE   H6X19927   4.828   7.073   9.628  1.9717 -0.7869 -0.7486
  175SOPE   H6Y19928   4.704   6.938   9.623  0.7972 -0.3040 -1.9570
  175SOPE   C3719929   4.903   6.861   9.603  0.1845 -0.2834  0.0505
  175SOPE   H7X19930   4.868   6.758   9.625 -1.3986  0.5675  1.6920
  175SOPE   H7Y19931   4.998   6.866   9.661  0.5737 -0.0141 -0.5981
  175SOPE   C3819932   4.918   6.856   9.450 -0.7620  0.0563  0.0275
  175SOPE   H8X19933   4.817   6.872   9.406 -0.4047 -0.0411 -0.8327
  175SOPE   H8Y19934   4.954   6.756   9.417  0.5498  0.0125  1.4954
  175SOPE   C3919935   5.013   6.968   9.405  0.0174 -0.0725  0.2754
  175SOPE   H9X19936   5.098   6.977   9.476  2.5039 -1.0662 -2.3731
  175SOPE   H9Y19937   4.956   7.062   9.395 -1.8697 -1.2945 -0.9518
  175SOPE  C31019938   5.079   6.939   9.266  0.2720 -0.0679  0.1181
  175SOPE  H10X19939   5.070   7.032   9.206  1.5415  0.9545  1.4319
  175SOPE  H10Y19940   5.026   6.854   9.217  0.7952 -0.2083 -0.2197
  175SOPE  C31119941   5.229   6.912   9.275  0.0678  0.2706  0.4294
  175SOPE  H11X19942   5.226   6.822   9.340 -1.6845  1.5818  2.2870
  175SOPE  H11Y19943   5.296   6.991   9.316  1.0525 -1.1986  1.8193
  175SOPE  C31219944   5.281   6.892   9.132 -0.4112  0.7059  0.2773
  175SOPE  H12X19945   5.294   6.986   9.075  1.2686 -0.3222 -1.1774
  175SOPE  H12Y19946   5.224   6.823   9.067  2.1826 -0.4240 -0.9673
  175SOPE  C31319947   5.415   6.829   9.138  0.4529  0.1076 -0.0632
  175SOPE  H13X19948   5.419   6.745   9.210 -0.9473  2.0351  2.4174
  175SOPE  H13Y19949   5.489   6.893   9.192  1.2902 -2.9609  2.7640
  175SOPE  C31419950   5.469   6.792   9.003  0.1531 -0.0404 -0.3397
  175SOPE  H14X19951   5.580   6.787   8.997  0.4022  1.5858  1.6755
  175SOPE  H14Y19952   5.437   6.868   8.929 -1.7287  0.5578  1.0091
  175SOPE  C31519953   5.433   6.648   8.947 -0.6460  0.1260  0.2617
  175SOPE  H15X19954   5.323   6.632   8.953 -0.5591 -0.1242  1.5893
  175SOPE  H15Y19955   5.488   6.571   9.006 -0.9102  0.3364  0.7887
  175SOPE  C31619956   5.487   6.637   8.802 -0.2359  0.8976 -0.6455
  175SOPE  H16X19957   5.487   6.529   8.775 -3.0425  0.4530  0.7579
  175SOPE  H16Y19958   5.585   6.685   8.784  0.2977 -0.4656 -1.5905
  175SOPE  C31719959   5.396   6.707   8.701  0.1269 -0.6961  0.3534
  175SOPE  H17X19960   5.438   6.696   8.598 -0.1024  0.4691  0.1144
  175SOPE  H17Y19961   5.374   6.815   8.716 -3.6988 -0.8283 -2.6586
  175SOPE  C31819962   5.254   6.649   8.691 -0.2503  0.6453 -0.2117
  175SOPE  H18X19963   5.252   6.541   8.718  0.5675  0.3443 -1.2771
  175SOPE  H18Y19964   5.228   6.670   8.585  1.1518  0.7825 -0.5579
  175SOPE  H18Z19965   5.198   6.710   8.765  2.7324  0.3576  2.5169
  176SOPE     N19966   3.169   5.272  11.072  0.1822 -0.0324  0.1236
  176SOPE   HN119967   3.183   5.361  11.020  0.1487  1.6513  2.7857
  176SOPE   HN219968   3.143   5.189  11.015 -0.8004  0.6352 -0.4251
  176SOPE   HN319969   3.088   5.280  11.137  0.1170 -0.8921  0.1628
  176SOPE   C1219970   3.287   5.235  11.165 -0.0527  0.1943  0.8234
  176SOPE  H12A19971   3.329   5.140  11.126 -0.0355  0.8325 -0.7713
  176SOPE  H12B19972   3.257   5.239  11.272  0.8154  1.6760  1.0354
  176SOPE   C1119973   3.396   5.347  11.139 -0.0217  0.5905  0.4181
  176SOPE  H11A19974   3.476   5.335  11.216  1.5346 -2.6882 -1.5020
  176SOPE  H11B19975   3.348   5.446  11.158 -0.5140  0.4484 -0.0567
  176SOPE     P19976   3.580   5.286  10.960 -0.0142  0.0876  0.2638
  176SOPE   O1319977   3.554   5.141  10.953  0.5935 -0.0329 -0.1708
  176SOPE   O1419978   3.690   5.342  11.046 -0.0951 -0.0271  0.0344
  176SOPE   O1219979   3.446   5.358  11.002 -0.0321 -0.4422 -0.7695
  176SOPE   O1119980   3.607   5.335  10.812  0.3668 -0.0034 -0.1300
  176SOPE    C119981   3.518   5.311  10.700  0.1531  1.2841  0.0777
  176SOPE    HA19982   3.445   5.394  10.690  0.1899  1.0455 -3.3544
  176SOPE    HB19983   3.479   5.206  10.699 -0.7792  1.6051 -1.5180
  176SOPE    C219984   3.608   5.320  10.576  0.2587 -0.4693  0.7164
  176SOPE    HS19985   3.694   5.250  10.585 -0.4418 -1.3668  0.6416
  176SOPE   O2119986   3.644   5.464  10.571  0.5095  0.2363  0.2399
  176SOPE   C2119987   3.749   5.488  10.500  0.6783 -0.8066  0.3970
  176SOPE   O2219988   3.823   5.410  10.453 -0.0009 -0.2832 -0.6128
  176SOPE   C2219989   3.785   5.642  10.495 -0.9095  0.3134  0.5804
  176SOPE   H2R19990   3.876   5.659  10.435 -1.3437  0.9183  0.0825
  176SOPE   H2S19991   3.792   5.678  10.600 -0.6295  0.0664  0.6466
  176SOPE    C319992   3.527   5.261  10.453  0.7635 -0.5394 -0.0843
  176SOPE    HX19993   3.421   5.296  10.460  0.8939  0.0337 -0.8929
  176SOPE    HY19994   3.526   5.152  10.476  0.6839 -0.8491 -1.4904
  176SOPE   O3119995   3.577   5.304  10.324  0.2134 -0.6257  0.2016
  176SOPE   C3119996   3.655   5.226  10.260  0.2757  0.4088 -0.3223
  176SOPE   O3219997   3.693   5.117  10.302 -0.3628 -0.0307  0.3598
  176SOPE   C3219998   3.704   5.293  10.130  0.3587 -0.0164 -0.3526
  176SOPE   H2X19999   3.765   5.218  10.075  0.8632  0.0392  0.1172
  176SOPE   H2Y20000   3.773   5.370  10.172  0.6235 -0.3199 -0.2299
  176SOPE   C2320001   3.671   5.724  10.434  1.0703 -0.5366  0.0618
  176SOPE   H3R20002   3.679   5.831  10.465 -2.4741 -0.0415 -0.3523
  176SOPE   H3S20003   3.585   5.689  10.494 -0.3778 -2.0041 -2.6703
  176SOPE   C2420004   3.647   5.708  10.285 -0.2109 -0.1715  0.2461
  176SOPE   H4R20005   3.746   5.708  10.235 -0.9242 -0.8813 -1.2276
  176SOPE   H4S20006   3.614   5.602  10.282  0.5717 -0.4108 -2.6954
  176SOPE   C2520007   3.535   5.795  10.235 -0.5784 -0.6396  1.1713
  176SOPE   H5R20008   3.458   5.789  10.316 -0.3044 -2.8531  1.3145
  176SOPE   H5S20009   3.560   5.900  10.210  1.0221 -1.0407  1.0338
  176SOPE   C2620010   3.471   5.738  10.113  0.2184  0.6242 -0.3125
  176SOPE   H6R20011   3.552   5.708  10.043 -0.8786  0.1454 -1.4111
  176SOPE   H6S20012   3.408   5.650  10.140 -2.5757  1.9541 -2.0565
  176SOPE   C2720013   3.370   5.833  10.045  0.3126 -0.2320 -0.2010
  176SOPE   H7R20014   3.307   5.864  10.132  2.0378  0.0554  1.0046
  176SOPE   H7S20015   3.421   5.924  10.006 -1.8750  0.6558 -1.1774
  176SOPE   C2820016   3.264   5.771   9.953 -0.2698 -0.0458 -0.2193
  176SOPE   H8R20017   3.306   5.725   9.861  1.5931  2.2215 -0.6128
  176SOPE   H8S20018   3.223   5.696  10.024  2.6113 -1.8994 -0.3456
  176SOPE   C2920019   3.171   5.892   9.925 -0.1879  0.4194 -0.1228
  176SOPE   H9120020   3.150   5.945  10.019  1.0143  2.9378 -1.1874
  176SOPE  C21020021   3.114   5.950   9.819 -0.5971 -0.1192  0.4671
  176SOPE  H10120022   3.040   6.025   9.848 -2.2671 -1.4172 -0.2291
  176SOPE  C21120023   3.138   5.932   9.672  0.0123  0.7822  0.6633
  176SOPE  H11R20024   3.168   6.034   9.640  0.3058  0.2194 -0.9696
  176SOPE  H11S20025   3.047   5.900   9.616  2.7524 -2.1062 -2.6776
  176SOPE  C21220026   3.247   5.831   9.615 -0.3946  0.4523 -0.1184
  176SOPE  H12R20027   3.218   5.730   9.649 -1.0548 -0.1013 -2.1460
  176SOPE  H12S20028   3.342   5.858   9.665  0.0249  1.8840 -1.5708
  176SOPE  C21320029   3.259   5.834   9.464  0.9927  0.6797  0.4426
  176SOPE  H13R20030   3.341   5.767   9.431  0.5382  1.0878 -1.7033
  176SOPE  H13S20031   3.279   5.937   9.428  1.8320 -0.1045 -1.4652
  176SOPE  C21420032   3.132   5.801   9.377 -0.3325  0.0264 -0.4241
  176SOPE  H14R20033   3.067   5.884   9.412  0.1881 -1.0629  3.6454
  176SOPE  H14S20034   3.082   5.705   9.402  0.5807 -0.2838  0.3043
  176SOPE  C21520035   3.167   5.808   9.227 -0.4561  0.5644 -0.1555
  176SOPE  H15R20036   3.254   5.740   9.219 -0.2373  0.8130  0.0898
  176SOPE  H15S20037   3.189   5.910   9.189  1.7545  0.0408 -0.4471
  176SOPE  C21620038   3.060   5.758   9.135 -0.2409  0.7293  0.4344
  176SOPE  H16R20039   2.975   5.826   9.158  0.3613  0.8930  2.3540
  176SOPE  H16S20040   3.029   5.661   9.178  1.9883 -0.7849 -1.1527
  176SOPE  C21720041   3.092   5.747   8.986  0.4612 -0.5561  0.6564
  176SOPE  H17R20042   2.999   5.725   8.930 -0.1775  1.9940  0.5616
  176SOPE  H17S20043   3.172   5.671   8.976  0.4963 -0.6332  1.5158
  176SOPE  C21820044   3.158   5.875   8.926 -0.2467  0.0978 -0.0029
  176SOPE  H18R20045   3.080   5.954   8.933 -1.1165 -0.4009 -2.9224
  176SOPE  H18S20046   3.186   5.861   8.819 -0.8900  0.2098 -0.1912
  176SOPE  H18T20047   3.249   5.902   8.984  0.0782  0.0348 -0.4828
  176SOPE   C3320048   3.600   5.347  10.021  0.0822 -0.1483 -0.6967
  176SOPE   H3X20049   3.546   5.436  10.060 -2.3594 -0.9364 -2.0789
  176SOPE   H3Y20050   3.524   5.272   9.989  2.0505 -1.7739 -1.8805
  176SOPE   C3420051   3.669   5.392   9.894  0.1945  0.5207  0.0354
  176SOPE   H4X20052   3.719   5.304   9.848 -0.3678  0.8073 -1.1647
  176SOPE   H4Y20053   3.748   5.466   9.917  3.0482 -2.2666 -0.0571
  176SOPE   C3520054   3.561   5.455   9.794 -0.3155 -0.2183  0.0340
  176SOPE   H5X20055   3.618   5.487   9.704  0.4638 -1.2640  0.1334
  176SOPE   H5Y20056   3.517   5.542   9.849  0.4336  0.7896 -0.9112
  176SOPE   C3620057   3.450   5.358   9.745  0.8834  0.0323  0.1576
  176SOPE   H6X20058   3.388   5.315   9.826 -0.3510 -0.5199 -1.0354
  176SOPE   H6Y20059   3.499   5.275   9.692 -1.3155 -2.1579  1.3596
  176SOPE   C3720060   3.342   5.428   9.654 -0.0133 -0.0309  0.3717
  176SOPE   H7X20061   3.399   5.500   9.592 -2.2323  0.2739 -1.4634
  176SOPE   H7Y20062   3.279   5.499   9.712  1.5118  0.3722  1.5892
  176SOPE   C3820063   3.263   5.335   9.556 -0.2575  0.1206 -0.0285
  176SOPE   H8X20064   3.188   5.278   9.615 -0.6614 -0.0966 -0.7405
  176SOPE   H8Y20065   3.335   5.254   9.531 -0.4011 -1.1072  3.0228
  176SOPE   C3920066   3.194   5.408   9.445  0.5627 -0.0986  0.8110
  176SOPE   H9X20067   3.281   5.456   9.395  2.3858 -1.5639  2.4805
  176SOPE   H9Y20068   3.123   5.486   9.480  0.7441 -0.3075  1.6497
  176SOPE  C31020069   3.129   5.325   9.332  0.2860  0.4067 -0.4158
  176SOPE  H10X20070   3.024   5.298   9.355  0.2634  1.1534  0.4071
  176SOPE  H10Y20071   3.193   5.235   9.317  0.0234 -0.1245  1.3466
  176SOPE  C31120072   3.147   5.380   9.189 -0.1170  0.0524 -0.2123
  176SOPE  H11X20073   3.249   5.423   9.185 -0.4515  0.9415  0.3258
  176SOPE  H11Y20074   3.067   5.455   9.170 -1.3507 -1.4524 -1.1433
  176SOPE  C31220075   3.121   5.285   9.070 -0.2482  0.0944  0.0129
  176SOPE  H12X20076   3.212   5.222   9.075  1.8548  3.0498  2.4995
  176SOPE  H12Y20077   3.136   5.339   8.974  0.8329 -1.0167 -0.4742
  176SOPE  C31320078   2.984   5.213   9.074 -0.6048 -0.4759  0.2195
  176SOPE  H13X20079   2.904   5.286   9.049 -0.0604  0.8342  2.0994
  176SOPE  H13Y20080   2.949   5.163   9.167  2.4106 -3.7639 -0.1969
  176SOPE  C31420081   2.996   5.096   8.970 -0.1116  0.0336  0.2832
  176SOPE  H14X20082   3.070   5.024   9.011  0.3397  0.1253 -0.3491
  176SOPE  H14Y20083   3.040   5.141   8.878 -1.5590  0.6736 -0.1330
  176SOPE  C31520084   2.855   5.036   8.951 -0.3385  0.3020  0.6997
  176SOPE  H15X20085   2.783   5.121   8.950  0.4454  0.9975 -1.3462
  176SOPE  H15Y20086   2.849   4.972   9.042  2.1547  1.0224  1.4488
  176SOPE  C31620087   2.838   4.948   8.831 -0.8347  0.8317  0.2478
  176SOPE  H16X20088   2.731   4.921   8.828 -0.6788  0.2715 -0.6182
  176SOPE  H16Y20089   2.914   4.867   8.840  0.2149  1.9662  2.6517
  176SOPE  C31720090   2.865   5.021   8.695  0.2071  0.0965 -0.2928
  176SOPE  H17X20091   2.965   5.067   8.704  0.4156 -0.3414 -0.3404
  176SOPE  H17Y20092   2.782   5.095   8.691  0.2999  0.1933 -0.4317
  176SOPE  C31820093   2.863   4.931   8.570 -0.1975 -0.4036  0.2281
  176SOPE  H18X20094   2.867   4.995   8.479  0.6709 -0.1157  0.4577
  176SOPE  H18Y20095   2.763   4.882   8.574  0.1653 -1.0898  2.8747
  176SOPE  H18Z20096   2.941   4.852   8.577  0.2534  0.0330  0.1790
  177SOPE     N20097   3.645   3.356  10.779 -0.5720  0.1401  0.1157
  177SOPE   HN120098   3.594   3.331  10.692 -0.7008  0.5712  0.0652
  177SOPE   HN220099   3.717   3.281  10.784 -0.9510 -0.1922  0.6008
  177SOPE   HN320100   3.584   3.356  10.863 -0.7059  1.9768  0.0693
  177SOPE   C1220101   3.697   3.490  10.755 -0.0191 -0.3603  0.4849
  177SOPE  H12A20102   3.624   3.545  10.691 -1.2651  0.3314  2.3978
  177SOPE  H12B20103   3.790   3.485  10.695 -0.1193  2.0783  0.0129
  177SOPE   C1120104   3.702   3.570  10.884 -0.2936  0.1807  0.4213
  177SOPE  H11A20105   3.599   3.575  10.926 -0.2934  1.1655  0.3189
  177SOPE  H11B20106   3.740   3.666  10.843  1.5528 -0.9383 -0.5693
  177SOPE     P20107   3.897   3.593  11.053  0.3494  0.1769  0.1582
  177SOPE   O1320108   3.989   3.520  11.145  0.0168 -0.2010  0.0588
  177SOPE   O1420109   3.824   3.701  11.127  0.1786 -0.2768 -0.1581
  177SOPE   O1220110   3.795   3.502  10.971  0.3243 -0.2703  0.5684
  177SOPE   O1120111   3.980   3.661  10.943 -0.2755 -0.6563  0.3219
  177SOPE    C120112   4.085   3.589  10.883 -0.3909 -0.5752  0.7091
  177SOPE    HA20113   4.077   3.480  10.907 -3.2300 -0.7452 -0.5969
  177SOPE    HB20114   4.178   3.642  10.912 -0.6125  0.3250 -0.1810
  177SOPE    C220115   4.079   3.605  10.723 -0.5260 -0.5139  0.2930
  177SOPE    HS20116   4.025   3.517  10.684  0.9170 -0.7949 -1.1843
  177SOPE   O2120117   4.210   3.612  10.674 -0.1303 -0.3867  0.0298
  177SOPE   C2120118   4.288   3.504  10.692 -0.0545 -0.4742  0.0944
  177SOPE   O2220119   4.257   3.401  10.744  0.2461 -0.1229 -0.3233
  177SOPE   C2220120   4.433   3.532  10.644  1.3662  0.7214 -0.3363
  177SOPE   H2R20121   4.492   3.443  10.677 -1.6289 -0.5395  2.0746
  177SOPE   H2S20122   4.471   3.612  10.711 -1.5066 -1.4089  4.3405
  177SOPE    C320123   4.002   3.734  10.686 -0.2395  0.2700  0.0590
  177SOPE    HX20124   4.032   3.817  10.754  0.2000  1.5596 -1.6272
  177SOPE    HY20125   3.893   3.731  10.706 -0.5174 -0.0627 -1.4193
  177SOPE   O3120126   4.024   3.781  10.548  0.1298  0.6714  0.1258
  177SOPE   C3120127   3.994   3.696  10.450 -0.4491 -0.6251  0.2834
  177SOPE   O3220128   3.922   3.599  10.460  0.1065 -0.1946 -0.5357
  177SOPE   C3220129   4.072   3.744  10.324  0.8838  0.8300  0.7032
  177SOPE   H2X20130   4.176   3.706  10.340  0.5148 -0.1213  0.9331
  177SOPE   H2Y20131   4.064   3.854  10.313  2.7740  0.8188 -1.6077
  177SOPE   C2320132   4.435   3.544  10.496  0.2081 -0.2150  0.4690
  177SOPE   H3R20133   4.539   3.565  10.464  0.5770 -1.2563  0.9490
  177SOPE   H3S20134   4.379   3.630  10.454  0.4256  0.2964  1.2057
  177SOPE   C2420135   4.375   3.423  10.417  0.6028  0.6127 -0.3838
  177SOPE   H4R20136   4.410   3.332  10.471 -0.2274  0.3139 -0.3323
  177SOPE   H4S20137   4.265   3.410  10.431  0.9558  0.1416  2.5849
  177SOPE   C2520138   4.396   3.431  10.266  0.0775  0.2774  0.5387
  177SOPE   H5R20139   4.345   3.520  10.224  2.3577  1.5205  0.2274
  177SOPE   H5S20140   4.504   3.450  10.249 -0.2712  0.4189 -1.8418
  177SOPE   C2620141   4.345   3.304  10.200 -0.1484 -0.2584 -0.3639
  177SOPE   H6R20142   4.411   3.220  10.231  0.8537  0.4270 -0.5987
  177SOPE   H6S20143   4.246   3.277  10.243 -1.6565  0.6218 -3.0994
  177SOPE   C2720144   4.318   3.315  10.053 -0.3806  0.4021  0.5037
  177SOPE   H7R20145   4.262   3.410  10.043 -0.9016 -0.0848 -1.6284
  177SOPE   H7S20146   4.415   3.319   9.999 -1.0014 -1.9089 -0.9427
  177SOPE   C2820147   4.236   3.198   9.997 -0.8186  0.5327  0.2289
  177SOPE   H8R20148   4.140   3.200  10.053  0.8047  2.7127  3.2309
  177SOPE   H8S20149   4.216   3.219   9.890 -0.6389  1.6315  0.4044
  177SOPE   C2920150   4.303   3.065  10.003 -0.1651 -0.7121  0.1106
  177SOPE   H9120151   4.289   3.020  10.103  0.0757 -0.0340  0.4537
  177SOPE  C21020152   4.357   2.988   9.907 -0.3678  0.8292  0.0415
  177SOPE  H10120153   4.403   2.895   9.944  1.0745  1.3730 -0.3018
  177SOPE  C21120154   4.388   3.021   9.764  0.3472  1.0492  0.8314
  177SOPE  H11R20155   4.498   3.024   9.751  0.4847 -1.6045  0.9083
  177SOPE  H11S20156   4.351   3.124   9.741  1.0651  0.8218 -1.5866
  177SOPE  C21220157   4.338   2.942   9.643 -0.0126 -0.3171  0.1808
  177SOPE  H12R20158   4.227   2.941   9.651 -0.1004  1.0414 -0.5290
  177SOPE  H12S20159   4.384   2.841   9.636  1.9227  0.6171 -1.3883
  177SOPE  C21320160   4.359   2.999   9.497  0.2070 -0.2673  0.5845
  177SOPE  H13R20161   4.467   2.992   9.476 -0.3670 -1.4517 -2.3472
  177SOPE  H13S20162   4.346   3.110   9.498  0.0154 -0.2899  0.7756
  177SOPE  C21420163   4.296   2.920   9.377 -0.3569 -0.8958  0.5936
  177SOPE  H14R20164   4.199   2.965   9.347  0.3110  0.7623  0.8127
  177SOPE  H14S20165   4.270   2.816   9.407 -2.0438 -0.9699 -0.9483
  177SOPE  C21520166   4.375   2.918   9.244  0.1550 -0.5597 -0.1248
  177SOPE  H15R20167   4.484   2.895   9.254 -0.2091 -1.8784  1.0868
  177SOPE  H15S20168   4.368   3.020   9.199 -1.4143 -0.2816  0.6742
  177SOPE  C21620169   4.324   2.818   9.137  0.3368  0.1750  0.3488
  177SOPE  H16R20170   4.217   2.843   9.119  0.8641  1.3293 -1.5706
  177SOPE  H16S20171   4.319   2.716   9.180  0.8000  0.3701  0.8730
  177SOPE  C21720172   4.388   2.839   9.001  0.4523 -0.4514  0.2295
  177SOPE  H17R20173   4.497   2.821   9.016  1.0671  3.3091  1.3848
  177SOPE  H17S20174   4.377   2.944   8.967 -1.4472 -0.2079  1.4989
  177SOPE  C21820175   4.334   2.744   8.884 -0.8597 -0.0372 -0.7948
  177SOPE  H18R20176   4.223   2.740   8.889 -0.9254  0.4365 -1.6426
  177SOPE  H18S20177   4.377   2.643   8.897 -2.0936 -0.2909  2.1823
  177SOPE  H18T20178   4.354   2.781   8.782 -1.2593  0.0294 -0.8517
  177SOPE   C3320179   4.020   3.670  10.193 -0.1613  0.7125 -0.7072
  177SOPE   H3X20180   3.911   3.692  10.188 -0.4833 -0.4546  0.6564
  177SOPE   H3Y20181   4.036   3.562  10.212  1.2325  0.8091 -1.2107
  177SOPE   C3420182   4.102   3.714  10.072  0.4475 -0.1098  0.0746
  177SOPE   H4X20183   4.211   3.700  10.085  0.6460  0.4566 -0.8838
  177SOPE   H4Y20184   4.075   3.821  10.053  3.0758  0.3550 -1.4929
  177SOPE   C3520185   4.075   3.643   9.937 -0.2487  0.0815 -1.0594
  177SOPE   H5X20186   3.972   3.665   9.902 -0.7582  0.3746  0.5610
  177SOPE   H5Y20187   4.085   3.533   9.953 -1.3075  0.2354  0.9254
  177SOPE   C3620188   4.175   3.669   9.823  0.2533  0.4072  0.2428
  177SOPE   H6X20189   4.277   3.658   9.866  1.0041  0.2097 -1.4950
  177SOPE   H6Y20190   4.161   3.778   9.805  1.0096  0.4639 -0.0751
  177SOPE   C3720191   4.167   3.573   9.704 -0.6763  0.4653  0.3410
  177SOPE   H7X20192   4.073   3.591   9.647  0.2702  2.1005 -0.7971
  177SOPE   H7Y20193   4.169   3.466   9.735 -1.8472  0.5815  0.8695
  177SOPE   C3820194   4.278   3.591   9.608  0.1615 -0.0162 -0.2391
  177SOPE   H8X20195   4.381   3.599   9.650  0.8979  1.4346 -2.1722
  177SOPE   H8Y20196   4.273   3.691   9.559  1.1031  0.3506  0.3827
  177SOPE   C3920197   4.280   3.487   9.495 -0.2660  0.4826  0.1200
  177SOPE   H9X20198   4.223   3.503   9.401  1.3691  0.2284 -0.9756
  177SOPE   H9Y20199   4.231   3.399   9.542  0.3471  0.1899  0.2271
  177SOPE  C31020200   4.417   3.446   9.448  0.2572  0.5947  0.0407
  177SOPE  H10X20201   4.470   3.412   9.539 -0.6885  2.7934  1.4984
  177SOPE  H10Y20202   4.479   3.527   9.405 -1.0219  1.4696 -0.2066
  177SOPE  C31120203   4.413   3.347   9.328 -0.4554 -0.1427 -0.5903
  177SOPE  H11X20204   4.335   3.269   9.340  0.7746 -1.4416 -0.8179
  177SOPE  H11Y20205   4.514   3.302   9.321 -0.7530 -0.6189 -2.3898
  177SOPE  C31220206   4.393   3.420   9.196  0.0351 -0.6167  0.0545
  177SOPE  H12X20207   4.459   3.509   9.206 -0.4088 -0.0352 -1.7418
  177SOPE  H12Y20208   4.289   3.458   9.192 -0.4379 -1.9342 -1.2167
  177SOPE  C31320209   4.434   3.335   9.075 -0.7764  0.0527 -0.1543
  177SOPE  H13X20210   4.384   3.236   9.069  0.3874 -0.4804 -1.4903
  177SOPE  H13Y20211   4.542   3.310   9.078 -0.9026 -0.4391  1.0428
  177SOPE  C31420212   4.405   3.416   8.948 -0.2322  0.3000 -0.1586
  177SOPE  H14X20213   4.458   3.513   8.947  2.7781 -1.2251 -1.9533
  177SOPE  H14Y20214   4.295   3.425   8.935 -0.7671 -0.8906  2.7588
  177SOPE  C31520215   4.465   3.340   8.825  0.6119 -0.2053  0.2780
  177SOPE  H15X20216   4.436   3.233   8.818  0.9402 -0.3469  1.0052
  177SOPE  H15Y20217   4.575   3.339   8.834  0.6436  2.7768  1.3353
  177SOPE  C31620218   4.421   3.407   8.693 -0.6531 -0.4143  0.2617
  177SOPE  H16X20219   4.493   3.386   8.611 -0.6227 -1.3514  0.5191
  177SOPE  H16Y20220   4.417   3.518   8.704 -0.3328 -0.4103  0.3498
  177SOPE  C31720221   4.276   3.362   8.645 -0.4997 -0.0861  0.1040
  177SOPE  H17X20222   4.243   3.433   8.566  0.9632  2.8035  1.9592
  177SOPE  H17Y20223   4.207   3.360   8.732  1.4096 -1.0692  1.6682
  177SOPE  C31820224   4.282   3.216   8.589 -0.0347 -0.0774  0.0277
  177SOPE  H18X20225   4.376   3.200   8.532 -1.1234 -1.7667 -1.4224
  177SOPE  H18Y20226   4.194   3.196   8.524  1.3838 -1.7587 -1.4620
  177SOPE  H18Z20227   4.277   3.149   8.677  1.3785  1.4052  1.2954
  178SOPE     N20228   5.238   6.678  10.857  0.2474 -0.9995 -0.5888
  178SOPE   HN120229   5.317   6.745  10.848 -1.1914  0.8490 -0.0773
  178SOPE   HN220230   5.187   6.678  10.767 -0.8117 -0.2559 -0.0123
  178SOPE   HN320231   5.181   6.730  10.927 -0.2145 -0.5663 -1.2794
  178SOPE   C1220232   5.277   6.540  10.902 -0.0382  0.5933 -0.8960
  178SOPE  H12A20233   5.192   6.500  10.961  1.9409 -3.6388 -0.5979
  178SOPE  H12B20234   5.364   6.541  10.971  1.1245 -0.2025 -2.3007
  178SOPE   C1120235   5.320   6.463  10.782  0.2113 -0.5465 -0.6722
  178SOPE  H11A20236   5.233   6.443  10.716 -1.6706  0.9039  1.2249
  178SOPE  H11B20237   5.351   6.360  10.808  1.8626 -0.1424 -0.9060
  178SOPE     P20238   5.571   6.481  10.684  0.1833  0.1579  0.1777
  178SOPE   O1320239   5.639   6.450  10.813 -0.0645 -0.1851  0.0598
  178SOPE   O1420240   5.640   6.584  10.604  0.1145 -0.0984  0.1767
  178SOPE   O1220241   5.418   6.532  10.704  0.7366 -0.1319  0.0780
  178SOPE   O1120242   5.566   6.345  10.606  0.2912  0.0093 -0.2490
  178SOPE    C120243   5.502   6.335  10.479  0.6230  0.0849  0.5090
  178SOPE    HA20244   5.410   6.396  10.461  1.8364  1.3444 -2.0873
  178SOPE    HB20245   5.476   6.228  10.465 -2.2233  0.6955  0.4056
  178SOPE    C220246   5.591   6.351  10.360 -0.0009 -0.0882 -0.5796
  178SOPE    HS20247   5.600   6.462  10.362 -1.4002  0.0412 -0.3234
  178SOPE   O2120248   5.522   6.295  10.241 -0.9172  0.0584 -0.7221
  178SOPE   C2120249   5.569   6.339  10.127 -0.2726  0.1475  0.5411
  178SOPE   O2220250   5.651   6.428  10.115 -0.0963 -0.2872  0.3276
  178SOPE   C2220251   5.498   6.278  10.005  0.2925 -0.3563 -0.3189
  178SOPE   H2R20252   5.396   6.323  10.004  0.5325  0.4382  2.4529
  178SOPE   H2S20253   5.475   6.170  10.013 -0.2667 -0.1720  0.7433
  178SOPE    C320254   5.738   6.283  10.396  0.2857 -0.2370  0.3471
  178SOPE    HX20255   5.709   6.182  10.432  0.0823 -0.2425  0.1749
  178SOPE    HY20256   5.786   6.338  10.480  1.4931  0.7272 -0.9252
  178SOPE   O3120257   5.815   6.267  10.277  0.1388  0.3050  0.2179
  178SOPE   C3120258   5.917   6.353  10.252  0.1479 -0.2518 -0.2431
  178SOPE   O3220259   5.943   6.451  10.323 -0.8107 -0.1828 -0.1453
  178SOPE   C3220260   6.004   6.291  10.140  0.0240 -0.0137  0.2004
  178SOPE   H2X20261   5.925   6.274  10.064  1.3044 -1.1145 -0.9443
  178SOPE   H2Y20262   6.055   6.201  10.179 -1.0803 -1.0297 -0.6477
  178SOPE   C2320263   5.572   6.313   9.869  0.0365 -0.0998 -0.8637
  178SOPE   H3R20264   5.573   6.424   9.861  2.0122  0.0417  0.6653
  178SOPE   H3S20265   5.504   6.272   9.790  1.8907 -2.2494 -1.4489
  178SOPE   C2420266   5.706   6.253   9.860  0.4503 -0.5739 -0.9058
  178SOPE   H4R20267   5.770   6.287   9.945 -0.0187 -0.5940 -0.5404
  178SOPE   H4S20268   5.693   6.142   9.863 -2.4383 -0.3016  2.1737
  178SOPE   C2520269   5.773   6.303   9.733  0.4737 -0.6727  0.7435
  178SOPE   H5R20270   5.851   6.227   9.709  0.8026  0.2487 -1.3819
  178SOPE   H5S20271   5.700   6.308   9.650  1.5161  2.0779 -0.1481
  178SOPE   C2620272   5.844   6.435   9.739  1.0444 -0.5926 -0.7064
  178SOPE   H6R20273   5.759   6.502   9.767 -0.5924 -4.1508  4.3196
  178SOPE   H6S20274   5.907   6.428   9.830 -0.7612 -0.2763  0.6384
  178SOPE   C2720275   5.923   6.484   9.617 -0.1155 -0.4200 -0.2502
  178SOPE   H7R20276   5.849   6.519   9.541 -0.8711 -3.2462 -0.9597
  178SOPE   H7S20277   5.989   6.563   9.657  0.7855 -1.3830  0.2105
  178SOPE   C2820278   6.018   6.370   9.573 -0.2388  0.5656  0.2347
  178SOPE   H8R20279   6.064   6.326   9.664 -1.7750 -0.0625  0.7229
  178SOPE   H8S20280   5.963   6.288   9.523 -1.6750  1.5634  0.1006
  178SOPE   C2920281   6.120   6.427   9.476  0.3515  0.3342  0.4317
  178SOPE   H9120282   6.174   6.515   9.513 -2.1091  1.9636  0.3737
  178SOPE  C21020283   6.141   6.385   9.348 -0.0474  0.7003  0.4298
  178SOPE  H10120284   6.223   6.434   9.294  1.3602 -1.5467  0.3865
  178SOPE  C21120285   6.082   6.255   9.288  0.0731 -0.1028 -0.0478
  178SOPE  H11R20286   6.014   6.200   9.356 -0.7361 -0.2536 -0.9548
  178SOPE  H11S20287   6.153   6.171   9.268  0.4462  0.6003 -1.8568
  178SOPE  C21220288   6.015   6.286   9.150  0.3219 -0.2612 -0.0548
  178SOPE  H12R20289   6.086   6.331   9.078  0.9163 -0.1392  0.5961
  178SOPE  H12S20290   5.939   6.366   9.161  0.5475  0.3490 -2.3484
  178SOPE  C21320291   5.942   6.163   9.089 -0.2471 -0.5350 -0.4142
  178SOPE  H13R20292   5.861   6.121   9.153  0.6166 -2.8092 -0.7389
  178SOPE  H13S20293   6.024   6.090   9.073 -2.2529 -2.9580 -0.3013
  178SOPE  C21420294   5.876   6.198   8.957  0.1568  0.7611 -0.5807
  178SOPE  H14R20295   5.854   6.101   8.909  0.0552  0.9376 -0.8904
  178SOPE  H14S20296   5.949   6.248   8.889  0.1975  3.1830  1.0899
  178SOPE  C21520297   5.753   6.283   8.977 -0.4311 -0.7278  0.2262
  178SOPE  H15R20298   5.787   6.381   9.018 -0.6749 -0.3823 -0.3785
  178SOPE  H15S20299   5.694   6.242   9.062 -0.2349 -1.0757  0.1973
  178SOPE  C21620300   5.653   6.298   8.859  0.1785 -0.3838  0.5630
  178SOPE  H16R20301   5.704   6.356   8.779 -1.2252 -0.6941 -0.5994
  178SOPE  H16S20302   5.567   6.358   8.898 -0.9306 -0.5194 -1.5504
  178SOPE  C21720303   5.604   6.166   8.810  0.1254 -0.4181 -0.5055
  178SOPE  H17R20304   5.686   6.117   8.753  0.3910 -0.3081 -0.2217
  178SOPE  H17S20305   5.515   6.185   8.746  0.6799  2.1405 -0.6079
  178SOPE  C21820306   5.561   6.066   8.928  0.0843  0.0227  0.3802
  178SOPE  H18R20307   5.496   6.121   9.000 -1.3296 -1.1879  0.0705
  178SOPE  H18S20308   5.646   6.027   8.989 -1.8605 -0.9000  2.6535
  178SOPE  H18T20309   5.495   5.984   8.895 -1.1873  2.0230 -2.4577
  178SOPE   C3320310   6.108   6.386  10.081 -0.7257  0.8719  1.0228
  178SOPE   H3X20311   6.174   6.432  10.158  0.6425  0.5942  0.0485
  178SOPE   H3Y20312   6.049   6.473  10.046 -0.4522  0.3336 -0.8379
  178SOPE   C3420313   6.194   6.329   9.964  0.1569  0.2163  0.0259
  178SOPE   H4X20314   6.202   6.422   9.903  3.2294 -0.1132 -0.2025
  178SOPE   H4Y20315   6.142   6.256   9.898  1.5153 -0.0448 -0.7695
  178SOPE   C3520316   6.332   6.281  10.004  0.5041  0.0090  0.2250
  178SOPE   H5X20317   6.341   6.194  10.071 -2.2857 -0.0736  0.6094
  178SOPE   H5Y20318   6.376   6.370  10.055 -0.2930 -0.0248  0.9839
  178SOPE   C3620319   6.425   6.243   9.890 -0.6620 -0.1402  0.1193
  178SOPE   H6X20320   6.367   6.161   9.843  0.6847 -1.2804  0.3719
  178SOPE   H6Y20321   6.523   6.205   9.925 -0.1271 -0.3660 -1.5471
  178SOPE   C3720322   6.459   6.356   9.794  0.7211  0.0545 -0.2029
  178SOPE   H7X20323   6.524   6.436   9.835 -1.8097  2.0439  0.1529
  178SOPE   H7Y20324   6.363   6.408   9.776  0.0033 -1.0266  0.4035
  178SOPE   C3820325   6.517   6.311   9.661  0.2477  0.0987  0.1846
  178SOPE   H8X20326   6.620   6.271   9.664  0.4677  0.7160  2.3199
  178SOPE   H8Y20327   6.526   6.407   9.606  1.9389 -0.5642 -0.7725
  178SOPE   C3920328   6.431   6.218   9.566  0.0896  0.0454 -0.7663
  178SOPE   H9X20329   6.328   6.258   9.560  0.3719  0.7298 -1.1656
  178SOPE   H9Y20330   6.422   6.120   9.619  1.4758  1.1298  1.6566
  178SOPE  C31020331   6.492   6.213   9.424  0.6135 -0.1539  0.3376
  178SOPE  H10X20332   6.602   6.208   9.439  0.3179 -2.3168  2.3967
  178SOPE  H10Y20333   6.444   6.298   9.370 -0.6434  0.6480  2.5813
  178SOPE  C31120334   6.448   6.083   9.349  0.1241  0.6890  0.4422
  178SOPE  H11X20335   6.358   6.105   9.288 -0.9759 -1.9121  0.9812
  178SOPE  H11Y20336   6.426   6.008   9.428 -0.1256  1.6013  1.2604
  178SOPE  C31220337   6.558   6.031   9.255  0.0900  0.1381 -0.6752
  178SOPE  H12X20338   6.632   5.976   9.317  1.5735  0.6431 -1.9407
  178SOPE  H12Y20339   6.613   6.118   9.212 -1.8250  1.8707  0.2061
  178SOPE  C31320340   6.514   5.941   9.139 -0.2926  0.5079 -0.5618
  178SOPE  H13X20341   6.507   5.834   9.170  0.3055 -0.2351 -2.8092
  178SOPE  H13Y20342   6.603   5.944   9.073  2.1619  1.2685  2.5074
  178SOPE  C31420343   6.396   5.986   9.056  0.2041 -0.4432  0.3124
  178SOPE  H14X20344   6.304   5.991   9.117 -0.2270  0.2861 -0.3862
  178SOPE  H14Y20345   6.376   5.910   8.977  3.3615 -0.9338 -0.1688
  178SOPE  C31520346   6.423   6.111   8.976 -0.8131 -0.2674  0.4118
  178SOPE  H15X20347   6.503   6.100   8.899 -0.6112  0.6052  0.4900
  178SOPE  H15Y20348   6.460   6.183   9.052  0.2571  1.1262 -1.3509
  178SOPE  C31620349   6.300   6.166   8.900  0.2347  0.3703 -0.3043
  178SOPE  H16X20350   6.214   6.168   8.970  1.3411 -2.2724  1.3039
  178SOPE  H16Y20351   6.275   6.094   8.819 -0.4692  1.6410 -1.2521
  178SOPE  C31720352   6.339   6.297   8.830 -1.2109 -0.5179 -0.2526
  178SOPE  H17X20353   6.267   6.330   8.752  1.3759 -0.6564 -2.8729
  178SOPE  H17Y20354   6.430   6.278   8.769  0.6372 -1.8617  2.7229
  178SOPE  C31820355   6.370   6.409   8.929 -0.0714  0.1916 -0.3401
  178SOPE  H18X20356   6.284   6.478   8.920 -1.0294 -1.0708 -1.4591
  178SOPE  H18Y20357   6.467   6.455   8.901 -0.8451  1.3078 -1.2789
  178SOPE  H18Z20358   6.384   6.370   9.032 -0.1305 -0.2028 -0.4792
  179SOPE     N20359   4.008   3.574   6.241  0.1044 -0.0312  0.1317
  179SOPE   HN120360   4.049   3.526   6.158  1.4544 -0.3803  0.9602
  179SOPE   HN220361   4.025   3.501   6.313  0.5739 -0.1675 -0.1084
  179SOPE   HN320362   3.909   3.592   6.217  0.0974 -0.7199 -0.4097
  179SOPE   C1220363   4.090   3.698   6.265  0.8420  0.0675 -0.1806
  179SOPE  H12A20364   4.055   3.780   6.199 -0.5639 -0.2940  0.0842
  179SOPE  H12B20365   4.194   3.672   6.237  0.8013 -1.1872  0.7453
  179SOPE   C1120366   4.082   3.736   6.414  0.4150  0.1306 -0.7378
  179SOPE  H11A20367   4.131   3.831   6.441 -0.3604 -0.2250  2.2394
  179SOPE  H11B20368   4.128   3.654   6.474 -0.3842  0.9723  1.0925
  179SOPE     P20369   3.863   3.883   6.466 -0.0340 -0.4611 -0.1053
  179SOPE   O1320370   3.718   3.863   6.456  0.0817  0.4468 -0.0591
  179SOPE   O1420371   3.921   3.968   6.363  0.4219 -0.1018  0.2105
  179SOPE   O1220372   3.943   3.743   6.466  0.0256 -0.1240 -0.0310
  179SOPE   O1120373   3.895   3.938   6.614  0.0359  0.2384 -1.0474
  179SOPE    C120374   3.862   3.848   6.719 -0.6887  0.4345 -0.2716
  179SOPE    HA20375   3.959   3.811   6.760 -0.7104  2.6472  2.0664
  179SOPE    HB20376   3.783   3.774   6.697 -0.5176 -0.2751  1.3580
  179SOPE    C220377   3.800   3.929   6.838 -0.4283 -0.2060  0.3481
  179SOPE    HS20378   3.694   3.951   6.814 -1.1866 -3.1521  0.6878
  179SOPE   O2120379   3.890   4.041   6.864 -0.4458 -0.5319 -0.0195
  179SOPE   C2120380   3.852   4.140   6.929 -0.4726 -0.1994  0.0709
  179SOPE   O2220381   3.736   4.171   6.955 -0.5337  0.2059 -0.2101
  179SOPE   C2220382   3.974   4.205   7.009 -0.5754 -0.0919  0.2912
  179SOPE   H2R20383   3.927   4.273   7.083 -0.2027  0.0265  0.4184
  179SOPE   H2S20384   4.032   4.267   6.937  0.9322  0.2235  1.7368
  179SOPE    C320385   3.796   3.840   6.975 -0.0286  0.0653  0.6751
  179SOPE    HX20386   3.897   3.802   7.000 -0.3073 -0.7721  0.5843
  179SOPE    HY20387   3.729   3.755   6.950 -1.8672  1.1607  1.6758
  179SOPE   O3120388   3.746   3.911   7.090  0.0843 -0.3297  0.3525
  179SOPE   C3120389   3.617   3.928   7.103  0.1842 -0.0969 -0.2487
  179SOPE   O3220390   3.528   3.869   7.042 -0.0249 -0.1941 -0.5837
  179SOPE   C3220391   3.594   4.040   7.208  0.0777 -0.0436 -0.2827
  179SOPE   H2X20392   3.485   4.062   7.213  0.1079 -0.2287  2.1625
  179SOPE   H2Y20393   3.645   4.135   7.179 -1.6930  0.5715 -1.5582
  179SOPE   C2320394   4.051   4.107   7.093 -0.5515 -1.0819  0.8521
  179SOPE   H3R20395   4.152   4.153   7.097 -1.3983  0.9336  0.6290
  179SOPE   H3S20396   4.073   4.009   7.047 -1.1455 -2.5913  3.6052
  179SOPE   C2420397   3.979   4.095   7.231  0.3139 -0.3974  0.5011
  179SOPE   H4R20398   3.986   4.198   7.274  0.6228 -0.0191 -0.4335
  179SOPE   H4S20399   3.874   4.064   7.216  1.1788 -2.4444 -1.9483
  179SOPE   C2520400   4.047   3.989   7.317 -0.6585  0.5537 -0.1676
  179SOPE   H5R20401   3.984   3.899   7.308  0.0461  0.1699 -1.6244
  179SOPE   H5S20402   4.144   3.953   7.276 -1.8707 -3.3064 -0.0333
  179SOPE   C2620403   4.051   4.033   7.465 -0.4058  0.5941  0.1025
  179SOPE   H6R20404   4.128   4.107   7.494 -0.4591  0.8539 -0.4130
  179SOPE   H6S20405   3.960   4.091   7.492 -0.0922  0.2421  2.1092
  179SOPE   C2720406   4.043   3.914   7.568  1.3051 -0.1470 -0.5906
  179SOPE   H7R20407   3.951   3.857   7.543 -1.0742  3.6059 -1.3180
  179SOPE   H7S20408   4.139   3.859   7.562  1.5396 -0.2689  2.5750
  179SOPE   C2820409   4.020   3.961   7.713 -0.2593  0.4138 -0.0726
  179SOPE   H8R20410   4.077   4.055   7.734 -1.7683  1.3298  0.0890
  179SOPE   H8S20411   3.914   3.992   7.726 -0.9792 -1.8655 -0.0803
  179SOPE   C2920412   4.039   3.849   7.812 -0.1299  0.6245  0.0333
  179SOPE   H9120413   4.021   3.756   7.755 -0.2777  0.8841 -0.3510
  179SOPE  C21020414   4.052   3.848   7.945 -0.2122  0.5248 -0.7029
  179SOPE  H10120415   4.081   3.752   7.991  0.6700  1.5994  1.1071
  179SOPE  C21120416   4.065   3.965   8.037  0.2620 -0.6547 -0.1763
  179SOPE  H11R20417   3.962   3.998   8.064  0.8883  0.1018  1.4132
  179SOPE  H11S20418   4.103   4.062   7.998  2.1399 -0.1577  2.5609
  179SOPE  C21220419   4.154   3.929   8.157  0.8240 -0.1915 -0.3389
  179SOPE  H12R20420   4.173   4.033   8.194 -1.2892 -0.1202  0.6753
  179SOPE  H12S20421   4.252   3.888   8.126  1.1416  0.8550 -0.7726
  179SOPE  C21320422   4.093   3.844   8.271 -0.1713 -0.3034 -0.7112
  179SOPE  H13R20423   4.048   3.751   8.229 -1.7084 -0.8229  1.8902
  179SOPE  H13S20424   4.000   3.895   8.306  0.6212  0.5929  0.1253
  179SOPE  C21420425   4.200   3.819   8.382 -0.3223  1.0702  0.1650
  179SOPE  H14R20426   4.278   3.764   8.326 -1.8168 -0.6804 -0.2748
  179SOPE  H14S20427   4.162   3.736   8.445 -0.6845  2.2576  1.5774
  179SOPE  C21520428   4.233   3.935   8.470 -0.5101  0.3156 -0.3639
  179SOPE  H15R20429   4.301   4.007   8.419  0.7421 -0.4948  0.1184
  179SOPE  H15S20430   4.294   3.882   8.546  2.0589  1.8461 -1.2208
  179SOPE  C21620431   4.109   3.994   8.535  0.2112 -0.0398  0.4871
  179SOPE  H16R20432   4.033   3.920   8.569  0.3107 -0.7798 -0.8439
  179SOPE  H16S20433   4.054   4.049   8.456  1.1221  3.1035  1.8919
  179SOPE  C21720434   4.141   4.099   8.641 -1.2221  0.1787 -0.0631
  179SOPE  H17R20435   4.215   4.165   8.591  1.0656 -2.5760 -0.5698
  179SOPE  H17S20436   4.186   4.052   8.731 -2.8059  0.5418  0.9567
  179SOPE  C21820437   4.017   4.165   8.693  0.4848  0.0715  0.2611
  179SOPE  H18R20438   3.962   4.219   8.613  1.0868 -1.1562 -1.0298
  179SOPE  H18S20439   4.042   4.230   8.779 -1.1225 -0.7520  1.4139
  179SOPE  H18T20440   3.945   4.088   8.727  0.5918  0.3772  1.1904
  179SOPE   C3320441   3.626   4.003   7.358 -0.2783 -0.1690  0.1104
  179SOPE   H3X20442   3.623   4.101   7.410 -1.1980  0.7976 -1.6766
  179SOPE   H3Y20443   3.725   3.953   7.358 -1.0592 -1.7568  0.4131
  179SOPE   C3420444   3.519   3.925   7.424  0.2326 -0.4322 -0.4862
  179SOPE   H4X20445   3.521   3.822   7.382 -0.4283 -1.6160  2.2079
  179SOPE   H4Y20446   3.418   3.960   7.393  0.2951  0.8867  0.7062
  179SOPE   C3520447   3.518   3.916   7.582 -0.5042 -0.3267 -0.2474
  179SOPE   H5X20448   3.481   4.010   7.628 -1.0227 -0.1641 -0.9752
  179SOPE   H5Y20449   3.623   3.906   7.615 -0.8632  2.3056  1.9953
  179SOPE   C3620450   3.454   3.791   7.643  0.2304  0.6589 -0.1919
  179SOPE   H6X20451   3.504   3.714   7.580  1.2232  1.2018 -0.0835
  179SOPE   H6Y20452   3.346   3.794   7.618 -0.3384  0.1809  1.9655
  179SOPE   C3720453   3.469   3.765   7.793 -0.0381  0.4459 -0.0705
  179SOPE   H7X20454   3.396   3.687   7.822 -1.4101  1.4230 -0.8110
  179SOPE   H7Y20455   3.451   3.853   7.859  1.6136  0.4771  0.3876
  179SOPE   C3820456   3.613   3.717   7.819  0.9281  0.2415 -0.4182
  179SOPE   H8X20457   3.677   3.799   7.781 -1.3672  1.7004 -1.3661
  179SOPE   H8Y20458   3.639   3.630   7.755  0.3761 -2.8448  3.2238
  179SOPE   C3920459   3.635   3.678   7.966  0.5199  0.2264  0.2127
  179SOPE   H9X20460   3.729   3.619   7.968  1.1381  1.0753 -1.2270
  179SOPE   H9Y20461   3.548   3.613   7.988  0.5293 -0.7409 -2.2818
  179SOPE  C31020462   3.652   3.799   8.061 -0.1062  1.0732  0.0157
  179SOPE  H10X20463   3.556   3.854   8.076 -0.5417  1.0450 -2.3390
  179SOPE  H10Y20464   3.727   3.865   8.013 -0.4257  0.1440 -1.8657
  179SOPE  C31120465   3.693   3.749   8.205  0.6943 -0.4292  0.5800
  179SOPE  H11X20466   3.803   3.731   8.212  1.5327  4.0953  2.9470
  179SOPE  H11Y20467   3.635   3.659   8.234 -0.3441  0.6502  2.0223
  179SOPE  C31220468   3.662   3.857   8.308  0.4359 -0.6142 -0.4329
  179SOPE  H12X20469   3.556   3.884   8.325 -0.1313 -3.3075  1.0349
  179SOPE  H12Y20470   3.724   3.948   8.292 -0.8885  0.2127 -0.9866
  179SOPE  C31320471   3.695   3.814   8.455  0.6032 -0.8718 -0.5001
  179SOPE  H13X20472   3.804   3.809   8.476  0.1572 -0.7560  2.2412
  179SOPE  H13Y20473   3.654   3.711   8.464 -0.6930 -0.3263  0.0787
  179SOPE  C31420474   3.633   3.905   8.563  0.4215  1.0028  0.4777
  179SOPE  H14X20475   3.524   3.897   8.580  0.6946 -0.7790  1.6092
  179SOPE  H14Y20476   3.658   4.010   8.535  2.0601  1.0298  1.8764
  179SOPE  C31520477   3.695   3.861   8.693  0.2525 -0.8680 -0.4432
  179SOPE  H15X20478   3.803   3.884   8.694 -0.2542  2.0855 -2.2796
  179SOPE  H15Y20479   3.673   3.753   8.711  2.1609 -1.2364 -0.0559
  179SOPE  C31620480   3.639   3.936   8.815 -0.2392 -0.7802  0.0205
  179SOPE  H16X20481   3.528   3.928   8.824 -0.0969 -1.1615  2.0557
  179SOPE  H16Y20482   3.662   4.044   8.803 -1.9293 -0.3886  0.0075
  179SOPE  C31720483   3.686   3.897   8.947  0.2261 -0.2814 -0.5243
  179SOPE  H17X20484   3.786   3.941   8.966  0.6150 -1.3768  0.0609
  179SOPE  H17Y20485   3.692   3.786   8.961 -0.1547 -0.2188  0.1731
  179SOPE  C31820486   3.589   3.934   9.069 -0.1326  0.2021  0.2008
  179SOPE  H18X20487   3.638   3.905   9.164 -0.1868  0.4701  0.3131
  179SOPE  H18Y20488   3.491   3.885   9.052 -0.1344 -0.2102  1.2647
  179SOPE  H18Z20489   3.581   4.045   9.069  0.2919  0.2418  0.7104
  180SOPE     N20490   3.054   2.997   6.485  0.2878  0.2767  0.1954
  180SOPE   HN120491   3.043   2.950   6.577 -2.3663  0.4037  0.0114
  180SOPE   HN220492   2.956   3.025   6.465  0.0242 -0.5028  0.3497
  180SOPE   HN320493   3.081   2.923   6.416 -0.7475  0.2791 -0.2199
  180SOPE   C1220494   3.148   3.114   6.466  0.4217 -0.2264  0.1028
  180SOPE  H12A20495   3.136   3.182   6.553  1.5127 -1.4247  1.2416
  180SOPE  H12B20496   3.117   3.162   6.371 -0.3440 -2.1608 -0.6699
  180SOPE   C1120497   3.292   3.058   6.464 -0.2650 -0.4456 -0.2821
  180SOPE  H11A20498   3.322   3.043   6.569 -0.5995  0.4337 -0.0547
  180SOPE  H11B20499   3.361   3.138   6.431 -0.7804  0.3950  0.6386
  180SOPE     P20500   3.416   2.836   6.373  0.0622 -0.6079  0.2954
  180SOPE   O1320501   3.527   2.898   6.296 -0.4974 -0.3130  0.0574
  180SOPE   O1420502   3.356   2.717   6.321 -0.0117  0.3193  0.5407
  180SOPE   O1220503   3.304   2.938   6.378  0.5133 -0.5214  0.4013
  180SOPE   O1120504   3.459   2.830   6.523 -0.3409  0.8743 -0.1888
  180SOPE    C120505   3.376   2.773   6.619 -0.3979  0.0290 -0.8494
  180SOPE    HA20506   3.272   2.752   6.585 -0.9871  0.5987  0.5395
  180SOPE    HB20507   3.364   2.841   6.706 -1.3441 -1.1414 -0.0243
  180SOPE    C220508   3.430   2.640   6.680  0.4052  0.4933 -0.2734
  180SOPE    HS20509   3.397   2.642   6.786  1.9477  1.5348  0.2245
  180SOPE   O2120510   3.571   2.641   6.682 -1.0281  0.6117 -0.5055
  180SOPE   C2120511   3.638   2.613   6.793  0.3830  0.3305  0.2205
  180SOPE   O2220512   3.588   2.606   6.905  0.0839 -0.0358 -0.3094
  180SOPE   C2220513   3.776   2.570   6.753 -0.1045 -0.0313 -0.1406
  180SOPE   H2R20514   3.827   2.643   6.686  0.1248 -0.3704 -0.3396
  180SOPE   H2S20515   3.765   2.476   6.695  2.7889 -1.0727  0.8237
  180SOPE    C320516   3.386   2.521   6.604 -0.5817  0.4645  0.4746
  180SOPE    HX20517   3.425   2.544   6.503  0.2785  3.8077  1.4272
  180SOPE    HY20518   3.276   2.520   6.598 -0.6014 -0.0159  0.8621
  180SOPE   O3120519   3.454   2.397   6.647  0.1089  0.1955  0.6395
  180SOPE   C3120520   3.391   2.335   6.741 -0.9898  0.2314 -0.7891
  180SOPE   O3220521   3.286   2.363   6.788  0.6085 -0.7716 -0.3252
  180SOPE   C3220522   3.484   2.222   6.784 -0.1455  1.0748 -0.1988
  180SOPE   H2X20523   3.559   2.208   6.704  0.3080  1.3120  0.1772
  180SOPE   H2Y20524   3.430   2.126   6.798  2.2686 -0.4857 -0.9389
  180SOPE   C2320525   3.863   2.550   6.875 -0.6025 -0.4590 -0.1969
  180SOPE   H3R20526   3.957   2.507   6.832 -2.1895 -2.5938 -1.7507
  180SOPE   H3S20527   3.820   2.471   6.940 -0.8073 -0.1505  0.0392
  180SOPE   C2420528   3.895   2.671   6.962  0.2210  0.6889 -0.6554
  180SOPE   H4R20529   3.925   2.758   6.900 -1.9085  2.2672  0.3973
  180SOPE   H4S20530   3.802   2.704   7.014  1.4117  1.3133  1.1446
  180SOPE   C2520531   3.990   2.639   7.085  0.2016  0.2366 -0.1230
  180SOPE   H5R20532   3.976   2.708   7.171  1.5301  0.1052  0.2106
  180SOPE   H5S20533   3.956   2.538   7.119 -0.5006 -0.0289 -1.5601
  180SOPE   C2620534   4.147   2.650   7.057  0.2912  0.0482 -0.5595
  180SOPE   H6R20535   4.174   2.555   7.007 -0.0196 -0.7920  0.8105
  180SOPE   H6S20536   4.156   2.743   6.996  1.2591 -1.6459 -3.1482
  180SOPE   C2720537   4.238   2.666   7.185  0.0840 -0.2397 -0.2505
  180SOPE   H7R20538   4.206   2.767   7.218  0.7355  0.0464 -0.4700
  180SOPE   H7S20539   4.214   2.599   7.271  1.3345  2.2549  2.1826
  180SOPE   C2820540   4.389   2.685   7.165 -0.5181  0.6920  0.1473
  180SOPE   H8R20541   4.391   2.776   7.102  0.0546  0.8039  0.3171
  180SOPE   H8S20542   4.421   2.715   7.267  0.0357  2.3458 -0.4851
  180SOPE   C2920543   4.461   2.567   7.106  0.0817  0.2335  0.4779
  180SOPE   H9120544   4.412   2.509   7.026 -0.2806  0.2390  0.6964
  180SOPE  C21020545   4.592   2.538   7.135  0.3207  0.0563  0.2519
  180SOPE  H10120546   4.631   2.445   7.093 -1.7179 -0.8688  0.2990
  180SOPE  C21120547   4.696   2.604   7.227  0.3949 -0.3363 -0.4799
  180SOPE  H11R20548   4.690   2.715   7.225  0.3443 -0.2980  0.8964
  180SOPE  H11S20549   4.798   2.573   7.195  0.6964  0.1917 -0.0506
  180SOPE  C21220550   4.691   2.552   7.378  0.1515 -0.6820  1.0248
  180SOPE  H12R20551   4.704   2.443   7.392 -2.3976 -0.9529  1.6532
  180SOPE  H12S20552   4.589   2.565   7.420 -0.5263 -2.2613 -0.0396
  180SOPE  C21320553   4.789   2.637   7.462  0.6357 -0.3704 -0.1981
  180SOPE  H13R20554   4.792   2.746   7.442  2.8104 -0.0104  1.6666
  180SOPE  H13S20555   4.890   2.594   7.441  0.4247  0.4663 -3.4213
  180SOPE  C21420556   4.789   2.600   7.612 -0.5296 -0.1691 -0.0434
  180SOPE  H14R20557   4.809   2.491   7.613  0.7594  0.0571  0.9155
  180SOPE  H14S20558   4.689   2.613   7.660 -1.1223 -0.4569 -1.1595
  180SOPE  C21520559   4.899   2.684   7.684  0.0276 -0.5413 -0.2661
  180SOPE  H15R20560   4.889   2.787   7.643  1.2347 -0.1665  0.3547
  180SOPE  H15S20561   5.002   2.644   7.678  0.6440  1.0743 -1.0426
  180SOPE  C21620562   4.869   2.693   7.833  0.0960  0.4487 -0.6599
  180SOPE  H16R20563   4.863   2.592   7.880 -1.8595  1.6309  1.8565
  180SOPE  H16S20564   4.770   2.737   7.855 -0.4019 -0.8414 -0.1853
  180SOPE  C21720565   4.979   2.763   7.900 -0.0018 -0.1296  0.2555
  180SOPE  H17R20566   4.993   2.868   7.864 -0.0287 -0.4857 -0.8291
  180SOPE  H17S20567   5.079   2.719   7.878 -0.4825 -1.3895  0.5134
  180SOPE  C21820568   4.965   2.767   8.052 -0.0679 -0.9153  0.2860
  180SOPE  H18R20569   4.964   2.665   8.096 -0.4714  0.1585  2.9340
  180SOPE  H18S20570   4.876   2.826   8.083  0.9819 -0.5417  2.8787
  180SOPE  H18T20571   5.056   2.813   8.098 -0.3062  1.7241 -1.6246
  180SOPE   C3320572   3.576   2.257   6.905  1.3028 -0.1665 -0.1442
  180SOPE   H3X20573   3.639   2.346   6.882 -0.9403  1.5998  0.2180
  180SOPE   H3Y20574   3.640   2.171   6.935  0.1947 -0.8216  0.3808
  180SOPE   C3420575   3.499   2.306   7.035  0.1637  0.3026  0.5321
  180SOPE   H4X20576   3.419   2.233   7.057 -1.0054  0.8539 -1.5828
  180SOPE   H4Y20577   3.442   2.394   6.998  1.3127  0.2720 -1.4458
  180SOPE   C3520578   3.595   2.342   7.149  0.2406  0.3798 -0.6942
  180SOPE   H5X20579   3.549   2.421   7.212  0.0921  0.6113 -1.0913
  180SOPE   H5Y20580   3.691   2.388   7.116  2.2405 -2.6695  0.4490
  180SOPE   C3620581   3.645   2.224   7.233 -0.4085  0.2001 -0.0150
  180SOPE   H6X20582   3.682   2.145   7.164  1.2496  1.0158 -0.0997
  180SOPE   H6Y20583   3.558   2.191   7.294  0.5951  2.0915  2.6205
  180SOPE   C3720584   3.762   2.268   7.330 -0.4414 -0.2594 -0.2659
  180SOPE   H7X20585   3.720   2.350   7.392  0.6956  0.6230 -0.6164
  180SOPE   H7Y20586   3.857   2.301   7.282  1.6916 -2.4371  2.1334
  180SOPE   C3820587   3.802   2.161   7.432 -0.2687 -0.2210 -0.3300
  180SOPE   H8X20588   3.859   2.080   7.383 -0.1598 -0.5699  0.3603
  180SOPE   H8Y20589   3.707   2.123   7.475  0.1323 -1.5648 -0.5917
  180SOPE   C3920590   3.904   2.193   7.546 -1.0825  0.1669  0.2601
  180SOPE   H9X20591   3.864   2.259   7.626 -0.3492  0.2004  0.6046
  180SOPE   H9Y20592   3.994   2.249   7.514 -1.1754 -0.3342 -0.9451
  180SOPE  C31020593   3.952   2.063   7.619  0.0371 -0.1244  0.1512
  180SOPE  H10X20594   3.995   1.996   7.542  4.3067 -1.7713  3.4762
  180SOPE  H10Y20595   3.867   2.020   7.676 -1.0519  0.3324 -1.0956
  180SOPE  C31120596   4.076   2.085   7.704  0.8540 -0.1647 -0.4237
  180SOPE  H11X20597   4.041   2.137   7.795 -1.4784  0.2272 -1.4807
  180SOPE  H11Y20598   4.152   2.146   7.650  2.3306 -1.9288 -0.4286
  180SOPE  C31220599   4.134   1.948   7.732  0.9101 -0.4535 -0.7450
  180SOPE  H12X20600   4.162   1.904   7.633  0.1967 -0.6756 -0.8551
  180SOPE  H12Y20601   4.062   1.877   7.778 -1.6109  0.3530 -3.1553
  180SOPE  C31320602   4.269   1.963   7.807  0.5621 -0.5713  0.2883
  180SOPE  H13X20603   4.341   2.017   7.742 -0.8467 -1.8700 -2.5722
  180SOPE  H13Y20604   4.294   1.858   7.832 -0.5627 -0.2438  3.1360
  180SOPE  C31420605   4.256   2.029   7.950 -0.4017 -0.1005  0.2923
  180SOPE  H14X20606   4.248   2.138   7.931  1.3682  0.0650  0.2770
  180SOPE  H14Y20607   4.355   2.009   7.997 -0.5746  0.5749  0.9693
  180SOPE  C31520608   4.143   1.965   8.035 -0.3142 -0.6210  0.5043
  180SOPE  H15X20609   4.160   1.855   8.035 -0.3272 -0.6453 -0.7723
  180SOPE  H15Y20610   4.046   1.983   7.984  0.1661 -0.1518 -0.2619
  180SOPE  C31620611   4.138   2.017   8.181  0.3280  0.1168  0.1162
  180SOPE  H16X20612   4.092   2.118   8.180 -2.0943 -0.8926 -2.3946
  180SOPE  H16Y20613   4.241   2.009   8.223  1.0944 -3.1268 -2.0101
  180SOPE  C31720614   4.056   1.924   8.259  0.4563  0.4535 -0.3183
  180SOPE  H17X20615   4.095   1.821   8.273 -2.0586 -0.4810  0.4728
  180SOPE  H17Y20616   3.962   1.906   8.202  0.0650  0.3684  0.3443
  180SOPE  C31820617   4.008   1.985   8.391  0.2871  0.0366  0.1575
  180SOPE  H18X20618   3.966   2.088   8.382 -0.6549 -0.4539 -1.6047
  180SOPE  H18Y20619   4.084   1.999   8.470  0.4881  1.2062 -0.2116
  180SOPE  H18Z20620   3.926   1.922   8.431  0.1832  0.3819  0.4952
  181SOPE     N20621   2.707   0.282   6.228  0.4972 -0.2166 -0.9966
  181SOPE   HN120622   2.610   0.317   6.217  0.4217  0.3135  0.9737
  181SOPE   HN220623   2.720   0.188   6.186 -0.6353 -1.3372  0.9762
  181SOPE   HN320624   2.739   0.268   6.326 -1.3384 -1.8525 -0.5836
  181SOPE   C1220625   2.794   0.371   6.155 -0.2781  0.0205 -0.1710
  181SOPE  H12A20626   2.773   0.476   6.185 -0.6950 -0.0103 -0.3444
  181SOPE  H12B20627   2.767   0.365   6.047  0.5445 -1.7406 -0.3097
  181SOPE   C1120628   2.942   0.322   6.188 -0.3241 -0.1684  0.2828
  181SOPE  H11A20629   2.976   0.371   6.282 -0.5116  0.5109  0.0063
  181SOPE  H11B20630   3.008   0.367   6.110 -0.1824  2.9137  2.0109
  181SOPE     P20631   3.061   0.092   6.115 -0.1182  0.3556 -0.5659
  181SOPE   O1320632   3.044   0.125   5.974 -0.0530  0.6190  0.2536
  181SOPE   O1420633   3.036  -0.053   6.143 -0.5755 -0.4014 -0.2273
  181SOPE   O1220634   2.949   0.179   6.193  0.6136 -0.1676 -0.7455
  181SOPE   O1120635   3.203   0.132   6.156 -0.2496 -0.2359 -0.2227
  181SOPE    C120636   3.238   0.165   6.292 -0.5494 -1.0834 -0.3044
  181SOPE    HA20637   3.169   0.238   6.338  1.4010  0.4055  0.3922
  181SOPE    HB20638   3.336   0.217   6.290 -0.4849 -1.1062 -3.1242
  181SOPE    C220639   3.249   0.045   6.395 -0.1203  0.3150 -0.2196
  181SOPE    HS20640   3.153  -0.011   6.391 -0.2082  0.5495 -2.1924
  181SOPE   O2120641   3.282   0.093   6.527  0.1099  0.3530  0.0997
  181SOPE   C2120642   3.189   0.153   6.601  1.0407  0.3644 -0.2601
  181SOPE   O2220643   3.073   0.173   6.566 -0.3855 -0.3725 -0.0253
  181SOPE   C2220644   3.250   0.196   6.733 -0.1546  0.0180  0.4190
  181SOPE   H2R20645   3.305   0.292   6.722  0.7269 -0.6141 -0.9054
  181SOPE   H2S20646   3.324   0.121   6.768  2.9710  2.4759 -0.4466
  181SOPE    C320647   3.371  -0.049   6.342  0.0807 -0.3435  0.0502
  181SOPE    HX20648   3.453   0.019   6.310  0.9352 -0.5238  1.7894
  181SOPE    HY20649   3.321  -0.109   6.262 -0.9032 -1.3164  1.3560
  181SOPE   O3120650   3.414  -0.129   6.447 -0.1188 -0.2210  0.0765
  181SOPE   C3120651   3.537  -0.188   6.439 -0.4107  0.2142  1.0985
  181SOPE   O3220652   3.603  -0.185   6.335 -0.2802 -0.2244  0.4168
  181SOPE   C3220653   3.590  -0.231   6.576 -0.1383  0.3594  0.8775
  181SOPE   H2X20654   3.509  -0.293   6.619  0.3760 -1.0385 -0.0643
  181SOPE   H2Y20655   3.583  -0.136   6.633  1.2660  1.0468 -0.0237
  181SOPE   C2320656   3.131   0.222   6.838 -0.2294 -0.1474 -0.4799
  181SOPE   H3R20657   3.063   0.135   6.835  1.7980 -1.7987 -0.8650
  181SOPE   H3S20658   3.068   0.311   6.816 -0.0251  0.2406  0.4469
  181SOPE   C2420659   3.203   0.262   6.974  0.1444  0.6312  0.3123
  181SOPE   H4R20660   3.282   0.190   7.006 -2.8958 -3.0808  0.1554
  181SOPE   H4S20661   3.255   0.358   6.955  0.3906  1.2725  3.7032
  181SOPE   C2520662   3.101   0.275   7.089  0.4835 -0.0381 -0.0265
  181SOPE   H5R20663   3.029   0.352   7.053  1.9352  0.8084 -1.2646
  181SOPE   H5S20664   3.047   0.180   7.108 -1.0369  0.4928 -1.4337
  181SOPE   C2620665   3.163   0.305   7.229  0.2049  0.5566  0.5891
  181SOPE   H6R20666   3.218   0.213   7.258 -1.2224 -0.1366  1.2272
  181SOPE   H6S20667   3.233   0.391   7.235 -0.0173  0.8564 -0.8451
  181SOPE   C2720668   3.074   0.321   7.351  0.3806  0.1247  0.5539
  181SOPE   H7R20669   2.990   0.248   7.351 -0.9388  1.4447  3.4166
  181SOPE   H7S20670   3.128   0.297   7.445  0.6201 -0.4635  0.2632
  181SOPE   C2820671   3.010   0.462   7.373  0.2527 -0.3627 -0.5940
  181SOPE   H8R20672   2.963   0.505   7.282  4.4218 -0.3640 -3.0419
  181SOPE   H8S20673   2.936   0.439   7.452  1.7283 -0.3934  0.8447
  181SOPE   C2920674   3.106   0.564   7.437 -0.4635  0.4760 -0.1247
  181SOPE   H9120675   3.175   0.609   7.363  0.0770  0.9605  0.6518
  181SOPE  C21020676   3.111   0.602   7.569 -0.4315 -0.1181  0.1625
  181SOPE  H10120677   3.197   0.668   7.587 -0.4925 -0.5255  2.1756
  181SOPE  C21120678   3.024   0.562   7.683 -0.0186 -0.2090  0.1459
  181SOPE  H11R20679   2.952   0.482   7.656  0.7391 -0.6175 -0.7280
  181SOPE  H11S20680   2.977   0.653   7.726 -2.1325 -0.1182 -2.1363
  181SOPE  C21220681   3.107   0.490   7.789 -0.1844 -0.5005  0.8707
  181SOPE  H12R20682   3.146   0.399   7.739  0.5574  0.8502 -1.1009
  181SOPE  H12S20683   3.041   0.459   7.873 -0.8876 -2.0271 -0.1969
  181SOPE  C21320684   3.218   0.580   7.838 -0.5141 -0.8863  0.0571
  181SOPE  H13R20685   3.183   0.683   7.859  2.2196 -0.3755  2.9128
  181SOPE  H13S20686   3.306   0.586   7.770  0.3332 -1.3562  1.0904
  181SOPE  C21420687   3.288   0.529   7.969  1.2529  0.0620  0.7003
  181SOPE  H14R20688   3.330   0.433   7.932  1.3675  0.2563  0.3175
  181SOPE  H14S20689   3.208   0.500   8.041  0.1152 -1.5556 -1.1316
  181SOPE  C21520690   3.381   0.633   8.042 -0.2966  0.0769  0.1755
  181SOPE  H15R20691   3.331   0.727   8.074 -0.5370  0.1551 -0.4302
  181SOPE  H15S20692   3.449   0.681   7.969 -0.5214 -0.2391 -0.2449
  181SOPE  C21620693   3.452   0.573   8.158 -0.5544 -0.3213  0.0212
  181SOPE  H16R20694   3.526   0.498   8.124  0.9784  0.6157  1.1655
  181SOPE  H16S20695   3.385   0.514   8.224 -0.9351 -0.0062 -0.0809
  181SOPE  C21720696   3.534   0.677   8.230 -0.3876 -0.6940  1.3576
  181SOPE  H17R20697   3.464   0.752   8.274  0.2036  0.3356  0.5963
  181SOPE  H17S20698   3.595   0.733   8.156 -3.3043  1.4950  0.4120
  181SOPE  C21820699   3.629   0.619   8.339 -0.5970  0.4110 -0.3445
  181SOPE  H18R20700   3.575   0.582   8.429  1.9809 -0.4772  0.9368
  181SOPE  H18S20701   3.691   0.699   8.384 -1.3682  1.0272 -0.3556
  181SOPE  H18T20702   3.687   0.535   8.294  0.7802  0.3083  1.5047
  181SOPE   C3320703   3.734  -0.282   6.573 -0.2691  0.0419  0.1052
  181SOPE   H3X20704   3.790  -0.209   6.512  0.0757 -0.0538  0.3054
  181SOPE   H3Y20705   3.748  -0.377   6.516  2.6687  0.6805 -0.3934
  181SOPE   C3420706   3.794  -0.315   6.713  0.6569 -0.0555  0.1996
  181SOPE   H4X20707   3.779  -0.223   6.773  1.9726  0.8309 -0.7686
  181SOPE   H4Y20708   3.903  -0.326   6.698  0.9128  2.6153 -0.5418
  181SOPE   C3520709   3.726  -0.433   6.780  0.5838  0.2441  0.5538
  181SOPE   H5X20710   3.739  -0.534   6.734 -3.9408  0.4599 -1.7574
  181SOPE   H5Y20711   3.615  -0.422   6.777  0.1551 -2.8816  0.8691
  181SOPE   C3620712   3.762  -0.444   6.931 -0.2624 -0.3214  0.0502
  181SOPE   H6X20713   3.864  -0.488   6.934 -0.3081 -1.1590 -4.1724
  181SOPE   H6Y20714   3.696  -0.521   6.977  2.4932 -1.0972  3.1089
  181SOPE   C3720715   3.755  -0.321   7.016 -0.2938  0.8758  0.2088
  181SOPE   H7X20716   3.657  -0.269   7.005  0.7473  2.5001 -2.1991
  181SOPE   H7Y20717   3.830  -0.247   6.980  0.5389  0.4441  1.0010
  181SOPE   C3820718   3.785  -0.359   7.162 -0.2993 -0.9145  0.9894
  181SOPE   H8X20719   3.893  -0.372   7.184 -0.3572 -1.2996  1.0524
  181SOPE   H8Y20720   3.731  -0.452   7.190 -0.3766 -0.1843  3.5573
  181SOPE   C3920721   3.754  -0.250   7.266 -0.3237 -0.6583 -0.3809
  181SOPE   H9X20722   3.646  -0.224   7.272 -0.0285  0.2837  1.4725
  181SOPE   H9Y20723   3.812  -0.160   7.238  0.5100 -0.9663  0.3043
  181SOPE  C31020724   3.805  -0.270   7.406 -0.3951  0.2657 -0.1162
  181SOPE  H10X20725   3.915  -0.287   7.397 -0.0239  2.1345  0.4888
  181SOPE  H10Y20726   3.758  -0.364   7.442  1.3537 -0.7531 -0.3719
  181SOPE  C31120727   3.766  -0.152   7.493 -0.5361  0.3652  0.2878
  181SOPE  H11X20728   3.660  -0.123   7.471 -0.4063  0.6401  0.0078
  181SOPE  H11Y20729   3.828  -0.066   7.461 -0.6944  0.0826 -0.8313
  181SOPE  C31220730   3.770  -0.191   7.640  0.0478  0.0607  0.8884
  181SOPE  H12X20731   3.721  -0.290   7.656 -1.6698  0.3950 -1.6659
  181SOPE  H12Y20732   3.708  -0.120   7.699 -1.8021 -1.6687  1.1707
  181SOPE  C31320733   3.908  -0.194   7.689 -0.1856 -0.0846  0.3537
  181SOPE  H13X20734   3.949  -0.091   7.678 -1.0833  0.0288 -3.2423
  181SOPE  H13Y20735   3.967  -0.257   7.619 -1.2135  1.5561 -2.1370
  181SOPE  C31420736   3.921  -0.256   7.832  0.5124 -0.3241 -0.2634
  181SOPE  H14X20737   4.026  -0.258   7.869  0.8047  0.9531 -0.9525
  181SOPE  H14Y20738   3.881  -0.359   7.826  0.8907 -0.5918  1.3626
  181SOPE  C31520739   3.839  -0.180   7.933 -0.0931 -0.2274  0.5375
  181SOPE  H15X20740   3.735  -0.213   7.911 -0.8177  0.2786  2.8848
  181SOPE  H15Y20741   3.851  -0.073   7.903 -0.8099 -0.0974  0.6938
  181SOPE  C31620742   3.887  -0.201   8.079  0.4228  0.1545  0.0847
  181SOPE  H16X20743   3.991  -0.162   8.082  0.0234  1.4138 -1.1248
  181SOPE  H16Y20744   3.887  -0.310   8.100  1.4996  0.1145 -0.0712
  181SOPE  C31720745   3.789  -0.131   8.176 -0.4184  0.7073 -0.6646
  181SOPE  H17X20746   3.686  -0.168   8.160  0.6357 -3.2465  0.5829
  181SOPE  H17Y20747   3.803  -0.027   8.140  2.1133  0.2707 -1.1377
  181SOPE  C31820748   3.825  -0.135   8.321 -0.4505 -0.6558 -1.2207
  181SOPE  H18X20749   3.772  -0.058   8.381  1.0317 -0.6098  0.0672
  181SOPE  H18Y20750   3.933  -0.117   8.335 -1.2951  2.8966  2.2037
  181SOPE  H18Z20751   3.794  -0.234   8.362  1.3948 -1.5189 -1.8145
  182SOPE     N20752   0.890   2.547   6.081 -0.3505 -0.4701 -0.0404
  182SOPE   HN120753   0.925   2.560   6.178  2.5187  1.6296 -1.2135
  182SOPE   HN220754   0.787   2.532   6.077  0.0954 -4.7242 -0.4912
  182SOPE   HN320755   0.939   2.464   6.043 -0.3594  0.3685 -1.9851
  182SOPE   C1220756   0.936   2.673   6.009  0.3289  0.3178  0.2798
  182SOPE  H12A20757   0.887   2.755   6.067  0.1179  1.3444 -1.2998
  182SOPE  H12B20758   0.900   2.653   5.906  0.4507 -0.9193  0.4645
  182SOPE   C1120759   1.088   2.695   6.007 -1.1341  0.2388  0.4146
  182SOPE  H11A20760   1.093   2.792   5.953 -2.7630 -0.2125 -0.6358
  182SOPE  H11B20761   1.144   2.610   5.963 -0.1972  0.0624  1.8839
  182SOPE     P20762   1.253   2.803   6.163 -0.2132 -0.1595  0.3789
  182SOPE   O1320763   1.218   2.946   6.166  0.0988 -0.1196  0.8690
  182SOPE   O1420764   1.355   2.766   6.066 -0.0312  0.0324  0.2474
  182SOPE   O1220765   1.126   2.729   6.140  0.3234 -0.0902 -0.0838
  182SOPE   O1120766   1.304   2.753   6.307 -0.0020  0.1783  0.3742
  182SOPE    C120767   1.202   2.762   6.413  0.8949  0.3339 -0.1824
  182SOPE    HA20768   1.201   2.667   6.472  1.2008 -0.8896 -2.0583
  182SOPE    HB20769   1.098   2.779   6.379  0.9986 -0.4187 -0.8931
  182SOPE    C220770   1.219   2.875   6.519  0.6229 -0.1424 -0.3568
  182SOPE    HS20771   1.236   2.972   6.466 -1.0740  0.4317  0.0938
  182SOPE   O2120772   1.333   2.843   6.601 -0.1797  0.1872  0.2036
  182SOPE   C2120773   1.409   2.946   6.647  0.4743  0.4933 -0.4707
  182SOPE   O2220774   1.383   3.064   6.624 -1.1548  1.1644 -0.1491
  182SOPE   C2220775   1.522   2.893   6.737  0.1414  0.2927 -0.2962
  182SOPE   H2R20776   1.619   2.934   6.704 -0.2322  1.1746 -0.3224
  182SOPE   H2S20777   1.523   2.782   6.726 -1.4982 -0.1036  2.5245
  182SOPE    C320778   1.084   2.889   6.610 -0.2844 -0.1133 -0.0592
  182SOPE    HX20779   1.076   2.792   6.664 -0.1954  0.2998  0.7180
  182SOPE    HY20780   0.993   2.889   6.546  0.0317  0.5228 -0.5209
  182SOPE   O3120781   1.090   2.984   6.714  0.2375  0.5422  0.0799
  182SOPE   C3120782   1.054   3.108   6.680 -0.1432  0.5952  0.5176
  182SOPE   O3220783   0.995   3.137   6.578 -0.2638  0.3192 -0.2485
  182SOPE   C3220784   1.103   3.203   6.778 -0.4479 -0.2776  0.2312
  182SOPE   H2X20785   1.214   3.202   6.783 -0.3959  2.0207  0.9109
  182SOPE   H2Y20786   1.065   3.173   6.878  1.0347 -0.6342  0.7129
  182SOPE   C2320787   1.502   2.938   6.887 -0.3068 -0.8842  0.0639
  182SOPE   H3R20788   1.583   2.890   6.947  0.5549  1.2790  0.7534
  182SOPE   H3S20789   1.402   2.920   6.931 -0.0415 -1.4255  0.4423
  182SOPE   C2420790   1.537   3.091   6.913  0.3991 -0.3062  0.1386
  182SOPE   H4R20791   1.640   3.112   6.878  0.3611 -2.2078 -1.3376
  182SOPE   H4S20792   1.473   3.161   6.855  0.8599  0.2031  0.2448
  182SOPE   C2520793   1.518   3.137   7.060  0.3540 -0.8051  0.3819
  182SOPE   H5R20794   1.552   3.242   7.044 -0.1899 -0.4462  1.5168
  182SOPE   H5S20795   1.414   3.143   7.097  0.2257  2.7497 -0.2387
  182SOPE   C2620796   1.607   3.075   7.162 -0.0681  0.2665 -0.4682
  182SOPE   H6R20797   1.551   2.992   7.210  0.1800 -0.5043 -1.4691
  182SOPE   H6S20798   1.691   3.030   7.104  1.7257  2.3864  0.3286
  182SOPE   C2720799   1.663   3.169   7.279  0.1338 -0.0279  0.0331
  182SOPE   H7R20800   1.714   3.103   7.352  0.4178 -0.4440 -0.5354
  182SOPE   H7S20801   1.744   3.232   7.237  0.4932 -1.7745 -2.1107
  182SOPE   C2820802   1.549   3.242   7.356 -0.1012  0.0628 -0.9019
  182SOPE   H8R20803   1.596   3.306   7.434 -1.1611  0.4160 -0.5319
  182SOPE   H8S20804   1.504   3.315   7.285  1.8993  2.6488  0.2858
  182SOPE   C2920805   1.443   3.143   7.409 -0.3766  0.0005  0.2928
  182SOPE   H9120806   1.373   3.106   7.332 -1.5117  1.7233  0.4446
  182SOPE  C21020807   1.417   3.107   7.542 -0.3162 -0.2228  0.5920
  182SOPE  H10120808   1.338   3.030   7.550  1.6731 -2.8180 -2.3607
  182SOPE  C21120809   1.490   3.163   7.667 -0.6934 -0.3260 -0.1386
  182SOPE  H11R20810   1.441   3.134   7.762  0.4017 -2.6709 -0.2121
  182SOPE  H11S20811   1.476   3.273   7.662  0.1581 -0.1971  0.0123
  182SOPE  C21220812   1.642   3.133   7.691  0.0900  0.0711 -0.4469
  182SOPE  H12R20813   1.701   3.199   7.625  1.2379  1.6006  1.9415
  182SOPE  H12S20814   1.666   3.027   7.670  2.3237  0.4592 -0.1372
  182SOPE  C21320815   1.692   3.171   7.831 -0.4396 -0.4711 -0.0121
  182SOPE  H13R20816   1.626   3.248   7.877  0.0278  0.2308 -0.5006
  182SOPE  H13S20817   1.795   3.211   7.817 -0.0457 -1.6677 -0.6563
  182SOPE  C21420818   1.701   3.043   7.920  0.3087 -0.0805 -0.1246
  182SOPE  H14R20819   1.785   2.981   7.883  0.3554  0.4592 -0.9610
  182SOPE  H14S20820   1.612   2.978   7.909 -0.3593  0.4661  1.6776
  182SOPE  C21520821   1.701   3.073   8.070  0.2020  0.6786  0.1755
  182SOPE  H15R20822   1.596   3.081   8.106  0.3467 -1.7919  1.3199
  182SOPE  H15S20823   1.766   3.162   8.083 -0.1303  1.0761 -0.8205
  182SOPE  C21620824   1.770   2.953   8.143  0.2408  0.3809  0.0510
  182SOPE  H16R20825   1.864   2.928   8.091  0.8007 -1.0366  1.6240
  182SOPE  H16S20826   1.699   2.868   8.136 -0.2632  0.7347  0.6425
  182SOPE  C21720827   1.816   2.988   8.290 -0.7856  0.5507  0.1960
  182SOPE  H17R20828   1.837   2.894   8.344  0.1228  0.0068 -1.0452
  182SOPE  H17S20829   1.727   3.029   8.342 -1.7981  0.3983 -1.3486
  182SOPE  C21820830   1.930   3.088   8.291 -0.4952 -0.5593  0.2210
  182SOPE  H18R20831   1.955   3.121   8.394 -1.0298 -0.1166  0.2137
  182SOPE  H18S20832   1.897   3.183   8.243 -0.5530 -0.9631 -0.5667
  182SOPE  H18T20833   2.020   3.055   8.234 -1.4030 -0.1662 -1.5315
  182SOPE   C3320834   1.067   3.343   6.742  0.6682 -0.0039 -0.1426
  182SOPE   H3X20835   0.956   3.346   6.737  0.1995 -2.5781  3.8276
  182SOPE   H3Y20836   1.103   3.371   6.641 -0.9872  0.5208 -0.6211
  182SOPE   C3420837   1.130   3.454   6.831  0.1887 -0.1463  0.2144
  182SOPE   H4X20838   1.085   3.550   6.797 -0.7036 -0.5256  0.2877
  182SOPE   H4Y20839   1.240   3.453   6.816  0.8862  2.3056  3.8953
  182SOPE   C3520840   1.104   3.444   6.979  0.0930  0.1324  0.2751
  182SOPE   H5X20841   1.012   3.385   6.998  0.6973 -0.4135  1.5622
  182SOPE   H5Y20842   1.105   3.547   7.022 -1.4639  1.2277 -2.0518
  182SOPE   C3620843   1.229   3.381   7.041  0.1425  0.1538 -0.0879
  182SOPE   H6X20844   1.314   3.451   7.054  0.9877 -0.8130 -0.2499
  182SOPE   H6Y20845   1.265   3.305   6.968  0.8226  2.7379 -2.6069
  182SOPE   C3720846   1.198   3.329   7.189  0.1182  0.9686  0.2772
  182SOPE   H7X20847   1.162   3.416   7.249 -0.2834  0.8451  0.2208
  182SOPE   H7Y20848   1.298   3.307   7.231 -0.5461 -0.8171  1.0039
  182SOPE   C3820849   1.109   3.205   7.183  0.1289  0.2656  0.4129
  182SOPE   H8X20850   1.147   3.139   7.102  0.0719  0.0388  0.5670
  182SOPE   H8Y20851   1.013   3.244   7.144 -0.8012  0.3559  2.6706
  182SOPE   C3920852   1.095   3.116   7.310 -0.5494 -0.5066 -0.3619
  182SOPE   H9X20853   1.185   3.051   7.302 -1.3085 -1.5407 -0.6889
  182SOPE   H9Y20854   1.013   3.042   7.299  1.0322 -2.3527 -0.2078
  182SOPE  C31020855   1.077   3.191   7.437  0.2870 -0.7150 -0.1145
  182SOPE  H10X20856   1.015   3.281   7.418 -0.5546 -1.3307 -0.3020
  182SOPE  H10Y20857   1.177   3.229   7.467 -0.1765 -0.0333  0.6092
  182SOPE  C31120858   1.018   3.104   7.551 -0.5981 -0.3275 -0.0967
  182SOPE  H11X20859   1.053   2.999   7.537 -0.8757 -0.3056 -1.0117
  182SOPE  H11Y20860   0.908   3.115   7.547 -0.9097 -2.8106  0.2758
  182SOPE  C31220861   1.059   3.152   7.689  0.5183  0.5857 -0.4026
  182SOPE  H12X20862   1.029   3.259   7.691  0.0898  0.4540  0.7594
  182SOPE  H12Y20863   1.169   3.152   7.704  0.3776 -1.1073  0.8707
  182SOPE  C31320864   0.995   3.065   7.798 -0.0084 -0.5684  0.2358
  182SOPE  H13X20865   1.003   2.957   7.773  0.0715 -0.3788 -0.6012
  182SOPE  H13Y20866   0.888   3.094   7.801 -0.1670 -0.9199 -1.0800
  182SOPE  C31420867   1.051   3.076   7.940 -0.2235 -0.1856 -0.3579
  182SOPE  H14X20868   1.046   3.187   7.946 -2.3502 -0.0856 -2.4583
  182SOPE  H14Y20869   1.158   3.046   7.938 -0.8948 -2.8350 -1.8410
  182SOPE  C31520870   0.970   3.012   8.053  0.2458  0.7006 -0.3532
  182SOPE  H15X20871   0.959   2.904   8.030 -0.4993  0.9661 -1.2860
  182SOPE  H15Y20872   0.867   3.054   8.052 -0.4341 -0.8761 -0.1463
  182SOPE  C31620873   1.046   3.025   8.181 -0.0558 -0.9212 -0.0329
  182SOPE  H16X20874   1.067   3.133   8.198  3.2458 -1.7030  1.5199
  182SOPE  H16Y20875   1.145   2.978   8.166  0.9490  0.7121  1.1304
  182SOPE  C31720876   0.964   2.973   8.305 -0.0824 -0.1146  0.4263
  182SOPE  H17X20877   0.969   2.862   8.296 -0.2039 -0.1817  1.1312
  182SOPE  H17Y20878   0.860   3.011   8.295 -0.0894 -0.5515 -1.3454
  182SOPE  C31820879   1.023   3.019   8.432 -0.4939  0.0021  0.2338
  182SOPE  H18X20880   1.131   2.995   8.421 -0.0560  1.7373  0.5018
  182SOPE  H18Y20881   0.986   2.959   8.518 -0.6902  0.1258  0.2350
  182SOPE  H18Z20882   1.003   3.127   8.447 -0.3642  0.3462 -1.7699
  183SOPE     N20883   0.779   2.044   6.155  0.1601 -0.1747  0.5174
  183SOPE   HN120884   0.877   2.050   6.120  0.0839 -3.8894 -0.7638
  183SOPE   HN220885   0.778   2.053   6.258 -1.2072 -2.9151  0.8355
  183SOPE   HN320886   0.754   1.945   6.138 -0.1585  0.0819 -0.6001
  183SOPE   C1220887   0.674   2.128   6.083  0.0376 -0.0636 -1.3879
  183SOPE  H12A20888   0.687   2.127   5.973  0.7595  0.4726 -1.3150
  183SOPE  H12B20889   0.699   2.234   6.106 -3.0217  0.3673  0.4607
  183SOPE   C1120890   0.538   2.089   6.134  0.0697 -0.9213  0.6208
  183SOPE  H11A20891   0.464   2.162   6.095  0.2493 -0.2783  1.4554
  183SOPE  H11B20892   0.544   2.096   6.245 -0.3860 -0.3318  0.6124
  183SOPE     P20893   0.362   1.899   6.097 -0.2118 -0.4157  0.5600
  183SOPE   O1320894   0.357   1.773   6.021  0.1786 -0.6455  0.3044
  183SOPE   O1420895   0.258   2.001   6.065  0.4011 -0.2372 -0.6888
  183SOPE   O1220896   0.506   1.960   6.091  0.2853  0.4471 -0.5726
  183SOPE   O1120897   0.349   1.876   6.254  0.3559 -0.2223 -0.2267
  183SOPE    C120898   0.386   1.749   6.307 -0.2159  0.0298  0.0237
  183SOPE    HA20899   0.472   1.703   6.255 -0.6550 -0.5297 -0.2157
  183SOPE    HB20900   0.300   1.680   6.295 -0.4309  0.2943  0.0309
  183SOPE    C220901   0.422   1.764   6.459  0.2167  0.1690  0.3785
  183SOPE    HS20902   0.490   1.679   6.479  1.6175  1.2561  0.3385
  183SOPE   O2120903   0.302   1.763   6.539 -0.0527  0.3665 -0.1066
  183SOPE   C2120904   0.262   1.646   6.576  0.1569  0.6749  0.3476
  183SOPE   O2220905   0.318   1.540   6.544 -0.2583  0.1911  0.2728
  183SOPE   C2220906   0.149   1.653   6.676 -0.0346 -0.1604  0.5470
  183SOPE   H2R20907   0.062   1.616   6.617  0.9603 -2.0423  0.1576
  183SOPE   H2S20908   0.122   1.757   6.706 -1.3974 -0.1747 -0.4982
  183SOPE    C320909   0.510   1.890   6.499  0.5896  0.6667  0.4910
  183SOPE    HX20910   0.438   1.974   6.494 -0.8315 -0.4729  1.0192
  183SOPE    HY20911   0.584   1.901   6.417 -0.6515 -3.7510 -1.5268
  183SOPE   O3120912   0.564   1.869   6.633  0.5032  0.2137  0.2258
  183SOPE   C3120913   0.503   1.921   6.735 -1.0212 -1.0835  0.5767
  183SOPE   O3220914   0.397   1.973   6.732  0.8369 -0.3661 -0.6786
  183SOPE   C3220915   0.598   1.904   6.856 -1.0498 -0.7526  0.3138
  183SOPE   H2X20916   0.679   1.976   6.833  0.0691 -2.5000 -1.4765
  183SOPE   H2Y20917   0.640   1.801   6.849  0.7381  0.0064 -0.6008
  183SOPE   C2320918   0.168   1.567   6.801 -0.3111 -0.1582  0.1904
  183SOPE   H3R20919   0.270   1.575   6.844 -0.2274 -2.3284  0.5193
  183SOPE   H3S20920   0.157   1.459   6.778 -0.3244 -0.3279  0.9698
  183SOPE   C2420921   0.066   1.613   6.901 -1.1034  0.4990  0.4155
  183SOPE   H4R20922   0.081   1.717   6.938 -0.1853 -0.1451  2.0119
  183SOPE   H4S20923  -0.037   1.607   6.862 -2.4761 -0.1373  3.8081
  183SOPE   C2520924   0.055   1.516   7.019 -0.5125  0.6164 -0.0516
  183SOPE   H5R20925   0.023   1.412   7.000  0.4591  0.2958  0.0397
  183SOPE   H5S20926   0.158   1.499   7.057 -0.8072 -6.1417 -1.1381
  183SOPE   C2620927  -0.020   1.573   7.141  0.1440  0.0788  0.3518
  183SOPE   H6R20928   0.003   1.503   7.224  0.4280 -2.8198 -1.9745
  183SOPE   H6S20929   0.023   1.671   7.171  1.1120  0.0498 -0.8680
  183SOPE   C2720930  -0.171   1.586   7.127 -0.1976 -0.7568 -0.5474
  183SOPE   H7R20931  -0.202   1.645   7.038 -0.2283 -2.5947 -1.8248
  183SOPE   H7S20932  -0.209   1.485   7.099  0.1514 -0.3928 -2.4644
  183SOPE   C2820933  -0.247   1.640   7.255  0.2300 -0.1316 -0.0951
  183SOPE   H8R20934  -0.244   1.574   7.345  1.1798 -0.9489 -0.7002
  183SOPE   H8S20935  -0.190   1.732   7.278 -1.1459  0.9686 -0.9351
  183SOPE   C2920936  -0.393   1.665   7.222 -0.5138  0.3370 -0.3492
  183SOPE   H9120937  -0.404   1.760   7.167  1.6753 -0.4151 -2.2846
  183SOPE  C21020938  -0.503   1.587   7.244 -0.0127  0.0053 -0.7693
  183SOPE  H10120939  -0.606   1.622   7.227 -0.6245 -1.3679 -0.0644
  183SOPE  C21120940  -0.491   1.452   7.308  0.4022 -0.0372  0.1437
  183SOPE  H11R20941  -0.389   1.441   7.351  0.0349 -0.0494  1.0340
  183SOPE  H11S20942  -0.522   1.373   7.237  2.0283 -3.5202  3.0302
  183SOPE  C21220943  -0.580   1.436   7.433  0.0600 -0.1591  0.3349
  183SOPE  H12R20944  -0.686   1.456   7.406  0.3561 -0.2605 -0.9850
  183SOPE  H12S20945  -0.553   1.510   7.512  0.3958 -2.2828  2.3142
  183SOPE  C21320946  -0.571   1.298   7.487 -0.2423 -0.2155 -0.1443
  183SOPE  H13R20947  -0.464   1.293   7.515 -0.2902  3.4402  1.2831
  183SOPE  H13S20948  -0.605   1.232   7.405 -1.8750  0.6433 -0.1905
  183SOPE  C21420949  -0.659   1.275   7.608 -0.1773  0.7860 -0.0608
  183SOPE  H14R20950  -0.646   1.166   7.621  0.4570  0.8013 -0.5071
  183SOPE  H14S20951  -0.768   1.295   7.608 -0.6872 -1.0475  3.8560
  183SOPE  C21520952  -0.600   1.338   7.734  0.0822 -0.1004  0.2046
  183SOPE  H15R20953  -0.594   1.448   7.725 -1.4539 -0.1752 -4.9790
  183SOPE  H15S20954  -0.495   1.300   7.741  0.2538  0.3918  0.3472
  183SOPE  C21620955  -0.679   1.303   7.860 -0.4554  0.3943 -0.2665
  183SOPE  H16R20956  -0.700   1.194   7.856  1.6516 -0.0065 -3.0973
  183SOPE  H16S20957  -0.772   1.363   7.863 -0.4663  0.3761 -0.2499
  183SOPE  C21720958  -0.608   1.342   7.984 -0.3873 -0.5630  0.5512
  183SOPE  H17R20959  -0.599   1.453   7.988 -2.2587 -0.3966  0.6254
  183SOPE  H17S20960  -0.500   1.315   7.978 -0.1490  0.6287 -1.5373
  183SOPE  C21820961  -0.695   1.322   8.110 -0.2602  0.3220 -0.3850
  183SOPE  H18R20962  -0.657   1.364   8.206 -0.7618  0.1307 -0.0958
  183SOPE  H18S20963  -0.708   1.213   8.131 -1.6203  0.0566 -2.3191
  183SOPE  H18T20964  -0.799   1.357   8.095 -0.8938 -2.3923 -3.5227
  183SOPE   C3320965   0.516   1.934   6.986 -0.5249 -0.2349 -0.6479
  183SOPE   H3X20966   0.486   2.040   6.994  1.1166  0.2061  0.0509
  183SOPE   H3Y20967   0.577   1.916   7.077  1.0250  0.3874 -1.5189
  183SOPE   C3420968   0.399   1.847   7.023  0.3124  0.2856  0.5495
  183SOPE   H4X20969   0.437   1.749   7.059 -0.9814 -1.2346 -1.9512
  183SOPE   H4Y20970   0.335   1.822   6.936 -0.3641 -0.0783  1.1432
  183SOPE   C3520971   0.309   1.915   7.119 -0.0272 -0.1721  0.9713
  183SOPE   H5X20972   0.214   1.859   7.133  0.0284 -0.4164  0.3920
  183SOPE   H5Y20973   0.283   2.021   7.096  0.5766 -0.1534  0.3369
  183SOPE   C3620974   0.378   1.907   7.262 -0.4209  0.1162  0.3614
  183SOPE   H6X20975   0.469   1.971   7.266 -0.3582  0.1539 -1.0190
  183SOPE   H6Y20976   0.396   1.799   7.283 -1.4652 -0.1542 -0.0432
  183SOPE   C3720977   0.283   1.960   7.374 -0.4239  0.4430 -0.0169
  183SOPE   H7X20978   0.179   1.921   7.368 -1.0432  1.9825  0.3052
  183SOPE   H7Y20979   0.268   2.069   7.358 -1.8147  0.2309 -0.2700
  183SOPE   C3820980   0.338   1.947   7.514 -0.0845  0.1897 -0.2279
  183SOPE   H8X20981   0.417   2.025   7.527  1.8490 -1.9430  2.0753
  183SOPE   H8Y20982   0.381   1.845   7.527  1.6096  1.1429  2.7052
  183SOPE   C3920983   0.229   1.968   7.621  0.3728  0.0025  0.4417
  183SOPE   H9X20984   0.169   1.876   7.605  1.6467 -1.1055  1.7200
  183SOPE   H9Y20985   0.176   2.064   7.602 -1.3831 -0.8705  0.7522
  183SOPE  C31020986   0.288   1.967   7.761 -0.4507 -0.3599 -0.3039
  183SOPE  H10X20987   0.203   1.985   7.830  1.2878  1.3078  1.5086
  183SOPE  H10Y20988   0.357   2.052   7.776  0.1569 -0.5169 -2.0116
  183SOPE  C31120989   0.385   1.844   7.795  0.0534 -0.1649 -0.4601
  183SOPE  H11X20990   0.477   1.857   7.734 -0.4518 -0.3752 -1.2903
  183SOPE  H11Y20991   0.328   1.755   7.760 -0.4328 -0.1170  0.1953
  183SOPE  C31220992   0.410   1.836   7.944 -0.3923 -0.1394  0.6035
  183SOPE  H12X20993   0.443   1.936   7.980 -0.8655 -0.2936  1.4838
  183SOPE  H12Y20994   0.484   1.753   7.948 -2.3291 -2.0728 -0.9636
  183SOPE  C31320995   0.298   1.799   8.035 -0.4146 -0.1447 -0.6824
  183SOPE  H13X20996   0.243   1.705   8.010 -1.4770 -0.5228  2.6579
  183SOPE  H13Y20997   0.222   1.878   8.017 -1.6121 -1.6316 -2.5616
  183SOPE  C31420998   0.331   1.791   8.186  1.3427  0.1880  0.5171
  183SOPE  H14X20999   0.363   1.886   8.235 -0.4467  0.5183  1.1457
  183SOPE  H14Y21000   0.419   1.724   8.178  1.4981  0.3004  1.2174
  183SOPE  C31521001   0.205   1.745   8.260 -0.1805  0.2301 -0.5614
  183SOPE  H15X21002   0.196   1.636   8.241  0.4188  0.0086  0.3423
  183SOPE  H15Y21003   0.114   1.793   8.216 -1.4279 -0.2616  1.3409
  183SOPE  C31621004   0.218   1.763   8.412  0.1283  0.9056 -0.0214
  183SOPE  H16X21005   0.260   1.863   8.432  2.1320  0.3790 -1.3206
  183SOPE  H16Y21006   0.302   1.708   8.459  0.3554  1.5371  0.3259
  183SOPE  C31721007   0.087   1.726   8.487 -0.0207 -0.0651 -0.5611
  183SOPE  H17X21008   0.076   1.617   8.471 -0.8445  0.0258 -0.6658
  183SOPE  H17Y21009   0.004   1.779   8.436 -1.6575 -1.3452  0.6599
  183SOPE  C31821010   0.100   1.767   8.635 -0.0449  0.4742 -0.0527
  183SOPE  H18X21011   0.170   1.849   8.657  2.2374 -1.6939  1.2652
  183SOPE  H18Y21012   0.138   1.683   8.697 -4.3128 -1.8541 -0.1572
  183SOPE  H18Z21013  -0.007   1.786   8.660 -0.1791  0.0650 -0.2975
  184SOPE     N21014   0.168   2.023   6.414 -0.5229 -0.1009 -0.2010
  184SOPE   HN121015   0.189   1.980   6.506 -1.8031 -0.3901 -0.0227
  184SOPE   HN221016   0.202   1.967   6.334 -1.5354 -0.6743 -0.2449
  184SOPE   HN321017   0.212   2.118   6.412 -1.0450  0.1655  0.5413
  184SOPE   C1221018   0.028   2.029   6.403  0.3114 -1.0074 -0.4525
  184SOPE  H12A21019  -0.009   2.049   6.301 -1.5062 -1.0517  0.1671
  184SOPE  H12B21020  -0.011   2.106   6.472  2.2896 -0.7315  0.4397
  184SOPE   C1121021  -0.030   1.892   6.445 -0.5864  0.5450  0.3312
  184SOPE  H11A21022  -0.139   1.875   6.437 -0.2762 -1.0612 -1.0444
  184SOPE  H11B21023  -0.007   1.875   6.553  0.5211 -1.5304 -0.1679
  184SOPE     P21024  -0.025   1.704   6.258  0.0386  0.2171 -0.1386
  184SOPE   O1321025   0.062   1.590   6.218  0.3933  0.3409 -0.1624
  184SOPE   O1421026  -0.076   1.788   6.150  0.6341 -0.9982  0.0001
  184SOPE   O1221027   0.043   1.790   6.374  0.4158  0.0180  0.2046
  184SOPE   O1121028  -0.160   1.652   6.330 -0.5581  0.5104 -0.1398
  184SOPE    C121029  -0.152   1.550   6.435  0.1538  0.7134  0.4726
  184SOPE    HA21030  -0.050   1.536   6.475  0.2550 -0.2316 -0.0757
  184SOPE    HB21031  -0.175   1.453   6.386 -1.4940  0.9461  0.7274
  184SOPE    C221032  -0.251   1.575   6.554 -0.0736  0.0666  0.4473
  184SOPE    HS21033  -0.357   1.586   6.523  0.1719  0.1249 -0.3939
  184SOPE   O2121034  -0.207   1.704   6.613  0.1829 -0.8493 -0.3367
  184SOPE   C2121035  -0.295   1.757   6.707  0.1975  0.2451  0.2325
  184SOPE   O2221036  -0.412   1.736   6.718 -0.6263 -0.2799  0.1310
  184SOPE   C2221037  -0.217   1.876   6.770 -0.3676  0.1295 -0.7575
  184SOPE   H2R21038  -0.229   1.954   6.693  1.3569  1.0396 -0.1625
  184SOPE   H2S21039  -0.111   1.843   6.782 -0.9810 -2.1787 -1.1111
  184SOPE    C321040  -0.252   1.452   6.649 -0.9945 -0.1692  0.4647
  184SOPE    HX21041  -0.148   1.421   6.673 -1.2155 -2.0969 -0.8703
  184SOPE    HY21042  -0.294   1.365   6.593  0.6172 -0.3106 -0.5769
  184SOPE   O3121043  -0.318   1.473   6.776  0.3261 -0.8455 -0.0167
  184SOPE   C3121044  -0.448   1.444   6.781  0.0743  0.2404 -0.3085
  184SOPE   O3221045  -0.509   1.408   6.681  0.3798 -0.4407 -0.2687
  184SOPE   C3221046  -0.495   1.457   6.932  0.2437 -0.3788 -0.0195
  184SOPE   H2X21047  -0.509   1.563   6.965 -1.4806  0.0310 -1.8824
  184SOPE   H2Y21048  -0.410   1.403   6.980  1.0893 -1.0950 -2.1716
  184SOPE   C2321049  -0.268   1.926   6.911 -0.4074 -0.5110 -0.8656
  184SOPE   H3R21050  -0.246   1.857   6.995  1.0713 -0.2939 -1.0546
  184SOPE   H3S21051  -0.375   1.953   6.902 -0.1259  1.3837  0.8696
  184SOPE   C2421052  -0.203   2.053   6.952  0.1473  0.0594 -0.1221
  184SOPE   H4R21053  -0.092   2.042   6.958  0.0780  0.1004  1.4298
  184SOPE   H4S21054  -0.219   2.124   6.868 -0.7424  0.2328  0.1908
  184SOPE   C2521055  -0.243   2.111   7.090  0.9796 -0.5015 -0.1803
  184SOPE   H5R21056  -0.242   2.222   7.081  3.9297 -0.5112 -0.9500
  184SOPE   H5S21057  -0.349   2.082   7.107  0.7797  0.6019  0.5466
  184SOPE   C2621058  -0.164   2.068   7.210 -0.8267 -0.3887 -0.0707
  184SOPE   H6R21059  -0.178   1.957   7.211 -2.1135 -0.2622 -0.9693
  184SOPE   H6S21060  -0.057   2.095   7.198 -0.9902  2.0052  2.8100
  184SOPE   C2721061  -0.196   2.129   7.352  0.0392 -0.0298 -0.5634
  184SOPE   H7R21062  -0.160   2.234   7.349  0.2047  0.0364  1.9057
  184SOPE   H7S21063  -0.305   2.126   7.375  0.0970  0.1074 -0.2599
  184SOPE   C2821064  -0.124   2.053   7.466  0.1168  0.0417 -0.5258
  184SOPE   H8R21065  -0.028   2.023   7.420  0.6603  0.2118  0.4756
  184SOPE   H8S21066  -0.108   2.128   7.547 -0.9673  0.6833 -0.8870
  184SOPE   C2921067  -0.208   1.939   7.517  0.5047  0.1795  0.0333
  184SOPE   H9121068  -0.221   1.857   7.444 -2.1535 -0.4820  1.1157
  184SOPE  C21021069  -0.257   1.919   7.641  1.1532  1.3284  0.4970
  184SOPE  H10121070  -0.319   1.830   7.662  1.2622  1.1223 -0.0482
  184SOPE  C21121071  -0.241   2.006   7.765  0.3638 -0.4484 -0.1032
  184SOPE  H11R21072  -0.334   1.991   7.825 -0.1687 -1.7610 -1.2022
  184SOPE  H11S21073  -0.254   2.112   7.736  1.3099 -0.2084  0.2974
  184SOPE  C21221074  -0.117   1.998   7.852 -0.4304  0.8247  0.1706
  184SOPE  H12R21075  -0.024   2.018   7.794  0.2234  1.0976  1.2825
  184SOPE  H12S21076  -0.106   1.896   7.897  0.8965  0.8964  0.0615
  184SOPE  C21321077  -0.116   2.091   7.972 -0.1325  0.9373  0.7729
  184SOPE  H13R21078  -0.202   2.071   8.038  0.9793 -1.5591  1.6015
  184SOPE  H13S21079  -0.112   2.194   7.930  2.3621  0.7093  0.2565
  184SOPE  C21421080   0.008   2.068   8.056  0.6298  0.2013 -0.2189
  184SOPE  H14R21081   0.097   2.086   7.991  0.1825 -0.7940 -1.1312
  184SOPE  H14S21082   0.005   1.964   8.094 -0.4180  0.0314 -0.7448
  184SOPE  C21521083   0.015   2.154   8.178 -0.2716 -0.2019 -0.0135
  184SOPE  H15R21084  -0.086   2.151   8.224  0.1087 -0.6136  0.8299
  184SOPE  H15S21085   0.031   2.254   8.133  0.3686 -0.5406 -0.5616
  184SOPE  C21621086   0.129   2.096   8.268  0.3392 -0.3601 -0.1709
  184SOPE  H16R21087   0.217   2.075   8.205 -1.6743  2.5949 -4.3933
  184SOPE  H16S21088   0.105   1.998   8.316  0.1428 -0.0229  0.4370
  184SOPE  C21721089   0.171   2.185   8.388 -0.0120  0.5388 -0.2599
  184SOPE  H17R21090   0.168   2.292   8.359  0.3087  0.0527 -2.1893
  184SOPE  H17S21091   0.271   2.148   8.421 -0.1845  0.8499  0.6556
  184SOPE  C21821092   0.087   2.168   8.521  0.3503 -0.9053  0.3660
  184SOPE  H18R21093   0.089   2.063   8.557 -2.1211 -1.0888  0.1379
  184SOPE  H18S21094  -0.018   2.197   8.498  0.2480 -1.7002 -0.1829
  184SOPE  H18T21095   0.129   2.233   8.602 -3.8248 -0.5463  2.5334
  184SOPE   C3321096  -0.632   1.390   6.956 -1.0584  0.2170 -0.5938
  184SOPE   H3X21097  -0.704   1.432   6.883 -0.6314  0.6725 -0.7623
  184SOPE   H3Y21098  -0.650   1.417   7.062 -1.1825 -0.0983 -0.5341
  184SOPE   C3421099  -0.623   1.238   6.931  0.3058 -0.5969  0.2926
  184SOPE   H4X21100  -0.550   1.191   6.999  1.1512  0.6503  0.2716
  184SOPE   H4Y21101  -0.594   1.228   6.824 -0.2566  0.6812 -0.0001
  184SOPE   C3521102  -0.752   1.165   6.942  0.3999 -0.2146 -0.2487
  184SOPE   H5X21103  -0.735   1.067   6.892 -2.6354 -0.1657 -1.5872
  184SOPE   H5Y21104  -0.828   1.220   6.883  0.8125 -0.5373 -1.0991
  184SOPE   C3621105  -0.799   1.157   7.090  0.9742  0.0253  0.3840
  184SOPE   H6X21106  -0.818   1.256   7.137  1.0916 -0.2260  0.9748
  184SOPE   H6Y21107  -0.720   1.108   7.151 -1.1361 -2.7355  1.0919
  184SOPE   C3721108  -0.920   1.069   7.097 -0.2284  0.0670  0.6604
  184SOPE   H7X21109  -0.880   0.966   7.099 -3.1641 -1.1717  1.4627
  184SOPE   H7Y21110  -0.987   1.086   7.010 -0.0277  0.2170  0.5356
  184SOPE   C3821111  -1.000   1.102   7.226  0.5116  0.3250 -0.6594
  184SOPE   H8X21112  -1.104   1.063   7.227 -0.2815  2.2893 -0.7005
  184SOPE   H8Y21113  -1.016   1.212   7.229  2.1162  0.5592  1.9021
  184SOPE   C3921114  -0.931   1.054   7.358  0.6593 -0.3848 -0.9038
  184SOPE   H9X21115  -0.823   1.079   7.367  0.6306 -0.5817  0.1296
  184SOPE   H9Y21116  -0.928   0.943   7.355 -0.9306 -0.5029  0.4747
  184SOPE  C31021117  -0.999   1.107   7.490 -0.1992  0.0222 -0.0626
  184SOPE  H10X21118  -1.106   1.122   7.466 -0.7377 -0.4801  1.8092
  184SOPE  H10Y21119  -0.936   1.198   7.490  0.2729 -0.2484 -2.6441
  184SOPE  C31121120  -0.961   1.041   7.620  0.1265  0.1085 -0.6900
  184SOPE  H11X21121  -0.853   1.060   7.640 -0.4580  2.3686  0.6817
  184SOPE  H11Y21122  -0.993   0.935   7.615 -2.4125  0.8040 -0.5718
  184SOPE  C31221123  -1.040   1.104   7.736  0.1320  0.3001 -0.6434
  184SOPE  H12X21124  -1.150   1.099   7.726  0.1196 -2.7007 -0.0148
  184SOPE  H12Y21125  -1.017   1.211   7.755 -1.9414  0.4972  1.1035
  184SOPE  C31321126  -1.005   1.021   7.857  0.7762  1.1350 -0.6083
  184SOPE  H13X21127  -0.902   1.046   7.890  0.8992 -0.8059  0.6438
  184SOPE  H13Y21128  -1.011   0.916   7.822  1.2560  0.6898  0.5902
  184SOPE  C31421129  -1.114   1.044   7.962  0.0986  0.2070 -0.3985
  184SOPE  H14X21130  -1.146   0.954   8.018 -3.4771 -1.1141 -4.0047
  184SOPE  H14Y21131  -1.207   1.068   7.906 -0.6372 -0.8771  0.3430
  184SOPE  C31521132  -1.076   1.158   8.069 -0.0739  0.2988  0.2646
  184SOPE  H15X21133  -1.082   1.250   8.006  2.1333 -0.2232 -0.7915
  184SOPE  H15Y21134  -0.972   1.142   8.105  0.1886  1.1320 -0.0980
  184SOPE  C31621135  -1.174   1.176   8.179  1.1509  0.4268  0.0880
  184SOPE  H16X21136  -1.271   1.157   8.129  0.2905  2.2515  0.9461
  184SOPE  H16Y21137  -1.175   1.281   8.217  0.7674  0.6561 -0.5505
  184SOPE  C31721138  -1.166   1.082   8.303 -0.6548 -0.6843  0.0081
  184SOPE  H17X21139  -1.155   0.977   8.269 -1.9137 -0.5288 -0.9623
  184SOPE  H17Y21140  -1.262   1.086   8.360 -0.8119  0.6757 -0.3184
  184SOPE  C31821141  -1.061   1.120   8.410  0.2250  0.3755  0.0413
  184SOPE  H18X21142  -0.961   1.127   8.364 -0.5046  1.7866 -1.4299
  184SOPE  H18Y21143  -1.060   1.040   8.488 -0.2197 -0.4675 -0.8040
  184SOPE  H18Z21144  -1.090   1.214   8.462  0.0357  0.3043  0.0680
  185SAPI   C1221145   3.971   2.365  11.049  0.5456  0.0853 -0.8835
  185SAPI    H221146   3.983   2.452  11.116  0.5843 -0.4743 -0.1455
  185SAPI    O221147   4.072   2.270  11.092 -0.2017 -0.1385  0.1014
  185SAPI   HO221148   4.143   2.271  11.028  0.0116 -0.5430  0.3297
  185SAPI   C1321149   3.829   2.312  11.058 -0.0121  0.0845 -0.7044
  185SAPI    H321150   3.759   2.390  11.023  0.9991  1.4547  0.2175
  185SAPI    O321151   3.787   2.282  11.193  0.6463 -0.3229  0.4152
  185SAPI   HO321152   3.835   2.210  11.234  0.9778  0.5673  1.6387
  185SAPI   C1421153   3.811   2.188  10.975 -0.2640 -0.4012  0.8710
  185SAPI    H421154   3.886   2.113  11.009  0.4519  0.8847  2.2111
  185SAPI    O421155   3.676   2.138  10.980  0.4555  1.2618 -0.0699
  185SAPI   HO421156   3.610   2.207  10.974 -1.2632 -0.3474 -0.7007
  185SAPI   C1521157   3.846   2.223  10.827 -0.5532  0.3437  0.3720
  185SAPI    H521158   3.772   2.295  10.786 -0.7473 -1.2010 -2.2252
  185SAPI    O521159   3.834   2.112  10.741  0.5662 -0.2958 -0.1068
  185SAPI   HO521160   3.783   2.140  10.664 -1.2303 -0.8522  0.8063
  185SAPI   C1621161   3.987   2.284  10.820 -0.0770 -0.0439  0.3590
  185SAPI    H621162   4.071   2.213  10.836  2.3562  2.0821 -1.9452
  185SAPI    O621163   4.003   2.329  10.687 -0.0423  0.1527 -0.0604
  185SAPI   HO621164   4.072   2.396  10.679  0.4968 -0.4702 -0.8273
  185SAPI   C1121165   4.001   2.404  10.913 -0.6484 -0.3878  0.4629
  185SAPI    H121166   3.924   2.481  10.890 -1.7998 -0.8311  2.5284
  185SAPI     P21167   4.269   2.426  10.876  0.0894  0.0647 -0.4575
  185SAPI   O1321168   4.289   2.292  10.947  0.3168 -0.2105 -0.1757
  185SAPI   O1421169   4.359   2.534  10.912 -0.1011  0.3296 -0.2392
  185SAPI   O1221170   4.120   2.478  10.908 -0.7335 -0.1994  0.5221
  185SAPI   O1121171   4.258   2.404  10.720 -0.3288  0.3246 -0.0925
  185SAPI    C121172   4.336   2.470  10.621  0.1896  0.0305 -0.3801
  185SAPI    HA21173   4.441   2.462  10.657 -0.3323  0.9923  1.4986
  185SAPI    HB21174   4.323   2.425  10.521 -0.1018 -1.4078  0.2773
  185SAPI    C221175   4.296   2.620  10.606  0.7705  0.5555  0.1125
  185SAPI    HS21176   4.307   2.674  10.703  1.4250 -0.0138  0.3626
  185SAPI   O2121177   4.155   2.620  10.578  0.2817 -0.2293  0.0638
  185SAPI   C2121178   4.103   2.743  10.588 -0.3049 -0.2618 -1.0745
  185SAPI   O2221179   4.157   2.847  10.639 -0.3404  0.4531  0.0176
  185SAPI   C2221180   3.953   2.732  10.557  0.0412 -0.3583  0.3119
  185SAPI   H2R21181   3.945   2.687  10.456 -0.2933  2.2871 -0.9528
  185SAPI   H2S21182   3.916   2.655  10.628  0.7435 -1.3858 -0.4107
  185SAPI    C321183   4.379   2.694  10.497 -0.1323  0.2053  0.2109
  185SAPI    HX21184   4.482   2.708  10.539 -0.0221  1.0041 -0.3046
  185SAPI    HY21185   4.357   2.803  10.494  1.8745  0.6623  0.0473
  185SAPI   O3121186   4.379   2.620  10.373 -0.2319 -1.0386  0.1981
  185SAPI   C3121187   4.324   2.690  10.276 -0.0370  0.8828 -0.7884
  185SAPI   O3221188   4.287   2.803  10.284 -0.1508 -0.3625  0.1347
  185SAPI   C3221189   4.336   2.602  10.156 -0.6443  1.1573  0.3667
  185SAPI   H2X21190   4.287   2.504  10.175  2.1890  0.0005  2.5226
  185SAPI   H2Y21191   4.437   2.579  10.115 -1.1222  0.7280 -0.5876
  185SAPI   C2321192   3.876   2.864  10.579  0.3428  0.0892 -0.1499
  185SAPI   H3R21193   3.919   2.940  10.510  1.0069 -0.0363  0.1157
  185SAPI   H3S21194   3.878   2.905  10.682  0.9278 -0.2291 -0.0284
  185SAPI   C2421195   3.729   2.846  10.550 -0.4513  0.0514  0.2626
  185SAPI   H4R21196   3.697   2.771  10.625 -0.4232  1.6018  1.8904
  185SAPI   H4S21197   3.719   2.800  10.449 -1.6272  0.7218  0.0524
  185SAPI   C2521198   3.646   2.971  10.560 -0.3719  0.0822  0.3702
  185SAPI   H5R21199   3.628   3.008  10.662 -1.0123 -0.2496  0.3780
  185SAPI   C2621200   3.598   3.041  10.458  0.1903  0.4756 -0.6022
  185SAPI   H6R21201   3.523   3.120  10.473 -0.5737 -0.0842 -1.3526
  185SAPI   C2721202   3.601   3.013  10.308  0.0493  0.1041 -0.1832
  185SAPI   H7R21203   3.501   3.044  10.271 -1.0696 -0.8412  1.8795
  185SAPI   H7S21204   3.609   2.903  10.290  0.8186 -0.2105  1.8073
  185SAPI   C2821205   3.709   3.101  10.245 -0.0290 -0.0312  0.4427
  185SAPI   H8R21206   3.718   3.207  10.272  3.1607  1.0308 -3.6433
  185SAPI   C2921207   3.791   3.064  10.149 -0.1417  0.4882  0.5315
  185SAPI   H9R21208   3.859   3.137  10.104 -0.8985  0.2134 -1.1411
  185SAPI  C21021209   3.785   2.932  10.071  0.7205  0.5449  0.1434
  185SAPI  H10R21210   3.693   2.935  10.008 -0.8606  0.4348  2.3403
  185SAPI  H10S21211   3.769   2.847  10.141  0.9177  0.4791  0.1083
  185SAPI  C21121212   3.897   2.903   9.971 -0.9688 -0.3064  0.0347
  185SAPI  H11R21213   3.992   2.921  10.024 -1.1733  0.0150  0.2953
  185SAPI  C21221214   3.892   2.865   9.839  0.2711 -0.1860  0.5478
  185SAPI  H12R21215   3.983   2.855   9.778  0.3465 -1.3522  0.8207
  185SAPI  C21321216   3.760   2.832   9.769  0.2416 -0.8289  0.7870
  185SAPI  H13R21217   3.727   2.920   9.710  1.8363 -0.3156  0.6176
  185SAPI  H13S21218   3.679   2.809   9.841 -0.0576  1.2984  1.1723
  185SAPI  C21421219   3.767   2.726   9.667  0.2871  0.3329  0.9554
  185SAPI  H14R21220   3.761   2.628   9.716  1.1302 -0.3609 -0.2756
  185SAPI  C21521221   3.790   2.734   9.536  0.1311 -0.0476  0.1375
  185SAPI  H15R21222   3.799   2.641   9.477 -0.8967 -0.4858  0.6658
  185SAPI  C21621223   3.800   2.854   9.449  0.8472  0.2475 -0.3075
  185SAPI  H16R21224   3.895   2.864   9.392  0.6058  0.3227 -0.7051
  185SAPI  H16S21225   3.788   2.943   9.513 -1.3763  0.6812 -1.2276
  185SAPI  C21721226   3.690   2.895   9.349  0.3342  0.3210 -0.5536
  185SAPI  H17R21227   3.686   3.006   9.340 -2.3558  0.4565  1.1883
  185SAPI  H17S21228   3.592   2.869   9.394  1.0440  1.1493  1.5633
  185SAPI  C21821229   3.710   2.834   9.215  0.1295 -0.2890 -0.2071
  185SAPI  H18R21230   3.696   2.724   9.222  0.7041 -0.2961  0.9860
  185SAPI  H18S21231   3.815   2.857   9.186  0.8944 -0.7133  2.0091
  185SAPI  C21921232   3.617   2.890   9.105 -0.2369 -0.3877 -0.3985
  185SAPI  H19R21233   3.561   2.977   9.147  0.7009 -0.7541  1.7609
  185SAPI  H19S21234   3.546   2.809   9.079 -0.3115 -0.6927  0.6964
  185SAPI  C22021235   3.683   2.949   8.983 -0.8333  0.2933 -0.0897
  185SAPI  H20R21236   3.752   2.873   8.939 -0.9163 -0.6754  1.3646
  185SAPI  H20S21237   3.735   3.045   9.001  0.4179  0.0709 -2.1593
  185SAPI  H20T21238   3.603   2.973   8.911 -0.3473  1.6907 -0.1976
  185SAPI   C3321239   4.251   2.664  10.040  0.5008 -0.1410 -0.6563
  185SAPI   H3X21240   4.282   2.770  10.032 -2.0309  0.6838 -0.4355
  185SAPI   H3Y21241   4.145   2.651  10.073  1.3801 -2.1745  1.7673
  185SAPI   C3421242   4.256   2.578   9.909  0.3389  0.0137  0.8072
  185SAPI   H4X21243   4.194   2.486   9.922 -0.8402  0.8593  1.3423
  185SAPI   H4Y21244   4.364   2.560   9.890  0.3872 -0.3425  1.3822
  185SAPI   C3521245   4.176   2.642   9.790  0.6935 -0.5069 -0.2758
  185SAPI   H5X21246   4.204   2.749   9.796  2.6199 -1.0201  1.3113
  185SAPI   H5Y21247   4.067   2.646   9.809  0.5370  1.1832 -1.3090
  185SAPI   C3621248   4.212   2.577   9.658 -0.6107 -0.6753 -0.3045
  185SAPI   H6X21249   4.231   2.471   9.687 -1.2273 -0.5471  0.5934
  185SAPI   H6Y21250   4.308   2.613   9.614  0.9041 -1.2278  2.2947
  185SAPI   C3721251   4.097   2.571   9.550 -0.2852 -0.2339 -0.5327
  185SAPI   H7X21252   4.062   2.676   9.537  1.4855  0.4781  0.0967
  185SAPI   H7Y21253   4.013   2.512   9.592 -0.7478 -0.1400 -1.3188
  185SAPI   C3821254   4.133   2.529   9.406  0.6644 -0.5725 -0.2642
  185SAPI   H8X21255   4.169   2.424   9.412 -2.1890 -1.6285 -0.1735
  185SAPI   H8Y21256   4.204   2.599   9.356 -0.6010 -0.2315 -1.6458
  185SAPI   C3921257   4.001   2.524   9.319 -0.2171 -0.0605 -0.2899
  185SAPI   H9X21258   3.961   2.627   9.327 -0.4062 -0.2408  1.2951
  185SAPI   H9Y21259   3.921   2.456   9.353 -0.1418 -0.9185 -1.7484
  185SAPI  C31021260   4.032   2.464   9.180 -0.4592 -0.2194  0.4302
  185SAPI  H10X21261   4.058   2.357   9.191  0.9295 -0.0062 -0.5988
  185SAPI  H10Y21262   4.119   2.510   9.129  0.2376  0.3670  2.0480
  185SAPI  C31121263   3.907   2.455   9.089 -0.7821  0.3022  0.3514
  185SAPI  H11X21264   3.817   2.439   9.152 -0.3440 -0.5141  0.7911
  185SAPI  H11Y21265   3.923   2.370   9.020 -0.3787  0.0362  0.7711
  185SAPI  C31221266   3.894   2.580   9.007 -0.1098 -0.1976 -0.3229
  185SAPI  H12X21267   3.995   2.601   8.966  1.1246 -0.2385  2.4630
  185SAPI  H12Y21268   3.867   2.667   9.071  0.8218 -1.3112  1.6912
  185SAPI  C31321269   3.790   2.567   8.888  0.0322  0.4169 -1.4591
  185SAPI  H13X21270   3.768   2.658   8.829 -1.1962  0.0823 -1.5443
  185SAPI  H13Y21271   3.693   2.536   8.933  0.7359 -0.3992 -0.4864
  185SAPI  C31421272   3.814   2.469   8.771  0.1969 -0.9825 -0.4219
  185SAPI  H14X21273   3.783   2.368   8.806  0.2693 -1.3679 -1.4666
  185SAPI  H14Y21274   3.923   2.464   8.749  0.8999  0.6361  2.1496
  185SAPI  C31521275   3.731   2.492   8.648  0.4588  0.2472  0.7051
  185SAPI  H15X21276   3.719   2.599   8.620  4.0153  0.5408 -0.1278
  185SAPI  H15Y21277   3.624   2.463   8.661 -0.2689  2.0972 -0.6838
  185SAPI  C31621278   3.784   2.409   8.528 -0.5765 -0.5587  0.3570
  185SAPI  H16X21279   3.765   2.302   8.555 -2.7268 -0.2745  0.1286
  185SAPI  H16Y21280   3.890   2.429   8.502 -0.3894 -1.6146  0.2398
  185SAPI  C31721281   3.708   2.437   8.404 -0.2802  0.8927  0.0441
  185SAPI  H17X21282   3.757   2.372   8.329  1.3290 -0.2406  1.9808
  185SAPI  H17Y21283   3.723   2.544   8.378  1.4061  1.1403  1.8427
  185SAPI  C31821284   3.568   2.386   8.406 -0.0045  0.9601  0.0793
  185SAPI  H18X21285   3.514   2.424   8.495 -0.2635  0.5383  0.1028
  185SAPI  H18Y21286   3.556   2.276   8.397  1.9112  0.4702  2.4587
  185SAPI  H18Z21287   3.518   2.432   8.318 -0.4797  0.2993 -0.0035
  186SAPI   C1221288   4.661   1.454  10.850 -0.5802 -0.1208 -0.0089
  186SAPI    H221289   4.642   1.372  10.923  1.1275 -1.2400 -0.7673
  186SAPI    O221290   4.539   1.521  10.817 -0.0550  0.8570 -0.1508
  186SAPI   HO221291   4.518   1.488  10.729  1.1236 -0.6711  0.0980
  186SAPI   C1321292   4.768   1.549  10.894  0.7081  0.3725 -1.1074
  186SAPI    H321293   4.854   1.484  10.919  1.5230  1.9557  0.4227
  186SAPI    O321294   4.728   1.613  11.014 -0.0041  0.5419  0.2013
  186SAPI   HO321295   4.666   1.679  10.984 -1.3277 -1.1665 -0.9963
  186SAPI   C1421296   4.816   1.649  10.797 -0.1989 -0.6562 -0.2468
  186SAPI    H421297   4.725   1.701  10.760  0.7547  0.6577 -0.7955
  186SAPI    O421298   4.915   1.740  10.846 -0.3001  0.5006 -0.5028
  186SAPI   HO421299   4.872   1.825  10.834  0.2991  0.6309 -1.8201
  186SAPI   C1521300   4.870   1.581  10.671  0.3515  0.1692 -0.0582
  186SAPI    H521301   4.947   1.509  10.705 -0.8797 -2.0638 -1.7432
  186SAPI    O521302   4.925   1.676  10.580 -0.3571  0.1278 -0.1831
  186SAPI   HO521303   4.851   1.715  10.533 -0.2536 -0.0563 -0.5049
  186SAPI   C1621304   4.756   1.500  10.606 -0.8240 -0.2332 -0.4182
  186SAPI    H621305   4.678   1.573  10.575  0.5099  1.9152  0.9669
  186SAPI    O621306   4.812   1.437  10.492 -0.6955  0.0648  0.1795
  186SAPI   HO621307   4.740   1.426  10.429 -0.4990  0.4966 -0.1210
  186SAPI   C1121308   4.714   1.397  10.717  0.8522 -0.3752 -0.1074
  186SAPI    H121309   4.803   1.337  10.747  1.2153  0.2877  0.1718
  186SAPI     P21310   4.613   1.147  10.715 -0.1359 -0.3758  0.2298
  186SAPI   O1321311   4.495   1.085  10.657  0.7191 -0.2243  0.4658
  186SAPI   O1421312   4.621   1.154  10.863 -0.4210  0.0955  0.0700
  186SAPI   O1221313   4.617   1.300  10.664  0.6866  0.2851 -0.2998
  186SAPI   O1121314   4.748   1.090  10.652 -0.3032 -0.1756 -0.2753
  186SAPI    C121315   4.760   1.079  10.513 -0.5485 -0.0998  0.1604
  186SAPI    HA21316   4.726   1.172  10.463 -2.3410 -0.6222  0.3385
  186SAPI    HB21317   4.869   1.069  10.490 -0.8823  0.8238 -2.0501
  186SAPI    C221318   4.688   0.953  10.453 -0.0445 -0.1501 -0.0331
  186SAPI    HS21319   4.579   0.974  10.439 -0.2779 -0.4410  1.2122
  186SAPI   O2121320   4.702   0.839  10.542  0.7061  0.4247  0.5675
  186SAPI   C2121321   4.608   0.739  10.518  0.1719 -0.4615  0.8258
  186SAPI   O2221322   4.522   0.755  10.433  0.3740 -0.1291  0.0575
  186SAPI   C2221323   4.626   0.626  10.613  0.2671 -0.5325  0.4287
  186SAPI   H2R21324   4.723   0.579  10.586  1.0860  1.7329 -0.8053
  186SAPI   H2S21325   4.637   0.681  10.709  1.3131  0.2954 -0.1530
  186SAPI    C321326   4.741   0.940  10.310 -0.2007  0.3636  0.0673
  186SAPI    HX21327   4.672   0.869  10.259  1.6377 -0.1145 -1.8939
  186SAPI    HY21328   4.830   0.879  10.334 -0.8245 -0.8110 -0.5174
  186SAPI   O3121329   4.767   1.058  10.226 -0.1195 -0.3151 -0.5428
  186SAPI   C3121330   4.660   1.098  10.152  0.6722  0.2799 -0.7975
  186SAPI   O3221331   4.560   1.037  10.144 -0.4951 -0.5018 -0.1330
  186SAPI   C3221332   4.698   1.238  10.094 -0.2869  0.0052  0.5650
  186SAPI   H2X21333   4.809   1.249  10.089 -0.3410  0.6212  0.6307
  186SAPI   H2Y21334   4.638   1.307  10.157 -0.1144  1.2481 -0.5935
  186SAPI   C2321335   4.526   0.514  10.597  0.1762  0.8867  0.2124
  186SAPI   H3R21336   4.425   0.546  10.631  0.4359  1.0152  0.8784
  186SAPI   H3S21337   4.563   0.441  10.671  0.6248  0.9681  0.0677
  186SAPI   C2421338   4.525   0.445  10.462 -0.1563  0.4734  0.1614
  186SAPI   H4R21339   4.491   0.514  10.383 -1.4901  1.2601  1.3896
  186SAPI   H4S21340   4.447   0.367  10.467  0.3263 -0.0391 -0.2073
  186SAPI   C2521341   4.654   0.376  10.425 -1.0071  0.1378 -1.1322
  186SAPI   H5R21342   4.709   0.329  10.508 -0.3706  2.2104 -0.3137
  186SAPI   C2621343   4.717   0.387  10.308 -0.2665  0.7887 -0.3219
  186SAPI   H6R21344   4.816   0.340  10.298 -0.3307  0.8159 -1.2486
  186SAPI   C2721345   4.664   0.478  10.186  0.3200 -0.1880  0.0554
  186SAPI   H7R21346   4.567   0.533  10.196 -1.2970 -2.1902 -3.1755
  186SAPI   H7S21347   4.656   0.410  10.099  1.0980 -0.5806  0.2808
  186SAPI   C2821348   4.764   0.588  10.147 -0.0012 -0.3355 -0.3299
  186SAPI   H8R21349   4.822   0.633  10.229 -2.9111 -0.1213  1.7480
  186SAPI   C2921350   4.776   0.643  10.030  0.5085 -0.4120  0.1861
  186SAPI   H9R21351   4.840   0.733  10.024  0.8736 -0.7413 -1.3604
  186SAPI  C21021352   4.698   0.618   9.905 -0.5569 -0.6733 -0.8381
  186SAPI  H10R21353   4.600   0.574   9.931 -0.3867  0.2294  1.5370
  186SAPI  H10S21354   4.756   0.545   9.845 -0.0653 -1.5259  0.6276
  186SAPI  C21121355   4.676   0.743   9.818 -0.4715  0.2605 -0.9967
  186SAPI  H11R21356   4.727   0.832   9.859 -1.0779 -0.3913  1.3151
  186SAPI  C21221357   4.604   0.748   9.702 -0.2387 -0.2018 -0.0439
  186SAPI  H12R21358   4.591   0.844   9.650  0.1555  0.9650  1.8979
  186SAPI  C21321359   4.529   0.633   9.652 -0.5827 -0.4779  0.0221
  186SAPI  H13R21360   4.461   0.594   9.730 -1.6254  0.2246 -0.5207
  186SAPI  H13S21361   4.604   0.550   9.650 -1.7094 -1.5180 -0.9477
  186SAPI  C21421362   4.457   0.663   9.524  0.3409 -0.2746 -0.3836
  186SAPI  H14R21363   4.352   0.681   9.548  0.9327 -0.2625  2.6128
  186SAPI  C21521364   4.506   0.672   9.399  0.1041 -0.0802 -0.4052
  186SAPI  H15R21365   4.446   0.719   9.319  0.1847 -2.4020 -1.9195
  186SAPI  C21621366   4.650   0.645   9.366 -1.0409  0.1582  0.6706
  186SAPI  H16R21367   4.715   0.619   9.452  2.0195  0.4257 -1.3854
  186SAPI  H16S21368   4.705   0.735   9.332 -1.5096 -0.2488 -1.2927
  186SAPI  C21721369   4.674   0.543   9.251  0.6984 -0.8973  0.6708
  186SAPI  H17R21370   4.782   0.539   9.228  0.7324 -1.5040  0.9044
  186SAPI  H17S21371   4.628   0.583   9.158 -0.4575  1.6573  2.2148
  186SAPI  C21821372   4.626   0.400   9.281 -0.0475 -0.0437 -0.9544
  186SAPI  H18R21373   4.517   0.405   9.298  0.5068 -0.3351  4.8207
  186SAPI  H18S21374   4.671   0.370   9.379 -0.4631  3.6132  0.5440
  186SAPI  C21921375   4.674   0.295   9.173  0.1079 -0.5026  0.6478
  186SAPI  H19R21376   4.785   0.291   9.170  0.1773  1.0423 -0.2326
  186SAPI  H19S21377   4.649   0.352   9.081 -1.1322 -1.7973  0.1467
  186SAPI  C22021378   4.611   0.154   9.179 -0.4370  0.5597 -0.0576
  186SAPI  H20R21379   4.509   0.164   9.137 -0.6732  0.1050  0.3999
  186SAPI  H20S21380   4.607   0.118   9.284 -0.2261 -1.7134 -0.7703
  186SAPI  H20T21381   4.672   0.083   9.120  1.2380  0.9550  1.1265
  186SAPI   C3321382   4.645   1.256   9.949  0.4544  0.0510  0.4881
  186SAPI   H3X21383   4.631   1.361   9.914 -1.5680 -0.0985  0.7495
  186SAPI   H3Y21384   4.548   1.204   9.935  0.7728 -0.5230  0.4177
  186SAPI   C3421385   4.740   1.196   9.844  0.5109  0.8901 -0.0377
  186SAPI   H4X21386   4.764   1.094   9.880 -0.0938  0.3592 -1.1014
  186SAPI   H4Y21387   4.834   1.257   9.848  2.1999 -1.5935  0.4923
  186SAPI   C3521388   4.685   1.199   9.701 -0.4827 -0.4066 -0.2308
  186SAPI   H5X21389   4.675   1.308   9.682 -1.8620 -0.2755  1.0752
  186SAPI   H5Y21390   4.585   1.154   9.687 -1.5257  1.6558  0.1998
  186SAPI   C3621391   4.768   1.137   9.591  0.2596  0.0266  0.2224
  186SAPI   H6X21392   4.776   1.027   9.605  2.5109 -0.3140 -2.7894
  186SAPI   H6Y21393   4.873   1.170   9.610  0.1723 -0.1260  1.0198
  186SAPI   C3721394   4.714   1.164   9.451 -0.5882  0.5783  0.3354
  186SAPI   H7X21395   4.624   1.228   9.446 -0.4762  0.7310  0.2532
  186SAPI   H7Y21396   4.694   1.064   9.407  2.9590 -0.0388 -0.1615
  186SAPI   C3821397   4.825   1.224   9.360  0.7622  0.5088 -0.5076
  186SAPI   H8X21398   4.923   1.176   9.381 -0.0452 -1.7009 -1.4913
  186SAPI   H8Y21399   4.834   1.331   9.389 -0.7032  0.6834 -0.6157
  186SAPI   C3921400   4.794   1.202   9.207 -0.3081  0.0479 -0.1119
  186SAPI   H9X21401   4.687   1.172   9.204 -0.5235  0.2933  2.5312
  186SAPI   H9Y21402   4.853   1.118   9.164 -3.0996 -0.9818 -2.2015
  186SAPI  C31021403   4.815   1.330   9.129  0.2057  0.0743 -0.7418
  186SAPI  H10X21404   4.739   1.384   9.189 -0.4950 -1.6782  0.0223
  186SAPI  H10Y21405   4.769   1.319   9.028 -1.1715 -0.1182 -0.1134
  186SAPI  C31121406   4.957   1.400   9.132 -0.5262 -0.3987 -0.5794
  186SAPI  H11X21407   4.995   1.375   9.234 -0.7065 -0.0906 -0.4339
  186SAPI  H11Y21408   4.959   1.503   9.091  0.8563  0.1366  0.7176
  186SAPI  C31221409   5.058   1.323   9.045 -0.0277  0.8271  0.2739
  186SAPI  H12X21410   5.045   1.214   9.064 -0.9692  0.6461 -1.2718
  186SAPI  H12Y21411   5.164   1.346   9.071 -0.2184 -0.0974  2.0242
  186SAPI  C31321412   5.020   1.345   8.894 -0.0120  0.2253  0.1477
  186SAPI  H13X21413   4.988   1.450   8.879  0.6080  0.6437  1.5971
  186SAPI  H13Y21414   4.930   1.284   8.870  0.4253 -0.2281 -0.3595
  186SAPI  C31421415   5.134   1.299   8.803  0.2517 -0.7099 -0.1235
  186SAPI  H14X21416   5.231   1.346   8.832  1.5489 -2.0016 -2.1261
  186SAPI  H14Y21417   5.116   1.352   8.707  1.4796  2.0513  1.0717
  186SAPI  C31521418   5.140   1.144   8.796 -0.0140 -0.4146  0.7040
  186SAPI  H15X21419   5.048   1.120   8.739  0.1789 -0.2873  0.3349
  186SAPI  H15Y21420   5.147   1.101   8.898  0.7057  1.4129  1.4675
  186SAPI  C31621421   5.253   1.090   8.697 -0.9123 -0.3181  0.0681
  186SAPI  H16X21422   5.355   1.110   8.734 -1.1380  1.2063 -0.0700
  186SAPI  H16Y21423   5.251   1.155   8.607  0.4190 -0.0964  0.1788
  186SAPI  C31721424   5.232   0.945   8.674  0.0849 -0.8770  0.7247
  186SAPI  H17X21425   5.127   0.916   8.651  0.3464 -1.3698  0.1149
  186SAPI  H17Y21426   5.262   0.895   8.769  2.4651 -1.9150 -0.4804
  186SAPI  C31821427   5.326   0.893   8.557  0.6839  0.4656 -0.3799
  186SAPI  H18X21428   5.280   0.806   8.506 -0.0645 -1.0021  2.5307
  186SAPI  H18Y21429   5.422   0.863   8.603  1.9124  1.8569 -1.9506
  186SAPI  H18Z21430   5.341   0.963   8.472  0.0282 -1.5732 -2.2722
  187SAPI   C1221431   5.413   4.567   6.507 -0.4757  0.1677 -1.0201
  187SAPI    H221432   5.481   4.581   6.594 -1.0053 -0.9148 -0.4141
  187SAPI    O221433   5.311   4.478   6.566  0.5903 -0.0228 -0.1335
  187SAPI   HO221434   5.373   4.410   6.594  1.7332  0.5977 -1.0373
  187SAPI   C1321435   5.353   4.696   6.455  0.5138  0.1657 -0.3165
  187SAPI    H321436   5.428   4.767   6.414 -1.7237  2.4957 -0.6030
  187SAPI    O321437   5.285   4.760   6.561 -0.2145 -0.1124 -0.4704
  187SAPI   HO321438   5.214   4.704   6.594 -0.0213  1.1146  2.3531
  187SAPI   C1421439   5.256   4.660   6.335  0.7073 -0.4726  0.4935
  187SAPI    H421440   5.184   4.590   6.382  0.0329  0.0895  0.3127
  187SAPI    O421441   5.191   4.781   6.281  0.2284  0.2100  0.1725
  187SAPI   HO421442   5.238   4.861   6.303  0.0859  0.9364 -1.9748
  187SAPI   C1521443   5.331   4.589   6.226 -1.0265 -0.1212  0.5462
  187SAPI    H521444   5.405   4.666   6.197  1.0133 -2.2582 -0.1887
  187SAPI    O521445   5.253   4.549   6.115  0.5716 -0.3093  1.0318
  187SAPI   HO521446   5.209   4.470   6.149  0.8014 -0.2723  1.4193
  187SAPI   C1621447   5.411   4.464   6.281 -0.2462 -0.2070 -0.3222
  187SAPI    H621448   5.337   4.389   6.317  0.4443 -0.3785  0.7814
  187SAPI    O621449   5.486   4.418   6.177  0.6966  0.3718 -0.4356
  187SAPI   HO621450   5.577   4.447   6.187  0.9901 -0.5513 -0.3672
  187SAPI   C1121451   5.499   4.507   6.398 -0.0475 -0.3749  0.0078
  187SAPI    H121452   5.550   4.592   6.347 -2.0850  0.7440 -0.2536
  187SAPI     P21453   5.735   4.377   6.403 -0.1238  0.2204 -0.0288
  187SAPI   O1321454   5.747   4.430   6.262 -0.0666  0.4112  0.1876
  187SAPI   O1421455   5.791   4.243   6.425 -0.7135 -0.1048 -0.0713
  187SAPI   O1221456   5.578   4.401   6.454  0.5279 -0.2725 -0.5882
  187SAPI   O1121457   5.824   4.474   6.490 -0.3819 -0.3673 -0.0795
  187SAPI    C121458   5.813   4.617   6.488 -0.1588  0.2858 -0.3741
  187SAPI    HA21459   5.850   4.665   6.395 -0.3994  1.3554  0.0674
  187SAPI    HB21460   5.710   4.652   6.509 -0.3835 -0.6618  0.1871
  187SAPI    C221461   5.910   4.681   6.597  0.3448 -0.1070 -1.0847
  187SAPI    HS21462   6.007   4.629   6.580 -1.1267 -3.4777 -0.0676
  187SAPI   O2121463   5.861   4.628   6.724  0.4577 -0.7294 -0.2910
  187SAPI   C2121464   5.946   4.639   6.824 -0.3318  0.1213  0.2669
  187SAPI   O2221465   6.062   4.684   6.808  0.1498  0.7853 -0.7026
  187SAPI   C2221466   5.885   4.592   6.957  0.5812 -0.1225  0.2769
  187SAPI   H2R21467   5.779   4.624   6.959  0.6826  0.9850 -3.6068
  187SAPI   H2S21468   5.893   4.481   6.959 -2.6056 -0.4303  0.2470
  187SAPI    C321469   5.916   4.836   6.589  0.5170 -0.0950 -0.2684
  187SAPI    HX21470   5.963   4.866   6.494 -0.6680  2.9285  0.0058
  187SAPI    HY21471   5.980   4.860   6.677 -3.0349  0.1912  2.4623
  187SAPI   O3121472   5.782   4.897   6.600 -0.0077 -0.3760 -0.2277
  187SAPI   C3121473   5.736   4.930   6.717 -0.1037 -1.0680  0.2689
  187SAPI   O3221474   5.803   4.937   6.817 -0.4802  0.4863 -0.3274
  187SAPI   C3221475   5.587   4.948   6.711  0.0883  0.0690 -0.2566
  187SAPI   H2X21476   5.542   4.889   6.629 -2.5738 -1.6212  2.2430
  187SAPI   H2Y21477   5.578   5.058   6.693 -0.0116 -0.0708 -1.1027
  187SAPI   C2321478   5.957   4.656   7.074  0.9410  0.5860  0.5338
  187SAPI   H3R21479   5.944   4.766   7.063  3.1915  0.7568 -1.0177
  187SAPI   H3S21480   6.066   4.637   7.072  0.8099 -0.5161  1.9708
  187SAPI   C2421481   5.896   4.614   7.203 -0.1961 -0.5399  0.0883
  187SAPI   H4R21482   5.787   4.622   7.186 -0.1227 -1.9933 -1.2736
  187SAPI   H4S21483   5.928   4.695   7.272  2.0370 -0.4718 -0.9199
  187SAPI   C2521484   5.920   4.472   7.243 -0.5947  0.2973 -0.2071
  187SAPI   H5R21485   5.905   4.396   7.165  0.8528  0.5071 -0.7222
  187SAPI   C2621486   5.960   4.427   7.369  0.6997  0.1377  0.4570
  187SAPI   H6R21487   5.968   4.319   7.386 -1.5085 -0.1242  0.1252
  187SAPI   C2721488   5.977   4.520   7.487 -0.1076  0.8205  0.0494
  187SAPI   H7R21489   6.039   4.606   7.454 -0.2635 -0.1425 -3.0889
  187SAPI   H7S21490   6.036   4.461   7.561 -0.9792 -0.8022 -0.5042
  187SAPI   C2821491   5.845   4.567   7.540 -0.1868  0.4566 -0.1281
  187SAPI   H8R21492   5.777   4.606   7.463 -2.2313 -3.3302 -0.5148
  187SAPI   C2921493   5.804   4.564   7.671 -0.6454  0.2879 -0.3401
  187SAPI   H9R21494   5.706   4.613   7.684 -0.5401  0.1622  1.0657
  187SAPI  C21021495   5.890   4.518   7.792  0.1058 -0.3294  0.2724
  187SAPI  H10R21496   5.995   4.521   7.756  0.0869  1.1819  0.2821
  187SAPI  H10S21497   5.871   4.413   7.823 -1.5582 -0.3887 -0.8368
  187SAPI  C21121498   5.880   4.614   7.910 -0.1214 -0.9192  0.1202
  187SAPI  H11R21499   5.905   4.718   7.888 -0.6442 -0.4272  1.7431
  187SAPI  C21221500   5.831   4.590   8.034  1.1166 -0.2166  0.0022
  187SAPI  H12R21501   5.850   4.665   8.112 -0.9695 -0.2795  0.6509
  187SAPI  C21321502   5.778   4.454   8.084  0.1707  0.0618 -0.3463
  187SAPI  H13R21503   5.837   4.365   8.052  1.3780  0.7731 -0.1602
  187SAPI  H13S21504   5.680   4.437   8.035 -0.0290  1.0896 -0.3187
  187SAPI  C21421505   5.753   4.466   8.237  0.5835 -0.0632 -0.0202
  187SAPI  H14R21506   5.720   4.564   8.273 -1.6529  0.3844 -2.9334
  187SAPI  C21521507   5.753   4.363   8.326  0.8654 -0.2688 -0.2303
  187SAPI  H15R21508   5.731   4.380   8.432 -1.6383  2.1262 -1.0279
  187SAPI  C21621509   5.780   4.219   8.284 -0.3762 -0.0120  0.2116
  187SAPI  H16R21510   5.875   4.185   8.331 -1.3173 -2.7976  0.3295
  187SAPI  H16S21511   5.790   4.202   8.174 -1.1709  2.0143 -0.2125
  187SAPI  C21721512   5.671   4.116   8.341  0.3960 -0.1031  0.2498
  187SAPI  H17R21513   5.697   4.025   8.283  1.3870 -0.7246  1.6116
  187SAPI  H17S21514   5.573   4.158   8.310  0.7600  0.3790 -0.2748
  187SAPI  C21821515   5.649   4.093   8.492  0.0568  0.2161 -0.0165
  187SAPI  H18R21516   5.541   4.090   8.518  0.0583  2.8124  0.5193
  187SAPI  H18S21517   5.693   4.183   8.540  2.0300 -0.9418  0.4858
  187SAPI  C21921518   5.735   3.980   8.557 -0.0152  0.8417  0.3499
  187SAPI  H19R21519   5.749   4.008   8.664 -0.5087  0.9021  0.3988
  187SAPI  H19S21520   5.840   3.986   8.521  0.6840  0.7406  2.2375
  187SAPI  C22021521   5.674   3.842   8.532  0.5740  0.5065 -0.3246
  187SAPI  H20R21522   5.686   3.829   8.422  0.2552  3.5091 -0.7930
  187SAPI  H20S21523   5.571   3.824   8.571  1.1317 -3.8740 -0.4190
  187SAPI  H20T21524   5.733   3.759   8.575 -0.4032  0.2945  0.6492
  187SAPI   C3321525   5.527   4.924   6.855 -0.2695  0.1930  0.4148
  187SAPI   H3X21526   5.424   4.966   6.857 -0.9989 -1.5352  2.1596
  187SAPI   H3Y21527   5.585   4.965   6.940 -0.1113  0.8151  0.0102
  187SAPI   C3421528   5.496   4.774   6.871  0.0784  0.3934 -0.6221
  187SAPI   H4X21529   5.579   4.713   6.829 -1.5224 -1.6477 -1.0271
  187SAPI   H4Y21530   5.405   4.751   6.811 -1.5266  1.6559  1.2305
  187SAPI   C3521531   5.474   4.720   7.016  0.9440  1.2223 -0.5792
  187SAPI   H5X21532   5.571   4.706   7.068 -0.1716 -0.0570  1.2458
  187SAPI   H5Y21533   5.428   4.619   7.018 -2.4667  2.5859 -1.8948
  187SAPI   C3621534   5.395   4.804   7.109 -0.2160  0.2776 -0.4887
  187SAPI   H6X21535   5.291   4.800   7.070  0.0901  0.0263 -1.3077
  187SAPI   H6Y21536   5.425   4.911   7.103 -2.6242  0.9753 -1.2341
  187SAPI   C3721537   5.398   4.745   7.254 -0.5568 -0.3664  0.0844
  187SAPI   H7X21538   5.375   4.636   7.246 -1.1952 -0.2152 -0.1770
  187SAPI   H7Y21539   5.309   4.787   7.307 -1.0469 -2.8894  1.4160
  187SAPI   C3821540   5.525   4.789   7.321 -0.2429  0.5607 -0.5054
  187SAPI   H8X21541   5.570   4.879   7.276  1.3290  0.7181  1.2437
  187SAPI   H8Y21542   5.593   4.702   7.305  0.8651  0.8059  2.3198
  187SAPI   C3921543   5.506   4.805   7.468  0.3855 -0.0370 -0.4666
  187SAPI   H9X21544   5.477   4.711   7.520  1.1488  0.9471  1.8991
  187SAPI   H9Y21545   5.416   4.867   7.487  0.0948 -1.0127  1.7425
  187SAPI  C31021546   5.602   4.889   7.545 -0.0070 -0.0740 -0.3351
  187SAPI  H10X21547   5.604   4.993   7.507  0.9148 -0.4343 -1.3115
  187SAPI  H10Y21548   5.705   4.849   7.528 -0.1807 -0.2193 -1.0678
  187SAPI  C31121549   5.555   4.886   7.695 -0.1547 -0.4557  0.2037
  187SAPI  H11X21550   5.569   4.777   7.711  3.0793 -0.0368  1.0184
  187SAPI  H11Y21551   5.456   4.929   7.720 -0.4275 -0.4544 -0.8401
  187SAPI  C31221552   5.652   4.950   7.786 -0.2595 -0.5347  0.1722
  187SAPI  H12X21553   5.639   5.060   7.785  1.2088 -0.2863  2.1308
  187SAPI  H12Y21554   5.756   4.937   7.749  0.6874  1.0251  2.0721
  187SAPI  C31321555   5.636   4.908   7.933 -1.0884  0.5925  1.3956
  187SAPI  H13X21556   5.654   4.798   7.929  1.4909  0.9844  0.2857
  187SAPI  H13Y21557   5.535   4.926   7.976 -2.0796  2.0084 -1.2690
  187SAPI  C31421558   5.754   4.964   8.025 -0.2301 -0.3503  1.4436
  187SAPI  H14X21559   5.850   4.966   7.969 -1.2323  1.6976 -0.3617
  187SAPI  H14Y21560   5.762   4.881   8.099 -0.4258 -0.9569  0.7959
  187SAPI  C31521561   5.719   5.098   8.090 -0.0545 -0.4684 -0.5306
  187SAPI  H15X21562   5.650   5.071   8.172 -0.9359 -0.5535 -1.2809
  187SAPI  H15Y21563   5.655   5.158   8.022  0.3752  2.0335  1.1078
  187SAPI  C31621564   5.829   5.178   8.150 -0.2333  0.1467 -0.3836
  187SAPI  H16X21565   5.892   5.111   8.212  2.1234  2.3036 -0.2979
  187SAPI  H16Y21566   5.791   5.255   8.221 -0.9515  0.7633 -1.4065
  187SAPI  C31721567   5.919   5.247   8.054  0.3004  0.7607 -0.8736
  187SAPI  H17X21568   5.858   5.313   7.989  3.6620  2.0594 -2.9563
  187SAPI  H17Y21569   5.969   5.176   7.984 -2.4062  0.2277 -2.3796
  187SAPI  C31821570   6.030   5.339   8.114 -1.3497  0.0876 -0.2274
  187SAPI  H18X21571   6.091   5.376   8.029 -1.2610  0.2300 -0.1026
  187SAPI  H18Y21572   6.096   5.281   8.183 -0.2186  0.8579 -0.6323
  187SAPI  H18Z21573   5.987   5.428   8.163 -0.8254  0.5000 -0.5025
  188SAPI   C1221574   6.473   0.501   6.422 -0.5601  0.2384  0.3145
  188SAPI    H221575   6.506   0.398   6.449 -1.7933  0.2909  2.2610
  188SAPI    O221576   6.473   0.565   6.548 -0.6111 -0.2454 -0.0390
  188SAPI   HO221577   6.505   0.502   6.614  3.3613 -2.8377 -3.8323
  188SAPI   C1321578   6.571   0.562   6.329 -0.0580 -0.6006 -0.1841
  188SAPI    H321579   6.567   0.505   6.233 -3.2607  0.0517 -0.5209
  188SAPI    O321580   6.705   0.562   6.383 -0.3382 -0.0540 -0.2323
  188SAPI   HO321581   6.702   0.611   6.466 -1.6019 -2.4535  1.2694
  188SAPI   C1421582   6.510   0.705   6.297 -0.4521  0.6543  0.4551
  188SAPI    H421583   6.509   0.755   6.397  0.9029 -0.4733  1.0644
  188SAPI    O421584   6.600   0.780   6.216  0.4014  0.0837 -0.2288
  188SAPI   HO421585   6.568   0.870   6.225 -3.1446 -1.1526  1.9712
  188SAPI   C1521586   6.368   0.704   6.239 -1.0520  0.1836  0.0372
  188SAPI    H521587   6.376   0.650   6.142 -0.7910  2.0484 -1.0332
  188SAPI    O521588   6.322   0.841   6.217 -0.3077  0.5323  0.3071
  188SAPI   HO521589   6.390   0.881   6.163  0.0175 -0.2253  0.1476
  188SAPI   C1621590   6.276   0.625   6.333  0.1645 -0.7927 -0.3896
  188SAPI    H621591   6.264   0.685   6.426  3.1598 -3.8451  2.2409
  188SAPI    O621592   6.146   0.605   6.273  0.2205 -0.7024  0.3409
  188SAPI   HO621593   6.105   0.532   6.320 -1.4081  0.8762  1.5270
  188SAPI   C1121594   6.334   0.488   6.358  0.1413  0.2038 -0.7317
  188SAPI    H121595   6.345   0.432   6.262  2.6305  0.5841 -0.7372
  188SAPI     P21596   6.266   0.261   6.481  0.0404  0.4580  0.5465
  188SAPI   O1321597   6.378   0.215   6.393  0.2297 -0.1131 -0.1201
  188SAPI   O1421598   6.135   0.194   6.459  1.1316 -0.2285 -0.7443
  188SAPI   O1221599   6.246   0.424   6.457  0.1423 -0.1903 -0.5564
  188SAPI   O1121600   6.309   0.239   6.627 -1.0105 -0.0038  0.3251
  188SAPI    C121601   6.279   0.329   6.732 -0.4259 -0.8383 -0.6716
  188SAPI    HA21602   6.325   0.430   6.721 -0.8578 -0.2962  1.8356
  188SAPI    HB21603   6.169   0.341   6.742 -0.3013 -0.2544  0.1424
  188SAPI    C221604   6.324   0.273   6.869 -0.0037  0.5053  0.2126
  188SAPI    HS21605   6.325   0.355   6.943  0.5335  0.8570 -0.1775
  188SAPI   O2121606   6.449   0.198   6.863  0.2494  0.4739 -0.0072
  188SAPI   C2121607   6.553   0.252   6.795 -0.1129 -0.2403  0.1551
  188SAPI   O2221608   6.561   0.365   6.741  0.0467  0.4075  0.2159
  188SAPI   C2221609   6.674   0.163   6.808  0.5308 -0.1287 -0.1860
  188SAPI   H2R21610   6.662   0.084   6.731  1.6584  0.8998 -1.4863
  188SAPI   H2S21611   6.762   0.217   6.768  0.5421 -1.5809 -2.2734
  188SAPI    C321612   6.220   0.160   6.911  0.4201 -0.4308  0.0142
  188SAPI    HX21613   6.265   0.082   6.976  0.6715  0.3585  0.8068
  188SAPI    HY21614   6.185   0.118   6.814 -2.7468  0.7812  0.4979
  188SAPI   O3121615   6.106   0.220   6.983 -0.3860 -0.1245 -0.0845
  188SAPI   C3121616   6.005   0.136   6.983  0.3877  0.0847 -0.0947
  188SAPI   O3221617   6.003   0.025   6.935  0.3567 -0.1593  0.2807
  188SAPI   C3221618   5.890   0.204   7.054  0.2591 -0.1956 -0.5930
  188SAPI   H2X21619   5.806   0.132   7.060  0.9686 -0.9387  1.5406
  188SAPI   H2Y21620   5.852   0.295   7.003 -0.5715 -1.6063 -2.6093
  188SAPI   C2321621   6.692   0.110   6.948 -0.0374 -0.2108 -0.4923
  188SAPI   H3R21622   6.758   0.021   6.943  0.4514 -0.0890  2.1877
  188SAPI   H3S21623   6.597   0.076   6.995  1.6225 -2.0117  1.7771
  188SAPI   C2421624   6.770   0.214   7.035  0.4016  0.4588  0.2163
  188SAPI   H4R21625   6.698   0.293   7.062  1.6888  1.4591  0.8577
  188SAPI   H4S21626   6.853   0.256   6.975  0.2142 -0.2900 -0.5914
  188SAPI   C2521627   6.829   0.141   7.154  0.1941 -0.3883  1.1308
  188SAPI   H5R21628   6.920   0.087   7.123 -0.5837  0.4118 -3.2303
  188SAPI   C2621629   6.782   0.125   7.278  0.0220  0.1259 -0.1465
  188SAPI   H6R21630   6.845   0.071   7.351 -0.6344  0.5924  0.7794
  188SAPI   C2721631   6.659   0.174   7.344  0.2554 -0.4123  0.0581
  188SAPI   H7R21632   6.649   0.283   7.326 -1.9239 -0.5018  0.4618
  188SAPI   H7S21633   6.679   0.156   7.451 -0.3233 -2.9410 -0.2030
  188SAPI   C2821634   6.527   0.118   7.292 -0.5604  0.9362  0.1951
  188SAPI   H8R21635   6.544   0.040   7.216  0.5456  1.0931  0.2528
  188SAPI   C2921636   6.412   0.155   7.343  0.3540  0.6357  0.1166
  188SAPI   H9R21637   6.322   0.105   7.304  1.1000  0.6853 -1.7848
  188SAPI  C21021638   6.390   0.255   7.454  0.1968  0.0907  0.5917
  188SAPI  H10R21639   6.332   0.339   7.409  0.2294 -0.5745 -0.7211
  188SAPI  H10S21640   6.490   0.293   7.484 -0.6585  2.6011  0.5398
  188SAPI  C21121641   6.321   0.188   7.573  0.4749 -0.4722  0.1659
  188SAPI  H11R21642   6.245   0.109   7.560  1.1487 -0.8152 -2.2155
  188SAPI  C21221643   6.345   0.226   7.701 -0.6549  0.0807 -1.2139
  188SAPI  H12R21644   6.306   0.172   7.788  1.2962 -1.5935 -1.2992
  188SAPI  C21321645   6.452   0.329   7.741 -0.5183  0.6051 -0.0133
  188SAPI  H13R21646   6.421   0.388   7.830 -1.9811 -0.3545  0.1589
  188SAPI  H13S21647   6.466   0.406   7.663 -0.4193  1.9731  1.3020
  188SAPI  C21421648   6.585   0.255   7.751 -0.1965 -0.2257  0.0256
  188SAPI  H14R21649   6.637   0.251   7.655  1.7674  2.4808  0.8525
  188SAPI  C21521650   6.639   0.194   7.859 -0.1072 -0.0676 -0.4309
  188SAPI  H15R21651   6.744   0.163   7.866 -0.1288  0.2396  1.9965
  188SAPI  C21621652   6.572   0.194   7.988 -0.3877 -0.0096 -0.2553
  188SAPI  H16R21653   6.504   0.106   7.987 -0.6447  0.0529  2.6484
  188SAPI  H16S21654   6.510   0.286   8.002 -2.1413 -0.9931 -1.3214
  188SAPI  C21721655   6.679   0.175   8.094  0.4646  0.5941  0.2062
  188SAPI  H17R21656   6.746   0.263   8.104  0.9038  0.1118  1.7776
  188SAPI  H17S21657   6.749   0.091   8.072 -0.5768 -0.5286  1.0617
  188SAPI  C21821658   6.645   0.167   8.247 -1.0891  0.1465  0.1940
  188SAPI  H18R21659   6.625   0.061   8.271  0.3026 -0.2003 -0.0975
  188SAPI  H18S21660   6.557   0.234   8.262 -2.2381 -1.8058  2.9535
  188SAPI  C21921661   6.747   0.231   8.349  0.0372 -0.3703  0.0560
  188SAPI  H19R21662   6.803   0.319   8.311 -0.2581 -0.4478 -0.5741
  188SAPI  H19S21663   6.821   0.148   8.355 -0.8937 -1.3733 -1.4207
  188SAPI  C22021664   6.678   0.248   8.485 -0.2628 -0.1838  1.0793
  188SAPI  H20R21665   6.610   0.333   8.460  2.0520  1.3849 -0.2100
  188SAPI  H20S21666   6.754   0.281   8.559 -0.1493 -0.2918  1.0115
  188SAPI  H20T21667   6.628   0.152   8.513 -1.9953  0.6885  1.0965
  188SAPI   C3321668   5.924   0.237   7.202  0.0350 -0.4853 -0.3491
  188SAPI   H3X21669   5.862   0.321   7.240 -0.7370 -0.5268 -1.4488
  188SAPI   H3Y21670   6.026   0.282   7.206  2.5707 -5.0649 -3.6067
  188SAPI   C3421671   5.924   0.113   7.287 -0.4688  0.0560 -0.0777
  188SAPI   H4X21672   6.007   0.046   7.255 -0.1845  0.5675 -0.4256
  188SAPI   H4Y21673   5.827   0.066   7.261 -1.9101  1.0194  3.1066
  188SAPI   C3521674   5.943   0.142   7.439 -0.0603  0.2368  0.1128
  188SAPI   H5X21675   6.041   0.194   7.441  0.5429 -0.7800 -1.4098
  188SAPI   H5Y21676   5.948   0.048   7.498 -0.6536  1.0979  1.5814
  188SAPI   C3621677   5.837   0.237   7.496 -1.1528 -0.8497  0.5065
  188SAPI   H6X21678   5.739   0.226   7.445 -1.0965  0.0719  0.1771
  188SAPI   H6Y21679   5.863   0.341   7.469  1.1413 -1.6502 -0.5814
  188SAPI   C3721680   5.826   0.234   7.648 -0.0527  0.9571 -0.1532
  188SAPI   H7X21681   5.788   0.131   7.667 -2.2086  2.1079  2.6426
  188SAPI   H7Y21682   5.751   0.306   7.687 -1.6930 -1.1756  0.8687
  188SAPI   C3821683   5.954   0.254   7.727 -0.0303  0.0604  0.1152
  188SAPI   H8X21684   5.994   0.352   7.690 -0.4960 -0.1262 -0.9271
  188SAPI   H8Y21685   6.024   0.171   7.705 -1.3201 -1.3407  1.1050
  188SAPI   C3921686   5.941   0.282   7.876  0.2960  0.3036  0.2697
  188SAPI   H9X21687   5.886   0.194   7.916  1.0621 -0.4460 -0.3024
  188SAPI   H9Y21688   5.888   0.376   7.901  0.1089  0.4222 -0.5493
  188SAPI  C31021689   6.082   0.290   7.949  0.1272 -0.2871 -0.8545
  188SAPI  H10X21690   6.146   0.353   7.884  0.8348 -0.0894  0.0259
  188SAPI  H10Y21691   6.111   0.183   7.959  0.8607  0.1107  2.1570
  188SAPI  C31121692   6.064   0.341   8.095  0.2781  0.3100 -0.4773
  188SAPI  H11X21693   5.988   0.276   8.144  0.5465 -0.3103 -0.8771
  188SAPI  H11Y21694   6.025   0.445   8.094  0.6803  0.4769  0.0957
  188SAPI  C31221695   6.187   0.335   8.179 -0.3710  0.6028  0.1348
  188SAPI  H12X21696   6.267   0.384   8.120 -1.6164  0.3280 -1.8741
  188SAPI  H12Y21697   6.225   0.231   8.188 -0.2385  0.5916 -0.5146
  188SAPI  C31321698   6.175   0.413   8.303  0.0415 -0.2948 -0.8045
  188SAPI  H13X21699   6.072   0.397   8.340 -0.3230  3.2290  0.0099
  188SAPI  H13Y21700   6.174   0.519   8.271  1.6122 -1.2536 -4.5731
  188SAPI  C31421701   6.274   0.366   8.411  0.3691 -0.1959  0.2477
  188SAPI  H14X21702   6.375   0.362   8.363 -0.2210 -2.8984 -0.9562
  188SAPI  H14Y21703   6.255   0.260   8.437  0.4039  0.1703  1.8558
  188SAPI  C31521704   6.273   0.457   8.540 -0.4217  0.3964  0.1340
  188SAPI  H15X21705   6.238   0.559   8.511 -0.8388 -0.3503 -2.2261
  188SAPI  H15Y21706   6.371   0.458   8.592 -0.3007 -2.2278  0.0942
  188SAPI  C31621707   6.153   0.418   8.633 -0.0417 -0.5810  0.2428
  188SAPI  H16X21708   6.149   0.310   8.657 -2.2700  0.1397  3.7755
  188SAPI  H16Y21709   6.062   0.444   8.574 -0.3367  0.8498  1.2633
  188SAPI  C31721710   6.156   0.505   8.756  0.2275  0.9458  0.5961
  188SAPI  H17X21711   6.152   0.615   8.744  0.1865  1.1739  2.3161
  188SAPI  H17Y21712   6.251   0.492   8.813 -1.1841  0.4312  2.9814
  188SAPI  C31821713   6.032   0.468   8.845 -0.0178 -0.0117 -0.0376
  188SAPI  H18X21714   5.932   0.486   8.799 -0.0648  0.1390  0.1182
  188SAPI  H18Y21715   6.039   0.531   8.936  2.4194 -2.0136  1.2453
  188SAPI  H18Z21716   6.041   0.369   8.892  1.3715 -0.1852 -0.6080
  189POPC     N21717   2.603   1.266  10.915 -1.0587  0.4474  0.4809
  189POPC   C1221718   2.461   1.241  10.867  0.1688 -0.1634  1.0746
  189POPC  H12A21719   2.457   1.178  10.779 -0.7671  1.7425 -0.3059
  189POPC  H12B21720   2.425   1.335  10.829 -1.9533 -1.1461  0.5276
  189POPC   C1321721   2.697   1.320  10.805  0.6409  0.4261 -0.4170
  189POPC  H13A21722   2.658   1.411  10.761 -1.2009 -0.8992 -1.6264
  189POPC  H13B21723   2.794   1.337  10.850 -0.6810  0.0204  2.8336
  189POPC  H13C21724   2.705   1.255  10.720  0.9032  1.8688 -1.5342
  189POPC   C1421725   2.611   1.361  11.024  0.0232 -0.4044 -0.4551
  189POPC  H14A21726   2.574   1.323  11.119 -0.9274  0.5525 -0.4319
  189POPC  H14B21727   2.714   1.383  11.049 -0.5580  1.8782  0.1738
  189POPC  H14C21728   2.575   1.461  11.008 -0.9745 -0.5253  0.8151
  189POPC   C1521729   2.668   1.146  10.971 -0.2046  0.7412 -0.1444
  189POPC  H15A21730   2.648   1.059  10.910 -3.1484  0.5333  0.9706
  189POPC  H15B21731   2.625   1.111  11.063  0.2145  0.3185 -0.1052
  189POPC  H15C21732   2.775   1.138  10.982  0.1235  3.4229 -0.7466
  189POPC   C1121733   2.357   1.198  10.981  0.4592  0.3947  0.3203
  189POPC  H11A21734   2.251   1.204  10.948  1.3269 -2.0761 -3.6579
  189POPC  H11B21735   2.368   1.268  11.066  0.5623 -0.7548  1.2734
  189POPC     P21736   2.330   0.941  10.951 -0.0630 -0.0408  0.1450
  189POPC   O1321737   2.191   0.920  10.982  0.1994 -0.1415 -0.6763
  189POPC   O1421738   2.418   0.821  10.975 -0.2763 -0.4062 -0.5255
  189POPC   O1221739   2.386   1.069  11.028 -0.1329  0.5428  0.0844
  189POPC   O1121740   2.320   0.979  10.797  0.5781  0.0546 -0.0050
  189POPC    C121741   2.425   0.932  10.711  0.4755 -0.1362 -0.6935
  189POPC    HA21742   2.452   0.825  10.718  1.2134  0.0812  0.0810
  189POPC    HB21743   2.516   0.989  10.741  1.4969 -1.6631 -0.7763
  189POPC    C221744   2.398   0.939  10.556 -0.2544  0.0197 -0.0483
  189POPC    HS21745   2.332   0.853  10.530  0.1208 -0.1059 -0.5981
  189POPC   O2121746   2.528   0.930  10.481  0.1185  0.0224  0.3403
  189POPC   C2121747   2.562   0.808  10.463  0.1802  0.5292 -0.3554
  189POPC   O2221748   2.499   0.711  10.501 -0.2585  0.0705  0.3547
  189POPC   C2221749   2.687   0.820  10.385 -0.0262  0.5062  0.1029
  189POPC   H2R21750   2.750   0.736  10.418 -0.4038 -1.1333 -2.9528
  189POPC   H2S21751   2.739   0.915  10.408  3.4087 -0.7991 -1.5603
  189POPC    C321752   2.337   1.076  10.524  0.6739 -0.4249 -0.0027
  189POPC    HX21753   2.412   1.154  10.544 -0.8319  0.9079  0.6642
  189POPC    HY21754   2.256   1.103  10.594 -0.3620 -1.4291 -0.7603
  189POPC   O3121755   2.273   1.080  10.391 -0.4095 -0.4548  0.0477
  189POPC   C3121756   2.311   1.170  10.314 -0.3183 -0.0556 -0.6121
  189POPC   O3221757   2.366   1.277  10.343 -0.1748  0.6288 -0.7088
  189POPC   C3221758   2.270   1.138  10.167  0.4033  0.3290 -0.1449
  189POPC   H2X21759   2.303   1.215  10.094  0.5828  0.3634 -0.0285
  189POPC   H2Y21760   2.160   1.134  10.152  0.5753 -1.1120 -1.2743
  189POPC   C2321761   2.667   0.821  10.228 -0.5314  0.5655 -0.4824
  189POPC   H3R21762   2.767   0.852  10.192 -0.0672 -2.1926 -1.8744
  189POPC   H3S21763   2.588   0.893  10.197 -0.5431  1.0287  0.5890
  189POPC   C2421764   2.625   0.683  10.176  0.0870  0.2691  0.1841
  189POPC   H4R21765   2.549   0.639  10.244  0.5006  0.0784  0.5291
  189POPC   H4S21766   2.712   0.613  10.175 -1.9352 -2.3889  0.2174
  189POPC   C2521767   2.561   0.692  10.037 -0.9326 -0.3599  0.1804
  189POPC   H5R21768   2.636   0.740   9.971 -0.5346 -1.9784 -0.5981
  189POPC   H5S21769   2.467   0.751  10.031 -0.8111 -0.2600 -0.8650
  189POPC   C2621770   2.541   0.547   9.984  0.3655 -0.3015 -0.1449
  189POPC   H6R21771   2.480   0.508  10.068  1.6211  0.0845  0.9705
  189POPC   H6S21772   2.631   0.483   9.978 -1.1805 -2.5129 -1.5965
  189POPC   C2721773   2.466   0.545   9.852 -0.2520 -0.1921  0.0336
  189POPC   H7R21774   2.373   0.605   9.846 -0.5499 -0.6688 -0.1752
  189POPC   H7S21775   2.434   0.439   9.844 -0.1776 -0.1720 -0.5122
  189POPC   C2821776   2.550   0.584   9.729  0.6916 -0.2025  0.6310
  189POPC   H8R21777   2.502   0.536   9.641  2.3950  0.6174 -0.8095
  189POPC   H8S21778   2.649   0.535   9.741  0.7693  0.0577  1.1098
  189POPC   C2921779   2.550   0.734   9.689 -0.5023  0.1779  0.1153
  189POPC   H9121780   2.549   0.800   9.777 -2.9755  3.0453 -1.8980
  189POPC  C21021781   2.542   0.789   9.572 -0.6710  0.4118  0.4074
  189POPC  H10121782   2.559   0.896   9.554  2.1483  0.0823  0.6000
  189POPC  C21121783   2.551   0.707   9.441 -0.4885 -0.2291  0.0612
  189POPC  H11R21784   2.623   0.623   9.449  0.7460  0.5351 -2.2315
  189POPC  H11S21785   2.599   0.773   9.366  0.8511  0.9074  1.8496
  189POPC  C21221786   2.415   0.650   9.387  0.1157  0.3081  0.4231
  189POPC  H12R21787   2.335   0.716   9.428 -0.5479 -1.8079  2.7568
  189POPC  H12S21788   2.411   0.550   9.435 -1.9506  1.5309  3.0993
  189POPC  C21321789   2.426   0.630   9.236 -0.3516 -0.0226 -0.1370
  189POPC  H13R21790   2.333   0.577   9.207 -0.5400 -0.3188  0.9837
  189POPC  H13S21791   2.514   0.569   9.208  0.4360  0.9961  0.0605
  189POPC  C21421792   2.432   0.764   9.156 -0.0337 -0.7588  0.3383
  189POPC  H14R21793   2.535   0.806   9.157  0.1579 -1.0191  3.3821
  189POPC  H14S21794   2.371   0.843   9.205  0.5150  1.4094 -2.2600
  189POPC  C21521795   2.398   0.727   9.011  0.1768  0.4499  0.9993
  189POPC  H15R21796   2.287   0.716   9.008  0.4311 -2.6035 -0.9564
  189POPC  H15S21797   2.448   0.631   8.988 -0.0645  0.7886 -1.1830
  189POPC  C21621798   2.433   0.845   8.914  0.1066  0.2453  0.8740
  189POPC  H16R21799   2.448   0.818   8.807  0.8758  2.9985  0.1823
  189POPC  H16S21800   2.527   0.895   8.946  0.2619  1.4609 -1.2452
  189POPC  C21721801   2.326   0.960   8.924  0.5329 -1.1216 -0.7251
  189POPC  H17R21802   2.302   0.976   9.032 -2.5113 -0.5246 -1.3810
  189POPC  H17S21803   2.232   0.924   8.877 -0.4258  0.7320 -0.3700
  189POPC  C21821804   2.367   1.093   8.859  0.3197  0.2634  0.2491
  189POPC  H18R21805   2.380   1.072   8.750  0.8631  0.8226  0.1964
  189POPC  H18S21806   2.462   1.128   8.905  1.0629  0.0055 -1.0220
  189POPC  H18T21807   2.283   1.166   8.859 -0.4135 -0.5042 -1.5677
  189POPC   C3321808   2.331   1.008  10.111 -0.3120 -0.4170  0.0975
  189POPC   H3X21809   2.307   0.921  10.176 -0.9145 -1.1303 -1.0413
  189POPC   H3Y21810   2.441   1.013  10.100 -0.4246 -0.2792 -1.1310
  189POPC   C3421811   2.287   0.979   9.960 -0.0897  0.0185 -0.5324
  189POPC   H4X21812   2.177   0.986   9.946  0.0593 -0.1446 -1.9249
  189POPC   H4Y21813   2.325   0.876   9.940 -2.3478 -0.7705 -1.0176
  189POPC   C3521814   2.356   1.069   9.853  0.3164  0.1147  0.2757
  189POPC   H5X21815   2.465   1.054   9.862  0.3413  0.4260  0.5255
  189POPC   H5Y21816   2.338   1.175   9.881  2.4573  0.3490  0.9325
  189POPC   C3621817   2.308   1.030   9.706 -0.7698  0.5909 -0.8573
  189POPC   H6X21818   2.275   0.924   9.703  0.2514  0.2560 -0.7062
  189POPC   H6Y21819   2.390   1.048   9.633  0.1498  3.5997  0.7589
  189POPC   C3721820   2.185   1.104   9.656  0.5355 -0.5232 -0.1077
  189POPC   H7X21821   2.107   1.089   9.734 -0.9780  0.2691 -1.4186
  189POPC   H7Y21822   2.151   1.076   9.554 -1.3653  1.0694  0.0142
  189POPC   C3821823   2.215   1.255   9.651 -0.2155 -0.0277  0.3119
  189POPC   H8X21824   2.255   1.295   9.746  1.7843 -1.6397  0.2141
  189POPC   H8Y21825   2.114   1.300   9.639 -0.4411 -0.4208  0.7360
  189POPC   C3921826   2.318   1.304   9.550  0.9046  0.0132 -0.4966
  189POPC   H9X21827   2.418   1.257   9.563  0.5918 -0.9646 -1.4985
  189POPC   H9Y21828   2.332   1.414   9.558  3.0632 -0.1602 -1.2044
  189POPC  C31021829   2.274   1.272   9.408 -0.7791 -0.0109  0.5748
  189POPC  H10X21830   2.168   1.293   9.385 -0.4112  0.7862 -0.4442
  189POPC  H10Y21831   2.274   1.161   9.401 -1.9430 -0.0221  0.5569
  189POPC  C31121832   2.363   1.327   9.291 -0.2171 -0.3684  0.7371
  189POPC  H11X21833   2.325   1.281   9.197 -0.8021 -0.4581  1.0134
  189POPC  H11Y21834   2.466   1.287   9.302 -0.8458 -1.6943  2.3881
  189POPC  C31221835   2.365   1.478   9.280 -0.3565 -0.5592 -0.8448
  189POPC  H12X21836   2.397   1.513   9.381  0.9631 -0.0807 -1.4079
  189POPC  H12Y21837   2.262   1.517   9.264 -0.7039 -0.6858  0.8603
  189POPC  C31321838   2.457   1.534   9.169 -0.6052 -0.4729  0.1638
  189POPC  H13X21839   2.563   1.513   9.193 -0.2189  0.9753 -0.1906
  189POPC  H13Y21840   2.441   1.643   9.184 -1.5887 -0.2298 -2.1727
  189POPC  C31421841   2.429   1.486   9.027  0.7059 -0.1431  0.4311
  189POPC  H14X21842   2.330   1.520   8.989  0.7708  1.1279  1.3504
  189POPC  H14Y21843   2.423   1.375   9.029 -2.2000 -0.0587  0.9466
  189POPC  C31521844   2.532   1.542   8.930  0.5130  0.2166 -0.3124
  189POPC  H15X21845   2.528   1.478   8.839 -0.8586 -0.4130  0.1700
  189POPC  H15Y21846   2.633   1.528   8.974  1.4814 -0.1419 -2.5245
  189POPC  C31621847   2.509   1.690   8.907 -0.0526 -0.1439  0.2669
  189POPC  H16X21848   2.413   1.692   8.851  0.0647 -1.5148 -0.0162
  189POPC  H16Y21849   2.595   1.724   8.844  0.6116  0.2705  1.3662
  189POPC  H16Z21850   2.504   1.751   9.000  0.5467  0.0249  0.1916
  190POPC     N21851   4.683   4.561  11.208 -0.6794  0.0750 -0.3728
  190POPC   C1221852   4.593   4.442  11.178 -0.4830 -0.6576  0.5222
  190POPC  H12A21853   4.502   4.455  11.234 -1.0996  1.2166 -0.8159
  190POPC  H12B21854   4.630   4.349  11.219 -0.2475 -0.2189  1.3241
  190POPC   C1321855   4.610   4.695  11.190 -0.2628  0.5089 -0.8690
  190POPC  H13A21856   4.582   4.698  11.086  2.0419 -3.4341 -1.7998
  190POPC  H13B21857   4.522   4.686  11.251  0.5038 -0.2785  0.1705
  190POPC  H13C21858   4.672   4.778  11.223  0.4277  0.5654 -2.2523
  190POPC   C1421859   4.724   4.569  11.354  0.0934 -0.0134  0.1798
  190POPC  H14A21860   4.635   4.560  11.415 -0.0596  0.5112  0.0419
  190POPC  H14B21861   4.798   4.495  11.378  0.1451 -0.5946 -1.5922
  190POPC  H14C21862   4.771   4.665  11.370 -0.7464  0.6738 -1.2362
  190POPC   C1521863   4.798   4.567  11.121 -0.5401 -0.1268 -0.5568
  190POPC  H15A21864   4.751   4.572  11.024  2.0762  0.6331 -1.8749
  190POPC  H15B21865   4.858   4.477  11.123 -0.8698 -0.3392 -0.0728
  190POPC  H15C21866   4.860   4.656  11.120 -1.4536  0.5193 -1.2158
  190POPC   C1121867   4.561   4.418  11.032 -0.1227 -0.3687 -0.6473
  190POPC  H11A21868   4.495   4.329  11.023  0.4760 -0.7519 -1.2689
  190POPC  H11B21869   4.661   4.389  10.994 -0.7380 -1.4874 -1.4915
  190POPC     P21870   4.374   4.583  10.958 -0.1448  0.5516 -0.3439
  190POPC   O1321871   4.367   4.695  10.864 -0.5732 -0.0813 -0.3045
  190POPC   O1421872   4.332   4.610  11.103 -0.3496 -0.0570  0.1340
  190POPC   O1221873   4.520   4.529  10.953  0.1604 -0.2421  0.0487
  190POPC   O1121874   4.277   4.465  10.905 -0.6655 -0.6814 -0.0121
  190POPC    C121875   4.336   4.372  10.811  0.5974  0.1733  0.6331
  190POPC    HA21876   4.317   4.277  10.866 -2.8046  1.6347  2.2667
  190POPC    HB21877   4.445   4.384  10.790  0.6095 -0.2000  0.4889
  190POPC    C221878   4.262   4.361  10.671 -0.3307  0.2353 -0.3707
  190POPC    HS21879   4.325   4.290  10.613 -1.2258  0.0754 -1.1561
  190POPC   O2121880   4.235   4.488  10.604  0.4417  0.4727  0.5351
  190POPC   C2121881   4.347   4.558  10.576  0.4276  0.1002 -0.3896
  190POPC   O2221882   4.459   4.523  10.607  0.6603  0.3481  0.5121
  190POPC   C2221883   4.305   4.683  10.498 -0.2226  0.2386  0.5239
  190POPC   H2R21884   4.391   4.751  10.485  0.1770  0.5720  4.0047
  190POPC   H2S21885   4.236   4.747  10.558  0.3391  1.1826  0.1713
  190POPC    C321886   4.125   4.297  10.696 -0.3204  0.1504 -0.0669
  190POPC    HX21887   4.076   4.352  10.778  0.5574  4.2639 -2.0483
  190POPC    HY21888   4.153   4.198  10.740 -2.0169 -0.3413 -0.0433
  190POPC   O3121889   4.040   4.285  10.580  0.4427 -0.0112  0.4502
  190POPC   C3121890   3.934   4.360  10.560 -0.1543  0.1877  0.0016
  190POPC   O3221891   3.882   4.441  10.643  0.1340  0.1104  0.2529
  190POPC   C3221892   3.903   4.363  10.412 -0.0954  0.1424 -0.9060
  190POPC   H2X21893   3.972   4.440  10.372  0.8918  1.1794  2.4469
  190POPC   H2Y21894   3.795   4.387  10.401  0.0183  1.5160  0.6703
  190POPC   C2321895   4.225   4.659  10.368  0.6203  0.0126  0.5909
  190POPC   H3R21896   4.176   4.757  10.353  1.5843  0.5664  0.9611
  190POPC   H3S21897   4.148   4.579  10.376 -0.0273 -0.1705 -4.3354
  190POPC   C2421898   4.290   4.590  10.244  1.8235  0.0180 -0.1498
  190POPC   H4R21899   4.214   4.570  10.165  2.2721  1.5197 -0.9949
  190POPC   H4S21900   4.332   4.492  10.275  1.1330 -1.1113 -2.4971
  190POPC   C2521901   4.393   4.691  10.184 -0.3116 -0.2067  0.2658
  190POPC   H5R21902   4.472   4.709  10.260 -0.8996  3.1353  0.2655
  190POPC   H5S21903   4.333   4.781  10.159 -3.1253 -1.6127  1.5717
  190POPC   C2621904   4.464   4.654  10.049  0.1085 -0.1573 -0.0275
  190POPC   H6R21905   4.502   4.550  10.064  3.3590  0.8613 -0.4351
  190POPC   H6S21906   4.558   4.713  10.044  0.0752  0.1176  2.0030
  190POPC   C2721907   4.376   4.672   9.919 -0.4635  0.0671  0.1789
  190POPC   H7R21908   4.369   4.780   9.894  2.0385 -0.1569 -1.9300
  190POPC   H7S21909   4.278   4.622   9.937  1.2195 -3.8517 -0.4540
  190POPC   C2821910   4.431   4.598   9.797  0.5627  0.6594 -0.5608
  190POPC   H8R21911   4.374   4.605   9.702  2.4601  0.5592 -1.7599
  190POPC   H8S21912   4.422   4.492   9.830 -3.4793  1.4020  1.4065
  190POPC   C2921913   4.574   4.637   9.769 -0.3424  0.2896 -0.3008
  190POPC   H9121914   4.642   4.655   9.855 -1.5742 -1.6877  1.1600
  190POPC  C21021915   4.626   4.656   9.650 -0.2372  0.4343  0.2215
  190POPC  H10121916   4.731   4.686   9.643  0.2559 -0.5084  2.7089
  190POPC  C21121917   4.567   4.642   9.515  0.2319 -0.4329  0.7051
  190POPC  H11R21918   4.600   4.733   9.461 -0.5039 -1.2228 -1.1764
  190POPC  H11S21919   4.455   4.644   9.514  0.2394  0.3343 -0.1356
  190POPC  C21221920   4.621   4.513   9.447  0.3511  0.0600  0.0909
  190POPC  H12R21921   4.604   4.441   9.530  0.0976  0.9266  0.8177
  190POPC  H12S21922   4.729   4.531   9.425  0.2397  1.9213  0.8308
  190POPC  C21321923   4.551   4.478   9.319 -0.2052 -0.0225 -0.0880
  190POPC  H13R21924   4.563   4.561   9.245  2.9443 -1.0272 -0.8485
  190POPC  H13S21925   4.442   4.469   9.339 -0.1204  0.4723  0.6269
  190POPC  C21421926   4.590   4.347   9.260 -0.2020  0.5738  0.1624
  190POPC  H14R21927   4.581   4.266   9.337 -1.7032 -0.3955 -0.9711
  190POPC  H14S21928   4.689   4.341   9.211  0.2462 -0.1287  1.1207
  190POPC  C21521929   4.499   4.296   9.155  1.5956  0.6785  0.0914
  190POPC  H15R21930   4.394   4.329   9.170  1.5554  1.1149 -1.0384
  190POPC  H15S21931   4.497   4.185   9.157 -1.8804  0.6083 -0.6154
  190POPC  C21621932   4.531   4.335   9.009  0.5519 -0.3379 -0.0310
  190POPC  H16R21933   4.638   4.306   8.993  0.9569  0.6116  0.8731
  190POPC  H16S21934   4.525   4.444   8.988  1.6902 -0.4494 -1.0637
  190POPC  C21721935   4.436   4.273   8.914  0.5420  0.5685 -0.2699
  190POPC  H17R21936   4.333   4.292   8.954 -0.0380 -1.0798 -0.9379
  190POPC  H17S21937   4.451   4.163   8.911 -0.1452  0.4489  0.3380
  190POPC  C21821938   4.452   4.336   8.773  0.1871  0.6094  0.0998
  190POPC  H18R21939   4.553   4.312   8.732  0.5045 -0.8486  1.6062
  190POPC  H18S21940   4.420   4.439   8.749 -1.4884 -0.5948 -3.5263
  190POPC  H18T21941   4.380   4.281   8.708  2.1115 -0.1786 -1.4875
  190POPC   C3321942   3.918   4.229  10.348 -0.6841 -0.1791  0.6725
  190POPC   H3X21943   3.885   4.144  10.413 -0.0860 -1.9263 -1.1961
  190POPC   H3Y21944   4.027   4.215  10.333 -1.0881 -4.9996  0.4668
  190POPC   C3421945   3.847   4.236  10.213 -0.1821  0.9501 -0.2164
  190POPC   H4X21946   3.882   4.328  10.161 -0.1563  0.2417 -1.4912
  190POPC   H4Y21947   3.739   4.255  10.232 -0.0149  2.7408 -0.8258
  190POPC   C3521948   3.877   4.120  10.118 -0.2188 -0.2341  0.3057
  190POPC   H5X21949   3.826   4.031  10.161  1.4883 -2.5672 -2.2214
  190POPC   H5Y21950   3.983   4.088  10.120 -0.2799 -0.6948 -1.6944
  190POPC   C3621951   3.823   4.152   9.984 -0.2568  0.1313 -0.1013
  190POPC   H6X21952   3.867   4.247   9.948 -0.2336  0.2715  0.2997
  190POPC   H6Y21953   3.712   4.156   9.984 -0.2851  0.6729 -2.3110
  190POPC   C3721954   3.869   4.052   9.881  0.0599  1.0673 -0.1525
  190POPC   H7X21955   3.822   3.953   9.897  0.6962  0.5679 -1.2594
  190POPC   H7Y21956   3.979   4.045   9.885  0.0630 -0.7040 -2.0720
  190POPC   C3821957   3.829   4.085   9.736  0.4728  0.1286  0.2418
  190POPC   H8X21958   3.886   4.178   9.720 -1.0195  1.0819  0.2521
  190POPC   H8Y21959   3.720   4.109   9.736  0.5491  0.6727 -1.5736
  190POPC   C3921960   3.837   3.965   9.638  0.4661 -0.2934  0.2957
  190POPC   H9X21961   3.771   3.984   9.551  0.9876 -2.4352 -0.6275
  190POPC   H9Y21962   3.811   3.867   9.681  3.0937 -0.6900  1.1879
  190POPC  C31021963   3.973   3.958   9.567 -0.5536 -0.4321 -0.4015
  190POPC  H10X21964   4.044   3.944   9.652 -0.5141  1.7592  0.0124
  190POPC  H10Y21965   4.000   4.056   9.521  0.6549 -0.8351 -0.5667
  190POPC  C31121966   3.988   3.850   9.468  0.3789  0.6494  0.1569
  190POPC  H11X21967   3.963   3.758   9.526 -0.7731 -1.1332 -2.9026
  190POPC  H11Y21968   4.090   3.820   9.434  1.1058 -0.9461  3.3417
  190POPC  C31221969   3.903   3.860   9.339 -0.4489 -0.4900  0.4099
  190POPC  H12X21970   3.928   3.951   9.280 -0.8318  0.0062  1.0078
  190POPC  H12Y21971   3.794   3.858   9.361 -0.6789 -3.1275 -0.5796
  190POPC  C31321972   3.927   3.741   9.241 -0.1633  0.4692 -0.0978
  190POPC  H13X21973   3.850   3.762   9.163  0.8978 -1.5028 -1.7816
  190POPC  H13Y21974   3.895   3.645   9.286  1.2381 -0.4985 -1.0938
  190POPC  C31421975   4.052   3.744   9.160  0.3006 -0.0694 -0.3782
  190POPC  H14X21976   4.132   3.750   9.236 -0.7625 -0.0854  0.7818
  190POPC  H14Y21977   4.052   3.844   9.112  0.0600  0.4072  0.6001
  190POPC  C31521978   4.080   3.631   9.060 -0.0144  0.2261  0.0197
  190POPC  H15X21979   4.042   3.533   9.097  1.2691 -0.8506 -1.3995
  190POPC  H15Y21980   4.192   3.631   9.060  0.0559  0.0699  2.6275
  190POPC  C31621981   4.019   3.655   8.919  0.4461  0.0721 -0.0965
  190POPC  H16X21982   3.909   3.671   8.922  0.2363 -1.0424 -1.1151
  190POPC  H16Y21983   4.055   3.578   8.847  0.1060  1.1150 -1.4458
  190POPC  H16Z21984   4.071   3.743   8.876  1.8649 -1.0524 -0.7730
  191POPC     N21985   3.983   5.495   6.112  0.6171  0.5332 -0.0876
  191POPC   C1221986   3.903   5.422   6.213 -0.1309 -0.3104  0.0111
  191POPC  H12A21987   3.867   5.328   6.175  0.7130 -1.1385  1.1753
  191POPC  H12B21988   3.819   5.484   6.241  0.1874 -0.3848  1.2313
  191POPC   C1321989   4.116   5.424   6.093 -1.0408 -0.5962  0.0980
  191POPC  H13A21990   4.102   5.328   6.045  2.1149  0.0260 -2.4198
  191POPC  H13B21991   4.192   5.471   6.032  1.4077 -1.4512  2.2883
  191POPC  H13C21992   4.152   5.391   6.190 -0.0783  1.6673  0.5788
  191POPC   C1421993   3.906   5.520   5.978 -0.5893  0.1120 -0.1112
  191POPC  H14A21994   3.824   5.589   5.990 -0.4660  0.0009  1.5949
  191POPC  H14B21995   3.974   5.553   5.901  0.0204 -1.4948 -0.2996
  191POPC  H14C21996   3.861   5.425   5.951 -2.4571  1.3316 -1.5486
  191POPC   C1521997   4.025   5.623   6.166 -0.7608 -0.0714  0.2758
  191POPC  H15A21998   4.104   5.664   6.104  0.3134 -0.9708  1.0167
  191POPC  H15B21999   4.069   5.614   6.264  1.6589 -1.9984 -0.8969
  191POPC  H15C22000   3.949   5.699   6.177 -1.3645 -0.4384 -1.1592
  191POPC   C1122001   3.970   5.387   6.357  0.1270  0.4115 -0.6353
  191POPC  H11A22002   3.889   5.356   6.427  1.9876 -2.4556  0.4243
  191POPC  H11B22003   4.012   5.475   6.410  1.4922 -0.5007 -0.1407
  191POPC     P22004   4.040   5.148   6.349 -0.1701  0.2951  0.0736
  191POPC   O1322005   4.164   5.073   6.306  0.0231  0.0722  0.0189
  191POPC   O1422006   3.914   5.117   6.275 -0.4414 -0.3237 -0.7265
  191POPC   O1222007   4.077   5.299   6.342  0.0304  0.8186 -0.5665
  191POPC   O1122008   4.012   5.106   6.496 -0.2359 -0.1954 -0.1515
  191POPC    C122009   4.034   5.191   6.608  0.8158 -0.3762  0.0815
  191POPC    HA22010   3.970   5.171   6.697  0.1328  0.5086 -0.1912
  191POPC    HB22011   4.037   5.301   6.593 -2.6105 -0.0342  1.1328
  191POPC    C222012   4.180   5.162   6.662 -0.1472 -0.2574 -0.5958
  191POPC    HS22013   4.249   5.175   6.576  1.1968  2.1805  0.7238
  191POPC   O2122014   4.190   5.031   6.719  0.0128 -0.1951 -0.3127
  191POPC   C2122015   4.300   4.999   6.778  0.2435 -0.2621  0.8890
  191POPC   O2222016   4.411   5.035   6.747  0.2783 -0.1384  0.7326
  191POPC   C2222017   4.269   4.893   6.883 -0.2174 -0.1446  0.0115
  191POPC   H2R22018   4.364   4.836   6.894 -1.4311 -2.3534 -0.3954
  191POPC   H2S22019   4.201   4.829   6.824  2.0415 -1.6705 -1.0953
  191POPC    C322020   4.231   5.268   6.761 -0.4963 -0.3530  0.5008
  191POPC    HX22021   4.228   5.367   6.709 -0.8316 -0.0366  1.1099
  191POPC    HY22022   4.332   5.248   6.801  0.7481 -0.3812 -2.3676
  191POPC   O3122023   4.146   5.260   6.874 -0.1040  0.2564  0.0519
  191POPC   C3122024   4.058   5.363   6.888  0.4488 -0.0776  0.1428
  191POPC   O3222025   4.052   5.459   6.814 -0.0387 -0.5156 -0.7173
  191POPC   C3222026   3.971   5.342   7.007  0.2973  0.4189 -0.6685
  191POPC   H2X22027   3.965   5.231   7.017  1.6074  0.2902 -1.1174
  191POPC   H2Y22028   3.873   5.391   6.988 -0.0910 -0.3295 -0.6244
  191POPC   C2322029   4.199   4.930   7.016 -0.2560 -0.1557 -0.1198
  191POPC   H3R22030   4.168   4.833   7.062 -1.7734  0.6717  0.6674
  191POPC   H3S22031   4.106   4.987   7.001  0.2083  0.7572  0.3735
  191POPC   C2422032   4.302   5.008   7.096 -0.1811  0.0915 -0.7199
  191POPC   H4R22033   4.347   5.091   7.036 -0.1621 -0.0763 -0.9382
  191POPC   H4S22034   4.380   4.946   7.145 -1.1002 -1.9080 -1.7088
  191POPC   C2522035   4.210   5.087   7.195 -0.1236 -0.0348  0.1032
  191POPC   H5R22036   4.107   5.107   7.160  0.1862  0.5214 -0.5124
  191POPC   H5S22037   4.258   5.183   7.223 -4.0278  3.0171 -2.7153
  191POPC   C2622038   4.199   5.024   7.334  0.0022  1.0560 -0.3903
  191POPC   H6R22039   4.181   4.916   7.318 -2.9914  1.2839  0.7206
  191POPC   H6S22040   4.111   5.061   7.391  0.3287 -1.4864  2.0225
  191POPC   C2722041   4.322   5.045   7.427  0.5921  0.2928 -0.2119
  191POPC   H7R22042   4.315   5.146   7.473  1.4257 -0.4460  1.5894
  191POPC   H7S22043   4.408   5.026   7.359  0.0807 -5.7761  0.3371
  191POPC   C2822044   4.332   4.939   7.543 -0.2770  0.5522  0.4093
  191POPC   H8R22045   4.431   4.951   7.592  0.3806 -0.8071 -0.5069
  191POPC   H8S22046   4.333   4.841   7.490 -1.9649  1.7628 -2.0650
  191POPC   C2922047   4.215   4.954   7.641  0.6429 -0.1494 -0.2351
  191POPC   H9122048   4.119   4.954   7.587  1.7658 -2.7687 -2.4893
  191POPC  C21022049   4.218   4.974   7.771  0.3149 -0.1888 -0.3226
  191POPC  H10122050   4.120   4.970   7.820  0.4913 -1.4204 -0.0310
  191POPC  C21122051   4.340   4.988   7.851  0.3750  0.3996  0.1781
  191POPC  H11R22052   4.359   5.091   7.887  1.0704 -0.5368  2.7132
  191POPC  H11S22053   4.432   4.951   7.800 -1.3619 -1.2893 -1.9574
  191POPC  C21222054   4.341   4.913   7.984 -0.6777  0.4416 -0.3241
  191POPC  H12R22055   4.440   4.907   8.035 -0.9942  1.6190  0.4621
  191POPC  H12S22056   4.324   4.806   7.962  0.8199  0.5873 -2.6624
  191POPC  C21322057   4.242   4.958   8.092 -0.8725 -0.1803  0.5850
  191POPC  H13R22058   4.145   4.956   8.038  0.6392  1.1706 -2.4170
  191POPC  H13S22059   4.268   5.064   8.107 -0.6819 -0.5541  3.3931
  191POPC  C21422060   4.249   4.876   8.219  0.2377 -0.0661 -0.3547
  191POPC  H14R22061   4.346   4.877   8.273 -0.7678 -0.3103  1.5343
  191POPC  H14S22062   4.237   4.769   8.190 -3.0375 -0.4087  1.6554
  191POPC  C21522063   4.136   4.900   8.324  0.5095 -0.6892 -0.1759
  191POPC  H15R22064   4.132   5.006   8.360 -0.2181 -0.4460 -0.9424
  191POPC  H15S22065   4.157   4.845   8.418  1.7978  2.2823  1.4104
  191POPC  C21622066   4.002   4.851   8.271  0.3497  0.7146 -0.0986
  191POPC  H16R22067   4.021   4.770   8.197  2.1488 -0.4258  1.4959
  191POPC  H16S22068   3.949   4.933   8.218 -0.8338  0.8944  1.2922
  191POPC  C21722069   3.899   4.806   8.371  0.4850  0.7052  0.1764
  191POPC  H17R22070   3.881   4.887   8.445  0.2681  0.1482  0.7438
  191POPC  H17S22071   3.926   4.710   8.419  0.8318 -0.2825 -1.8885
  191POPC  C21822072   3.759   4.785   8.308 -0.8178  0.0746  0.8345
  191POPC  H18R22073   3.680   4.769   8.385 -3.9164 -1.2937 -2.3584
  191POPC  H18S22074   3.762   4.696   8.242 -2.7857  2.4464 -2.7822
  191POPC  H18T22075   3.723   4.864   8.239 -1.4026 -0.3973  0.5873
  191POPC   C3322076   4.039   5.395   7.136 -0.2235  1.2153  0.7779
  191POPC   H3X22077   4.047   5.505   7.125  2.0614  0.9334 -1.0729
  191POPC   H3Y22078   4.143   5.356   7.143 -1.0660 -1.5760 -0.6631
  191POPC   C3422079   3.972   5.355   7.267 -0.0007  0.4263  0.0120
  191POPC   H4X22080   3.937   5.249   7.259  0.3153  0.4188 -1.6963
  191POPC   H4Y22081   3.885   5.423   7.279  0.4304  0.8644  0.6425
  191POPC   C3522082   4.067   5.382   7.380 -0.6444  0.2780  0.0527
  191POPC   H5X22083   4.109   5.482   7.357  0.2360 -0.5898 -2.6004
  191POPC   H5Y22084   4.157   5.316   7.385  0.5633  1.6034 -2.2656
  191POPC   C3622085   3.993   5.370   7.510  0.8526 -0.5026 -0.2830
  191POPC   H6X22086   3.922   5.285   7.495  1.5891 -1.1511 -0.1392
  191POPC   H6Y22087   3.934   5.463   7.525 -0.6913 -1.2430 -1.5366
  191POPC   C3722088   4.081   5.349   7.630  0.2338 -0.4707 -0.0402
  191POPC   H7X22089   4.115   5.448   7.667  4.4159 -1.2710 -1.3170
  191POPC   H7Y22090   4.173   5.290   7.612  0.4137  0.1729 -1.4168
  191POPC   C3822091   4.000   5.296   7.744  0.1441 -0.5277 -0.7315
  191POPC   H8X22092   3.975   5.188   7.731 -0.6042 -0.6871  1.4792
  191POPC   H8Y22093   3.900   5.341   7.760  0.7943  0.6595  0.0970
  191POPC   C3922094   4.079   5.306   7.879 -0.8687  0.4043 -0.2226
  191POPC   H9X22095   4.091   5.411   7.912 -1.3850  0.4986 -0.3268
  191POPC   H9Y22096   4.183   5.266   7.879 -0.6106  1.0168  1.1545
  191POPC  C31022097   3.996   5.235   7.985  0.1396 -0.3070 -0.3642
  191POPC  H10X22098   3.984   5.125   7.971  0.0568 -0.6733  2.1802
  191POPC  H10Y22099   3.893   5.270   7.962  1.2044  1.5843 -2.6665
  191POPC  C31122100   4.046   5.264   8.128 -0.0659 -0.0656 -0.1498
  191POPC  H11X22101   4.157   5.278   8.127 -0.0606 -0.0844  0.1009
  191POPC  H11Y22102   4.034   5.168   8.182  1.0278 -0.4746 -0.5921
  191POPC  C31222103   3.970   5.371   8.201  0.0637 -0.3633  0.8576
  191POPC  H12X22104   3.860   5.360   8.195  0.0460  0.2293 -0.0816
  191POPC  H12Y22105   3.990   5.475   8.165  1.6408 -0.5635  1.0675
  191POPC  C31322106   3.998   5.356   8.352  0.1773  0.1819 -0.4348
  191POPC  H13X22107   4.105   5.379   8.374  0.2337 -0.3204 -0.1721
  191POPC  H13Y22108   3.983   5.252   8.387  0.1962  0.0983 -0.6727
  191POPC  C31422109   3.912   5.447   8.445  0.1471 -0.4498  0.3116
  191POPC  H14X22110   3.816   5.391   8.451 -0.7315  0.6231 -2.2915
  191POPC  H14Y22111   3.892   5.549   8.405 -0.2840 -0.5433  0.2860
  191POPC  C31522112   3.970   5.457   8.592  0.4456  0.9127 -0.7262
  191POPC  H15X22113   4.071   5.501   8.582  0.9652 -0.6815 -3.4302
  191POPC  H15Y22114   3.969   5.349   8.621 -1.8066  0.2161 -3.0558
  191POPC  C31622115   3.877   5.538   8.678 -0.3757 -0.5183 -0.3949
  191POPC  H16X22116   3.773   5.500   8.663  0.4603 -2.7010 -1.0060
  191POPC  H16Y22117   3.883   5.648   8.659  0.3733 -0.3573  0.6921
  191POPC  H16Z22118   3.895   5.519   8.786 -0.5067  0.6594 -0.1510
  192POPC     N22119   2.115   1.738   6.092  0.0464  0.2352  0.1566
  192POPC   C1222120   2.132   1.719   6.244 -0.1151  0.1669  0.3025
  192POPC  H12A22121   2.205   1.789   6.284 -0.6436 -0.9484  3.4947
  192POPC  H12B22122   2.178   1.625   6.268 -1.0418 -0.2473  0.4682
  192POPC   C1322123   2.248   1.754   6.021 -0.1535 -0.4063  0.0989
  192POPC  H13A22124   2.231   1.766   5.915 -1.6261 -3.3101 -0.0968
  192POPC  H13B22125   2.306   1.836   6.063 -1.2216  0.6581 -0.4546
  192POPC  H13C22126   2.305   1.662   6.017  1.2094  0.2877  1.9048
  192POPC   C1422127   2.075   1.602   6.035  0.2448 -0.5539 -0.1296
  192POPC  H14A22128   2.154   1.532   6.055  0.3731  0.2755  2.6410
  192POPC  H14B22129   1.988   1.574   6.093 -0.3831  2.5138  0.5883
  192POPC  H14C22130   2.043   1.600   5.931 -2.0839 -0.2925  0.5270
  192POPC   C1522131   2.021   1.848   6.060 -0.4666  0.3254  0.2961
  192POPC  H15A22132   1.983   1.834   5.960 -0.4599 -1.4923  0.5128
  192POPC  H15B22133   2.077   1.940   6.063 -1.9565  1.2415  1.0644
  192POPC  H15C22134   1.934   1.854   6.123 -0.0187 -0.2299  0.9798
  192POPC   C1122135   2.006   1.735   6.335 -0.0023  0.3296  0.7060
  192POPC  H11A22136   1.960   1.831   6.304 -0.0010  0.7424  1.9447
  192POPC  H11B22137   2.029   1.743   6.444  2.4748 -3.4788  0.6558
  192POPC     P22138   1.939   1.491   6.378 -0.3936  0.5109  0.0637
  192POPC   O1322139   2.047   1.417   6.304  0.9966  0.3965 -0.5828
  192POPC   O1422140   1.808   1.421   6.389  0.2950  0.2049  0.5124
  192POPC   O1222141   1.907   1.631   6.314 -0.1015 -0.0372  0.7854
  192POPC   O1122142   1.990   1.526   6.524  0.0295 -0.2251 -0.0666
  192POPC    C122143   2.105   1.463   6.577 -0.2535 -0.0339  0.4253
  192POPC    HA22144   2.135   1.515   6.671  0.0943 -0.8626  0.7796
  192POPC    HB22145   2.192   1.488   6.513  0.9992 -0.6747  1.8231
  192POPC    C222146   2.086   1.307   6.595 -0.2265  0.4023  0.0675
  192POPC    HS22147   2.079   1.263   6.494 -2.0676  2.5347 -0.8178
  192POPC   O2122148   1.962   1.285   6.665 -0.4454  0.0409  0.1408
  192POPC   C2122149   1.897   1.174   6.637 -0.4803  0.4477 -0.4121
  192POPC   O2222150   1.927   1.099   6.546 -0.2795  0.3140 -0.4473
  192POPC   C2222151   1.782   1.170   6.724 -0.0631  0.0962 -0.7071
  192POPC   H2R22152   1.805   1.104   6.810 -0.9213 -0.7099 -1.0763
  192POPC   H2S22153   1.697   1.126   6.667  0.5297  0.9239 -2.2951
  192POPC    C322154   2.199   1.235   6.668  0.2211 -0.2414  0.6031
  192POPC    HX22155   2.295   1.257   6.615 -0.3875  0.3501 -0.2804
  192POPC    HY22156   2.182   1.128   6.644  2.3694 -0.1673 -1.7772
  192POPC   O3122157   2.207   1.273   6.808  0.5383  0.2987 -0.2025
  192POPC   C3122158   2.187   1.171   6.894 -0.7844 -0.1706  0.0528
  192POPC   O3222159   2.164   1.056   6.869  1.1185  0.2073  0.1992
  192POPC   C3222160   2.209   1.228   7.032 -1.0099  0.1328 -0.8868
  192POPC   H2X22161   2.313   1.264   7.035 -0.1629 -2.1362 -0.9317
  192POPC   H2Y22162   2.207   1.146   7.108 -2.3299  0.5474 -0.4330
  192POPC   C2322163   1.736   1.306   6.788  0.0667 -0.4940  0.1960
  192POPC   H3R22164   1.708   1.374   6.705 -1.1663 -0.7811  0.3575
  192POPC   H3S22165   1.813   1.345   6.858  2.5756 -0.2002 -2.5441
  192POPC   C2422166   1.602   1.290   6.868 -0.5611 -0.0085  0.4539
  192POPC   H4R22167   1.619   1.205   6.938 -0.8589 -1.7270 -1.4405
  192POPC   H4S22168   1.523   1.243   6.806  1.0782  0.9054 -2.5349
  192POPC   C2522169   1.547   1.415   6.939 -0.5360 -0.5758 -0.0659
  192POPC   H5R22170   1.541   1.488   6.856 -1.0218  1.1214  1.3997
  192POPC   H5S22171   1.622   1.453   7.012 -0.0698 -1.2014 -0.2074
  192POPC   C2622172   1.409   1.390   6.987  0.0606  0.1045  0.9970
  192POPC   H6R22173   1.418   1.324   7.076  1.3434 -1.5789 -0.3187
  192POPC   H6S22174   1.359   1.335   6.905 -0.2467  0.5867  0.8566
  192POPC   C2722175   1.333   1.525   7.008 -0.4429  0.1905 -0.3772
  192POPC   H7R22176   1.225   1.502   7.019 -0.4777 -0.3285 -1.6889
  192POPC   H7S22177   1.326   1.595   6.922 -0.0128 -0.5573 -1.0316
  192POPC   C2822178   1.373   1.612   7.129  0.2121 -0.7421  0.3754
  192POPC   H8R22179   1.325   1.712   7.135  0.6534 -0.5137  0.1246
  192POPC   H8S22180   1.479   1.637   7.108  0.0430 -0.7257 -0.5002
  192POPC   C2922181   1.363   1.526   7.255  0.4575  0.5276  0.4407
  192POPC   H9122182   1.414   1.428   7.250 -1.1034 -0.4161  1.8198
  192POPC  C21022183   1.284   1.552   7.355  0.0772 -0.4856 -0.4036
  192POPC  H10122184   1.275   1.490   7.445 -0.9011  0.8658  0.4840
  192POPC  C21122185   1.195   1.673   7.374  0.4590  0.2885 -0.1601
  192POPC  H11R22186   1.088   1.648   7.357  0.4274  0.5857 -0.4069
  192POPC  H11S22187   1.215   1.749   7.295  1.5320 -0.1264 -0.3078
  192POPC  C21222188   1.227   1.739   7.511 -0.2487 -0.2387 -0.2314
  192POPC  H12R22189   1.203   1.846   7.496 -0.5756 -0.6037 -2.6692
  192POPC  H12S22190   1.335   1.735   7.537  0.0057 -0.7897 -1.3086
  192POPC  C21322191   1.147   1.670   7.627 -0.2081  0.0421  0.0489
  192POPC  H13R22192   1.156   1.561   7.614 -1.0224 -0.0233  0.0014
  192POPC  H13S22193   1.041   1.700   7.614 -1.3084 -3.4364  0.2259
  192POPC  C21422194   1.183   1.708   7.764 -0.6240 -0.3907 -0.4373
  192POPC  H14R22195   1.184   1.819   7.768  1.2386 -0.3716 -0.4508
  192POPC  H14S22196   1.283   1.677   7.800 -1.9584 -2.3724  1.8744
  192POPC  C21522197   1.101   1.638   7.859 -0.1143  0.6174 -0.0274
  192POPC  H15R22198   1.127   1.530   7.863 -1.3457  0.1948 -2.1150
  192POPC  H15S22199   0.992   1.637   7.835 -0.1699  1.0510  0.1902
  192POPC  C21622200   1.118   1.694   8.001  0.5251 -0.3196 -0.6729
  192POPC  H16R22201   1.097   1.803   8.005 -1.0885 -0.5548 -1.9502
  192POPC  H16S22202   1.224   1.678   8.033  0.3921 -2.0252 -1.0062
  192POPC  C21722203   1.022   1.623   8.097  0.1019  0.1641 -0.0938
  192POPC  H17R22204   1.047   1.665   8.197 -1.8016  0.2686  0.3634
  192POPC  H17S22205   1.054   1.517   8.098 -0.9286 -0.3476 -3.9253
  192POPC  C21822206   0.871   1.623   8.066  0.2219  0.6062 -0.2380
  192POPC  H18R22207   0.849   1.556   7.980  0.1655  0.7791 -0.3597
  192POPC  H18S22208   0.824   1.724   8.063  0.8826  0.9042 -0.7694
  192POPC  H18T22209   0.819   1.576   8.153  2.8605  0.2752  1.2465
  192POPC   C3322210   2.108   1.334   7.071  0.1262  0.6178 -0.4191
  192POPC   H3X22211   2.049   1.380   6.989  1.1094  3.1246  0.1501
  192POPC   H3Y22212   2.154   1.413   7.135  0.4132 -0.7030  1.0682
  192POPC   C3422213   1.992   1.267   7.155  0.1945  0.1624  0.4324
  192POPC   H4X22214   2.029   1.216   7.246 -1.4463 -0.0586  1.0050
  192POPC   H4Y22215   1.951   1.195   7.081 -1.6319  2.1540 -0.6316
  192POPC   C3522216   1.890   1.372   7.206 -0.2790  0.5731 -1.1121
  192POPC   H5X22217   1.860   1.447   7.130 -1.9372 -1.0859 -2.1525
  192POPC   H5Y22218   1.939   1.432   7.286 -1.2189 -0.2023  0.0807
  192POPC   C3622219   1.776   1.301   7.274  0.1784  0.1533 -0.2695
  192POPC   H6X22220   1.800   1.206   7.326 -1.6637 -1.2108 -1.7564
  192POPC   H6Y22221   1.701   1.265   7.200 -1.2104 -3.4506  2.5939
  192POPC   C3722222   1.697   1.393   7.374 -0.0280  0.6127 -0.0383
  192POPC   H7X22223   1.662   1.484   7.320 -3.0938 -0.8367 -0.7044
  192POPC   H7Y22224   1.769   1.439   7.446 -0.0668 -1.4275  1.3772
  192POPC   C3822225   1.594   1.315   7.462 -0.6923  0.3704  0.4133
  192POPC   H8X22226   1.645   1.222   7.495 -1.5336 -0.4283 -0.4543
  192POPC   H8Y22227   1.503   1.292   7.403  0.8997  0.5343 -2.2939
  192POPC   C3922228   1.548   1.383   7.588  0.2988  0.6785  0.2344
  192POPC   H9X22229   1.467   1.456   7.567  0.5759  0.3428 -2.2830
  192POPC   H9Y22230   1.632   1.438   7.636  0.2960  0.1722  0.8301
  192POPC  C31022231   1.497   1.275   7.688  0.7167 -0.5901 -0.9618
  192POPC  H10X22232   1.579   1.206   7.718 -1.2355 -1.5307  2.7071
  192POPC  H10Y22233   1.428   1.205   7.636 -1.6977  1.5728 -0.8557
  192POPC  C31122234   1.424   1.329   7.808  0.1709  0.7562  0.0563
  192POPC  H11X22235   1.363   1.244   7.846 -0.3830 -1.0081 -4.2657
  192POPC  H11Y22236   1.347   1.402   7.775 -0.0312 -0.4119 -2.2554
  192POPC  C31222237   1.504   1.377   7.933 -0.5881 -0.2188 -0.5044
  192POPC  H12X22238   1.562   1.465   7.897 -0.6588  0.3799  0.8274
  192POPC  H12Y22239   1.569   1.294   7.968  1.0175 -0.0060 -2.6950
  192POPC  C31322240   1.400   1.419   8.036 -0.0057 -0.1265 -1.1032
  192POPC  H13X22241   1.346   1.330   8.076 -0.4136  2.0724  3.8991
  192POPC  H13Y22242   1.323   1.489   7.998 -0.4516 -0.0535 -0.1033
  192POPC  C31422243   1.471   1.489   8.152  0.2891 -0.2133 -0.4909
  192POPC  H14X22244   1.491   1.593   8.120  2.3636 -0.4969 -0.2627
  192POPC  H14Y22245   1.570   1.440   8.170 -1.2280 -2.2190  3.6589
  192POPC  C31522246   1.382   1.510   8.281 -0.5894  0.5121 -0.7887
  192POPC  H15X22247   1.292   1.563   8.243 -1.7627 -1.9933 -1.8082
  192POPC  H15Y22248   1.437   1.572   8.355  0.4226 -0.8620 -0.3420
  192POPC  C31622249   1.350   1.373   8.345 -0.3866 -0.0534  0.3523
  192POPC  H16X22250   1.444   1.315   8.350 -0.3001  0.0967  0.4954
  192POPC  H16Y22251   1.290   1.318   8.269 -1.0364  2.0653 -0.7575
  192POPC  H16Z22252   1.288   1.369   8.437  0.3351 -1.6207  0.7992
  193SOD    SOD22253   2.529   3.853  12.494  0.1313 -0.4660 -0.4458
  194SOD    SOD22254   4.503   2.759  13.561 -0.8466  0.1237 -0.1015
  195SOD    SOD22255   2.984   3.798   1.586  0.4466  0.3930  0.1462
  196SOD    SOD22256   4.179   4.435  13.061 -0.3161 -0.1293  0.5639
  197SOD    SOD22257   3.101   2.157  15.443 -0.3074 -0.0378  0.3807
  198SOD    SOD22258   3.118   3.914  12.413 -0.1219  0.2137 -0.1797
  199SOD    SOD22259   4.780   6.706   5.214 -0.7080 -0.0952  0.2291
  200SOD    SOD22260   3.322   6.430   5.844  0.3502  0.1899 -0.2802
  201SOD    SOD22261   0.222   0.964   5.327  0.0454 -0.3345 -0.2142
  202SOD    SOD22262   0.223   6.175   5.201  0.0523 -0.1514  0.1123
  203SOD    SOD22263   4.737   6.248  11.803 -0.2077 -0.3044  0.3937
  204SOD    SOD22264   0.314   4.144  11.793  0.4563  0.4709  0.0351
  205SOD    SOD22265   5.717   0.276  14.807 -0.5494 -0.0943  0.1265
  206SOD    SOD22266   3.964   2.813   6.133  0.5429  0.2011 -0.0085
  207SOD    SOD22267   1.241   5.332  13.390 -0.3955  0.5831  0.3938
  208SOD    SOD22268   3.262   3.813   5.693  0.4717 -0.1329  0.4466
  209SOD    SOD22269   5.257   3.620  15.695 -0.2819 -0.1166 -0.1086
  210SOD    SOD22270   4.572   4.963  16.771 -0.3773 -0.0471 -0.4503
  211SOD    SOD22271   5.713   1.564  13.358  0.4160  0.6091 -0.2404
  212SOD    SOD22272   2.974   3.000   2.298 -0.2196 -0.7298  0.0307
  213SOD    SOD22273   2.522   5.133   5.038 -0.0442 -0.3139 -0.6092
  214SOD    SOD22274   6.661   0.944  14.749  0.2215  0.2406  0.6432
  215SOD    SOD22275   4.845   5.455  11.821  0.1055 -0.0871 -0.0445
  216SOD    SOD22276   0.332   1.327   6.458  0.5033  0.0681  0.0985
  217SOD    SOD22277   0.893   5.244   5.526  0.1819 -0.2364  0.5122
  218SOD    SOD22278   0.661   2.780  16.297  0.2024 -0.0889 -0.4618
  219SOD    SOD22279   3.236   4.108   0.575  0.0801  0.1154  0.7247
  220SOD    SOD22280   4.594   1.769  15.088  0.2670  0.2243 -0.1536
  221SOD    SOD22281   6.708   2.266  12.160 -0.0666  0.2616 -0.5651
  222SOD    SOD22282   1.487   1.011  12.370  0.0812  0.5450 -0.0438
  223SOD    SOD22283   4.585   4.267  13.877  0.5670  0.0142 -0.3372
  224SOD    SOD22284   1.486   0.491   1.815 -0.1480 -0.0098 -0.1157
  225SOD    SOD22285   1.663   6.745  11.159 -0.2872 -0.5872 -0.2169
  226SOD    SOD22286   4.185   3.495  14.743 -0.3255 -0.6615 -1.0649
  227SOD    SOD22287   5.037   5.519   3.915 -0.0199 -0.1507 -0.4552
  228SOD    SOD22288   3.760   0.992   2.013 -0.0434 -0.2627  0.0580
  229SOD    SOD22289   2.433   2.725  13.145  0.2693 -0.2975  0.2995
  230SOD    SOD22290   3.670   0.716   5.219  0.4545  0.1740  0.3326
  231SOD    SOD22291   1.181   2.936   3.091  0.3349  0.5310  0.1772
  232SOD    SOD22292   5.135   1.352  16.316 -0.2254  0.1874  0.0265
  233SOD    SOD22293   5.294   0.833  17.029 -0.1452  0.2314 -0.0071
  234SOD    SOD22294   6.562   3.984  11.225  0.1250 -0.2207 -0.2876
  235SOD    SOD22295   5.591   5.567   2.457  0.2239  0.5457  0.1176
  236SOD    SOD22296   0.477   3.986  16.575  0.0307 -0.0729  0.3600
  237SOD    SOD22297   0.204   0.142  10.928 -0.4645  0.2939 -0.3669
  238SOD    SOD22298   4.217   0.675   2.931  0.3476  0.6662 -0.0072
  239SOD    SOD22299   3.168   4.163  15.326  0.3475 -0.5930 -0.3099
  240SOD    SOD22300   5.442   2.725  16.339 -0.2602 -0.5372  0.0528
  241SOD    SOD22301   4.701   2.067   2.915 -0.1321  0.3933 -0.2226
  242SOD    SOD22302   4.350   6.766  16.257 -0.0551  0.0198  0.0306
  243SOD    SOD22303   2.713   1.913   0.241 -0.2626 -0.3337 -0.0410
  244SOD    SOD22304   3.295   4.915   1.820 -0.4952 -0.2327 -0.2627
  245SOD    SOD22305   5.076   5.883  13.115  0.7379 -0.4012  0.1498
  246SOD    SOD22306   4.942   5.718  15.283  0.2883 -0.4143  0.0214
  247SOD    SOD22307   4.548   3.070  10.835  0.4550 -0.0692 -0.3256
  248SOD    SOD22308   1.633   4.057   6.757 -0.4423 -0.2556  0.1387
  249SOD    SOD22309   2.229   0.636  13.551 -0.2107 -0.1075 -0.0302
  250SOD    SOD22310   4.045   1.338  11.552 -0.6381 -0.7046 -0.1562
  251SOD    SOD22311   2.723   1.761   4.731 -0.0354 -0.1040 -0.6794
  252SOD    SOD22312   5.498   4.314   5.277  0.1273  0.1293 -0.0626
  253SOD    SOD22313   4.337   5.068   6.175 -0.2052 -0.5143 -0.7787
  254SOD    SOD22314   2.820   0.030  15.544 -0.0403 -0.3317  0.3854
  255SOD    SOD22315   0.227   5.081  14.352  0.0341 -0.2602  0.1212
  256SOD    SOD22316   3.681   0.653  15.726 -0.2475 -0.0941 -0.1244
  257SOD    SOD22317   0.094   5.817   3.859 -0.6303  0.2938  0.3254
  258SOD    SOD22318   1.127   5.563   6.445 -0.5473  0.1106  0.5682
  259SOD    SOD22319   4.207   6.184   5.111  0.1912  0.4500  0.2873
  260SOD    SOD22320   6.489   3.033   4.128  0.1626  0.8189 -0.8870
  261SOD    SOD22321   4.001   5.260  11.340  0.1399  0.1261  0.0471
  262SOD    SOD22322   5.460   2.579  11.805  0.3077  0.0916  0.2308
  263SOD    SOD22323   1.162   4.647   0.439  0.2801 -0.1459 -0.6790
  264SOD    SOD22324   0.926   0.524  10.796  0.1084 -0.1214  0.0975
  265SOD    SOD22325   1.623   0.402   5.530 -0.0425  0.6540  0.0181
  266SOD    SOD22326   2.196   2.146  14.336  0.2570  0.2182 -0.0849
  267SOD    SOD22327   2.375   4.595   3.013 -0.2298  0.1249  0.1009
  268SOD    SOD22328   3.132   0.539  12.537  0.3847 -0.7766  0.2901
  269SOD    SOD22329   1.345   4.949   4.707  0.1884 -0.0655 -0.3562
  270CLA    CLA22330   4.837   3.094  14.004 -0.2861 -0.2556 -0.3876
  271CLA    CLA22331   5.573   4.322   3.976  0.1376 -0.0850  0.1194
  272CLA    CLA22332   4.932   5.414   5.008 -0.4531 -0.0370  0.0416
  273CLA    CLA22333   0.540   5.242  15.800 -0.3938 -0.0322  0.2183
  274CLA    CLA22334   1.191   4.736   2.719 -0.0991  0.3016  0.3062
  275CLA    CLA22335   4.039   4.089  15.437  0.4563 -0.1306 -0.3123
  276CLA    CLA22336   2.202   2.641  13.044  0.1696  0.3783  0.4085
  277CLA    CLA22337   0.727   0.303  15.906 -0.1862 -0.2570 -0.0193
  278CLA    CLA22338   6.255   3.997  16.117  0.0032  0.4117 -0.2494
  279CLA    CLA22339   2.694   1.691  15.042  0.1112 -0.1608  0.2711
  280CLA    CLA22340   4.311   6.683  15.179 -0.3796  0.3223 -0.2169
  281CLA    CLA22341   3.932   0.781   1.289 -0.3163 -0.2120 -0.2568
  282CLA    CLA22342   1.614   1.388   4.166  0.1382  0.1309 -0.1964
  283CLA    CLA22343   2.184   1.029  12.278  0.1394 -0.2787  0.0800
  284CLA    CLA22344   4.421   4.645   3.118  0.1484 -0.1004  0.0816
  285CLA    CLA22345   6.508   0.140  17.109 -0.0628 -0.2808 -0.5166
  286CLA    CLA22346   3.826   1.013  13.883 -0.3216  0.3415  0.3367
  287CLA    CLA22347   0.083   2.439  12.093  0.0496  0.1730  0.0905
  288CLA    CLA22348   1.448   4.407   5.513  0.0271 -0.1269  0.0146
  289CLA    CLA22349   0.413   2.030  13.614  0.0595  0.2874  0.4530
  290CLA    CLA22350   3.700   6.040  13.735  0.3740  0.1205 -0.0767
  291CLA    CLA22351   6.225   0.103  14.730  0.0703 -0.0698 -0.1673
  292CLA    CLA22352   5.154   3.282   2.044  0.2259 -0.0547 -0.1085
  293CLA    CLA22353   2.579   6.744   3.798 -0.3063 -0.0638  0.1731
  294CLA    CLA22354   1.938   4.620   4.354  0.2482 -0.0263 -0.4387
  295CLA    CLA22355   5.527   3.029  12.152 -0.2128 -0.0039  0.1097
  296CLA    CLA22356   0.598   3.200  12.054 -0.4870 -0.1730  0.0311
  297CLA    CLA22357   3.221   6.601   5.652 -0.7523  0.5304 -0.2460
  298CLA    CLA22358   2.337   4.306   5.243  0.1341 -0.2873  0.0111
  299CLA    CLA22359   3.322   0.743  14.558 -0.2336  0.1017 -0.2805
  300CLA    CLA22360   5.526   1.296   0.545 -0.1053  0.0017 -0.4250
  301CLA    CLA22361   4.152   0.756   0.301 -0.0596 -0.1843  0.1268
  302CLA    CLA22362   4.455   0.049  11.631 -0.1461 -0.1991  0.3733
  303CLA    CLA22363   2.527   0.936  14.112 -0.5367 -0.4566  0.1902
  304CLA    CLA22364   6.439   2.397  15.392  0.0884 -0.3619  0.2110
  305CLA    CLA22365   4.836   1.839   1.023  0.6420  0.2471 -0.0145
  306CLA    CLA22366   3.524   6.106  15.911 -0.1768 -0.3333  0.3837
  307CLA    CLA22367   5.480   5.224  14.063 -0.0887  0.5362 -0.1474
  308CLA    CLA22368   2.865   3.914  14.776  0.0824 -0.1229 -0.5501
  309CLA    CLA22369   0.573   0.320   2.425  0.1661  0.1541  0.0750
  310CLA    CLA22370   2.894   3.388   3.971 -0.3546  0.6972  0.0667
  311CLA    CLA22371   5.333   1.999  17.222 -0.0775 -0.1446 -0.0948
  312CLA    CLA22372   1.199   1.114   0.126  0.3719  0.0711 -0.7095
  313CLA    CLA22373   4.033   0.633  16.017 -0.0497 -0.2884 -0.2253
  314CLA    CLA22374   0.765   6.712   4.397 -0.2378 -0.3111 -0.1085
  315CLA    CLA22375   3.828   4.898  15.048 -0.0478 -0.5406  0.0644
  316CLA    CLA22376   4.687   3.289   3.358  0.1217 -0.1257 -0.0549
  317CLA    CLA22377   4.458   2.526  14.021 -0.2304  0.7721 -0.0753
  318CLA    CLA22378   2.712   0.499   2.469 -0.2464 -0.0924 -0.2130
  319CLA    CLA22379   5.747   2.517   2.243  0.1839 -0.3241 -0.0917
  320CLA    CLA22380   1.713   2.301  16.297  0.1205  0.0921 -0.2797
  321CLA    CLA22381   4.003   6.019   0.539 -0.0424  0.3686 -0.2281
  322CLA    CLA22382   5.189   4.591  11.691  0.1220  0.2173  0.0014
  323TIP3   OH222383   5.948   5.443  14.934  0.5987 -0.1776 -0.0398
  323TIP3    H122384   5.918   5.531  14.954 -1.0179 -1.0845  1.9029
  323TIP3    H222385   5.997   5.416  15.012 -0.1426 -1.4774  0.0123
  324TIP3   OH222386   3.436   3.606   4.557 -0.1419  0.3669  0.4759
  324TIP3    H122387   3.478   3.634   4.475  2.0515  1.2834  1.8330
  324TIP3    H222388   3.467   3.517   4.571 -0.3816  0.2710  0.3995
  325TIP3   OH222389   0.607   4.780   5.776  0.1372 -0.1447 -0.0425
  325TIP3    H122390   0.697   4.747   5.776 -0.0292 -0.6362  0.9516
  325TIP3    H222391   0.561   4.724   5.838 -1.5336 -1.5979 -2.4655
  326TIP3   OH222392   4.129   5.752   4.350  0.4902  0.3626 -0.1662
  326TIP3    H122393   4.059   5.744   4.416  0.1257  3.7447  0.0277
  326TIP3    H222394   4.083   5.773   4.269  1.1600  0.0605 -0.6313
  327TIP3   OH222395   0.841   2.156   0.534 -0.3914  0.6310  0.1318
  327TIP3    H122396   0.746   2.154   0.527 -0.5476 -0.8524  1.8865
  327TIP3    H222397   0.872   2.089   0.473 -0.5414  0.4884  0.2113
  328TIP3   OH222398   0.246   5.293  14.228 -0.1339 -0.1946  0.1250
  328TIP3    H122399   0.269   5.367  14.284  0.6684 -0.3671  0.0253
  328TIP3    H222400   0.227   5.332  14.143 -0.4643 -0.0319  0.2669
  329TIP3   OH222401   3.272   3.514  17.081 -0.4063  0.4926 -0.2430
  329TIP3    H122402   3.251   3.466  17.001  0.2485 -0.8732  0.3666
  329TIP3    H222403   3.346   3.570  17.056 -0.9723  0.9634 -0.8863
  330TIP3   OH222404   0.743   4.443   4.307  0.1687  0.2044  0.6646
  330TIP3    H122405   0.705   4.374   4.252  0.2166 -0.3360  1.2959
  330TIP3    H222406   0.667   4.486   4.346 -0.0965  2.8410 -2.3788
  331TIP3   OH222407   2.151   2.376   4.842  0.5755 -0.2977 -0.3446
  331TIP3    H122408   2.167   2.295   4.891 -0.8938 -1.2618 -1.3465
  331TIP3    H222409   2.077   2.354   4.784  0.7185  1.5046 -1.2751
  332TIP3   OH222410   0.713   0.169   2.671  0.2909 -0.1723  0.4484
  332TIP3    H122411   0.773   0.219   2.726  1.7023  0.8547 -1.8812
  332TIP3    H222412   0.669   0.234   2.616  1.6705 -1.2828 -2.1815
  333TIP3   OH222413   3.118   5.996  16.259 -0.7946  0.3895 -0.0578
  333TIP3    H122414   3.211   5.971  16.269 -1.1572 -1.0004  0.1490
  333TIP3    H222415   3.110   6.077  16.309  0.4471  0.8840 -0.6069
  334TIP3   OH222416   4.896   6.386  11.880 -0.1755 -0.0467  0.6233
  334TIP3    H122417   4.950   6.352  11.951  1.8866 -1.1521 -1.3712
  334TIP3    H222418   4.936   6.470  11.857  0.5138 -0.6783 -0.5887
  335TIP3   OH222419   6.101   5.433   2.978  0.2678  0.1591 -0.1810
  335TIP3    H122420   6.012   5.406   3.001  0.2680  1.0276  0.9367
  335TIP3    H222421   6.129   5.489   3.051  2.3280 -1.3704  0.3021
  336TIP3   OH222422   1.460   3.775   5.513  0.2250  0.4148 -0.2193
  336TIP3    H122423   1.459   3.741   5.603 -0.8204  0.3077 -0.2591
  336TIP3    H222424   1.512   3.856   5.520  1.0104 -0.1080  0.2669
  337TIP3   OH222425   0.062   2.373   4.545  0.2030  0.7025  0.1987
  337TIP3    H122426   0.065   2.283   4.577  0.0745  0.8168  0.5352
  337TIP3    H222427  -0.005   2.415   4.598  1.5020  1.4724  1.3001
  338TIP3   OH222428   4.066   6.653   5.721  0.3473  0.0175 -0.4034
  338TIP3    H122429   4.128   6.714   5.680  1.7840 -1.1120 -0.0314
  338TIP3    H222430   3.981   6.694   5.711  0.8324  0.5593 -3.1065
  339TIP3   OH222431   4.096   6.153   6.264  0.4454 -0.2104 -0.0707
  339TIP3    H122432   4.151   6.203   6.325  0.1580  2.3447 -1.7605
  339TIP3    H222433   4.022   6.124   6.317  0.4115  1.5609  0.9409
  340TIP3   OH222434   1.752   4.671   1.512  0.1788 -0.1530  0.2146
  340TIP3    H122435   1.808   4.699   1.439 -1.6445 -1.1835 -1.6752
  340TIP3    H222436   1.671   4.719   1.500  0.3271  0.7772  2.4962
  341TIP3   OH222437   6.143   3.081   3.709 -0.1658  0.0913  0.3749
  341TIP3    H122438   6.150   2.985   3.710  1.3270  0.1820  1.0622
  341TIP3    H222439   6.098   3.103   3.790 -1.4938 -0.0602 -0.2908
  342TIP3   OH222440   4.206   1.020  13.365  0.5207  0.1145 -0.4472
  342TIP3    H122441   4.297   1.014  13.334  0.5095  1.8691 -0.9260
  342TIP3    H222442   4.207   1.089  13.430 -0.8520  1.8092 -2.1194
  343TIP3   OH222443   3.267   3.843  15.748 -0.1061  0.3788  0.1664
  343TIP3    H122444   3.261   3.937  15.730 -0.2679  0.3097 -0.1434
  343TIP3    H222445   3.179   3.819  15.776  0.2569  0.5855  1.5629
  344TIP3   OH222446   2.996   2.555  17.242  0.0671  0.1824  0.2370
  344TIP3    H122447   2.962   2.548  17.153 -1.5367 -0.1517  0.8349
  344TIP3    H222448   3.074   2.609  17.235 -0.6536  1.0700 -1.2153
  345TIP3   OH222449   0.648   1.325   5.889 -0.3145  0.1122 -0.3007
  345TIP3    H122450   0.617   1.278   5.966 -0.5294  0.7676  0.0164
  345TIP3    H222451   0.579   1.388   5.869  1.5789  3.0517  1.6676
  346TIP3   OH222452   1.454   4.382   2.832  0.1601 -0.4239 -0.0064
  346TIP3    H122453   1.534   4.386   2.884  1.1945 -1.1450 -1.4460
  346TIP3    H222454   1.468   4.308   2.773 -1.7961 -0.8676  0.0381
  347TIP3   OH222455   3.248   5.707  16.663 -0.4080  0.8156 -0.3140
  347TIP3    H122456   3.168   5.690  16.713 -1.6936  0.9047 -2.2299
  347TIP3    H222457   3.289   5.781  16.706 -1.3695  0.7768  0.6952
  348TIP3   OH222458   4.354   3.709  15.918 -0.1911  0.3929  0.2375
  348TIP3    H122459   4.341   3.792  15.964  0.3336  0.7277 -0.1969
  348TIP3    H222460   4.326   3.642  15.979 -0.5321  0.8934  0.6314
  349TIP3   OH222461   2.336   2.199  14.620 -0.2512 -0.1495 -0.2988
  349TIP3    H122462   2.402   2.146  14.576 -1.4405 -1.6353 -0.3658
  349TIP3    H222463   2.381   2.282  14.640  1.7320 -1.2584  0.0494
  350TIP3   OH222464   2.718   5.729  13.260  0.0902 -0.2130  0.1836
  350TIP3    H122465   2.661   5.805  13.249 -1.0063 -1.0576 -0.2961
  350TIP3    H222466   2.701   5.699  13.350  1.0592  0.5172  0.6153
  351TIP3   OH222467   6.520   2.250  14.085 -0.1319  0.1629  0.1471
  351TIP3    H122468   6.513   2.166  14.131  0.9113  0.1381  0.2813
  351TIP3    H222469   6.435   2.291  14.097  0.0050  0.0171  1.8330
  352TIP3   OH222470   5.606   3.483  15.060  0.7685  0.0273 -0.3530
  352TIP3    H122471   5.606   3.467  15.154  1.2552  0.3767 -0.2842
  352TIP3    H222472   5.598   3.397  15.020 -1.0634 -0.0083  0.0028
  353TIP3   OH222473   3.244   1.745  12.434 -0.2108 -0.1856 -0.1384
  353TIP3    H122474   3.340   1.744  12.439 -0.0768  2.7064 -0.7414
  353TIP3    H222475   3.216   1.784  12.517 -0.5417  2.8847 -1.5551
  354TIP3   OH222476   6.109   4.973  11.075 -0.2749  0.1789 -0.5019
  354TIP3    H122477   6.054   5.021  11.013  0.0358  1.4981  0.2050
  354TIP3    H222478   6.055   4.965  11.154  0.8817  2.5755  0.6420
  355TIP3   OH222479   5.392   5.438   0.988  0.2395 -0.0043 -0.3028
  355TIP3    H122480   5.433   5.358   0.956  2.1089  0.6923  0.2316
  355TIP3    H222481   5.395   5.430   1.083 -0.1965  0.3882 -0.2544
  356TIP3   OH222482   4.391   3.162  16.560 -0.5335  0.7065 -0.0914
  356TIP3    H122483   4.446   3.236  16.534 -1.7548  1.3354 -0.9928
  356TIP3    H222484   4.372   3.116  16.478 -0.9813  0.2401  0.2670
  357TIP3   OH222485   3.953   1.855   1.957 -0.2052 -0.3473 -0.4264
  357TIP3    H122486   4.015   1.784   1.971 -2.2141 -2.1726 -0.2450
  357TIP3    H222487   4.003   1.922   1.910  2.2856 -1.0262  1.0778
  358TIP3   OH222488   6.268   6.610   2.430 -0.0650 -0.3131 -0.0457
  358TIP3    H122489   6.218   6.656   2.362  0.9476 -0.3091 -0.8231
  358TIP3    H222490   6.346   6.664   2.443  0.6108 -1.2274 -0.1749
  359TIP3   OH222491   3.174   6.091  16.920 -0.0806 -0.3068 -0.2441
  359TIP3    H122492   3.172   6.154  16.992  0.2793  1.5754 -1.7812
  359TIP3    H222493   3.267   6.082  16.900  0.0538 -2.8546  1.1284
  360TIP3   OH222494   4.285   1.326  13.120  0.0517  0.4041 -0.0870
  360TIP3    H122495   4.262   1.361  13.034 -0.2185  0.4935  0.0228
  360TIP3    H222496   4.249   1.388  13.183 -1.7547 -0.7883  0.1585
  361TIP3   OH222497   0.717   2.849   5.221  0.5267 -0.0460 -0.5500
  361TIP3    H122498   0.754   2.824   5.305  1.2982 -0.1341 -0.9101
  361TIP3    H222499   0.647   2.786   5.205 -0.0196  0.3274  0.2931
  362TIP3   OH222500   3.758   1.173   3.950 -0.1620 -0.1129 -0.3914
  362TIP3    H122501   3.742   1.163   4.044  1.1324 -2.8980 -0.3571
  362TIP3    H222502   3.675   1.148   3.909 -0.2282 -0.5359 -0.0043
  363TIP3   OH222503   6.722   1.813  11.657 -0.1917  0.3082  0.0991
  363TIP3    H122504   6.807   1.841  11.692  0.0215 -0.9341  0.6230
  363TIP3    H222505   6.667   1.800  11.735 -0.3941 -0.3746 -0.1541
  364TIP3   OH222506   4.417   1.093   5.405  0.0002 -0.0449  0.0931
  364TIP3    H122507   4.422   1.169   5.463  0.9525  0.2390 -0.3465
  364TIP3    H222508   4.428   1.128   5.317 -0.3232 -0.6040 -0.1793
  365TIP3   OH222509   5.572   1.835   4.516 -0.5637  0.1508  0.4706
  365TIP3    H122510   5.501   1.791   4.468 -0.4372  0.7792 -0.3130
  365TIP3    H222511   5.569   1.926   4.484  1.6786 -0.1832 -0.8692
  366TIP3   OH222512   5.879   6.235  12.298  0.4973 -0.7660  0.0005
  366TIP3    H122513   5.787   6.216  12.282  0.4144  0.3414 -0.9431
  366TIP3    H222514   5.896   6.196  12.384 -0.3767 -2.4855 -0.5564
  367TIP3   OH222515   2.935   4.535  15.821  0.0082  0.0082  0.2267
  367TIP3    H122516   2.911   4.456  15.871 -1.3039  0.3135  0.1207
  367TIP3    H222517   2.980   4.591  15.884  1.4695 -1.0378  0.1655
  368TIP3   OH222518   2.192   1.850  12.222 -0.1909 -0.6339  0.4856
  368TIP3    H122519   2.175   1.796  12.144 -1.0225  0.6593 -0.2789
  368TIP3    H222520   2.119   1.830  12.281 -1.1406  0.4475 -0.2738
  369TIP3   OH222521   1.165   2.611   3.483 -0.2021 -0.1656 -0.4496
  369TIP3    H122522   1.087   2.646   3.526 -0.3524 -0.1793 -0.7094
  369TIP3    H222523   1.230   2.680   3.492 -0.1079 -0.3316  0.1544
  370TIP3   OH222524   1.424   5.715   0.378 -0.0260 -0.1250 -0.2229
  370TIP3    H122525   1.411   5.636   0.326 -0.7673 -0.2587  0.1564
  370TIP3    H222526   1.377   5.783   0.331 -2.2561 -0.6112  1.1542
  371TIP3   OH222527   1.542   0.221  15.494 -0.2410  0.5982  0.9189
  371TIP3    H122528   1.524   0.131  15.466  0.8719  0.4065  0.7607
  371TIP3    H222529   1.533   0.218  15.589  0.5436  0.1204  0.9892
  372TIP3   OH222530   5.187   2.626  14.339  0.0979 -0.0692  0.4706
  372TIP3    H122531   5.244   2.588  14.405 -1.7473  0.4742  2.4876
  372TIP3    H222532   5.131   2.554  14.311 -0.7927  0.2452  1.3980
  373TIP3   OH222533   3.683   3.743   5.854 -0.2120 -0.9175  0.1012
  373TIP3    H122534   3.760   3.702   5.814  0.7362  0.3609  0.5414
  373TIP3    H222535   3.713   3.771   5.940 -0.4335  1.7487 -0.6198
  374TIP3   OH222536   4.121   2.127  12.390 -0.1168  0.0053 -0.1602
  374TIP3    H122537   4.114   2.106  12.297 -1.3786 -0.2907 -0.0231
  374TIP3    H222538   4.189   2.194  12.395 -1.3833  1.4828 -1.5544
  375TIP3   OH222539   1.683   4.349  13.349  0.4711  0.0126  0.1425
  375TIP3    H122540   1.767   4.374  13.388  0.1089 -0.0397  0.9659
  375TIP3    H222541   1.704   4.271  13.296  0.8123 -0.4138  0.8922
  376TIP3   OH222542   2.922   0.014   1.010 -0.1898  0.6219 -0.1631
  376TIP3    H122543   2.923  -0.081   1.010  1.0636  0.5753  1.7864
  376TIP3    H222544   2.955   0.039   0.924 -0.3906 -0.6977 -0.6375
  377TIP3   OH222545   5.276   5.730  13.987 -0.3028  0.5343 -0.0910
  377TIP3    H122546   5.357   5.758  14.029  0.4093 -0.9863 -0.3937
  377TIP3    H222547   5.301   5.712  13.896 -1.2926  1.4071 -0.5523
  378TIP3   OH222548   2.554   1.558   1.463  0.5023 -0.1076 -0.0459
  378TIP3    H122549   2.640   1.600   1.461  0.9409 -1.0078 -0.3594
  378TIP3    H222550   2.556   1.503   1.541  0.6870 -1.1095 -0.7516
  379TIP3   OH222551   0.207   6.069   0.794 -0.0731  0.7024  0.0364
  379TIP3    H122552   0.130   6.122   0.775 -1.0597 -0.6850  0.0251
  379TIP3    H222553   0.191   5.985   0.750  0.2154 -0.5442  2.1377
  380TIP3   OH222554   0.779   2.946   3.390 -0.0961  0.3894 -0.7711
  380TIP3    H122555   0.722   2.939   3.467 -0.6042  2.0189 -0.9725
  380TIP3    H222556   0.804   2.855   3.371  0.5113 -0.0241  1.6370
  381TIP3   OH222557   0.222   5.829  14.664 -0.1998 -0.7163 -0.1378
  381TIP3    H122558   0.179   5.847  14.747 -0.4878  0.7139 -0.5827
  381TIP3    H222559   0.302   5.782  14.689  0.6539  1.2645  1.1291
  382TIP3   OH222560   4.754   3.425  13.326 -0.4600 -0.5064 -0.2297
  382TIP3    H122561   4.720   3.403  13.239  0.0097 -1.0499 -0.2783
  382TIP3    H222562   4.828   3.366  13.339 -1.9193 -2.0802  1.4940
  383TIP3   OH222563   1.795   0.477   3.926  0.0729 -0.3822  0.0929
  383TIP3    H122564   1.810   0.571   3.941 -0.1911 -0.3222 -0.0146
  383TIP3    H222565   1.704   0.472   3.895  0.4178 -0.5546 -0.9407
  384TIP3   OH222566   3.546   2.763   2.257 -0.5109  0.0519 -0.1977
  384TIP3    H122567   3.473   2.737   2.314 -0.5127 -0.2036 -0.3172
  384TIP3    H222568   3.551   2.858   2.267 -0.8965  0.0757 -0.2365
  385TIP3   OH222569   5.905   0.563   3.768  0.3304 -0.5550  0.1004
  385TIP3    H122570   5.891   0.581   3.862  1.4365  1.2985 -0.0244
  385TIP3    H222571   5.822   0.586   3.727  0.0647 -0.6829  0.5586
  386TIP3   OH222572   0.923   0.406   5.742 -0.6287  0.4846  0.5326
  386TIP3    H122573   0.891   0.452   5.664 -0.7150  1.0914  0.9187
  386TIP3    H222574   0.844   0.377   5.787 -0.6796  2.0073  1.5013
  387TIP3   OH222575   2.030   0.391  11.441 -0.0170  0.2810  0.0597
  387TIP3    H122576   2.103   0.339  11.474  0.1785  1.2004  1.1136
  387TIP3    H222577   2.069   0.475  11.417 -0.7111  0.7534  0.5580
  388TIP3   OH222578   1.162   1.238  12.960 -0.1421 -0.5736  0.2301
  388TIP3    H122579   1.218   1.303  13.002  0.9148 -1.9283  1.0025
  388TIP3    H222580   1.073   1.263  12.985  0.1498  1.1335 -0.3308
  389TIP3   OH222581   2.781   5.189   2.709 -0.1262 -0.4794 -0.7971
  389TIP3    H122582   2.755   5.162   2.798  1.0134 -0.1981 -0.3658
  389TIP3    H222583   2.705   5.237   2.676  0.1429  1.0958  0.7648
  390TIP3   OH222584   2.762   6.327   0.956  0.0245  0.0874  0.5288
  390TIP3    H122585   2.797   6.317   1.044 -2.4141  0.3581  1.6148
  390TIP3    H222586   2.690   6.264   0.952  0.0686  0.0968 -1.2785
  391TIP3   OH222587   2.584   4.319   2.052 -0.3052  0.2549  0.2300
  391TIP3    H122588   2.621   4.313   2.140 -0.9135  1.8646  0.6480
  391TIP3    H222589   2.558   4.411   2.044 -2.7698 -0.4400 -0.5935
  392TIP3   OH222590   5.331   1.065   3.553  0.3375 -0.3685 -0.2818
  392TIP3    H122591   5.337   1.105   3.466 -0.5251 -0.9766 -0.6294
  392TIP3    H222592   5.422   1.058   3.583  0.6246  0.0220 -1.0448
  393TIP3   OH222593   6.595   3.205   1.300  0.0811  0.0220 -0.1117
  393TIP3    H122594   6.561   3.173   1.217 -0.1059 -1.2251  0.4227
  393TIP3    H222595   6.673   3.152   1.316  0.8414  1.1144 -0.0893
  394TIP3   OH222596   5.281   4.751  12.305  0.4639  0.2867  0.0973
  394TIP3    H122597   5.372   4.777  12.289  0.4846  0.8919  1.0907
  394TIP3    H222598   5.250   4.718  12.221  2.3051 -2.1519  0.2620
  395TIP3   OH222599   3.606   4.728   2.647  0.4423  0.0029  0.6290
  395TIP3    H122600   3.657   4.807   2.663 -0.3330  0.6045  0.1884
  395TIP3    H222601   3.631   4.701   2.559  0.4487 -0.0516  0.6476
  396TIP3   OH222602   5.653   0.792  14.282 -0.0887  0.5309  0.3250
  396TIP3    H122603   5.592   0.810  14.211  0.2160  0.7722  0.1200
  396TIP3    H222604   5.634   0.859  14.348 -0.6631  0.0440  0.6639
  397TIP3   OH222605   5.476   3.280   2.994 -0.7539  0.0482 -0.4745
  397TIP3    H122606   5.528   3.331   3.057 -0.6278 -0.2003 -0.3732
  397TIP3    H222607   5.464   3.339   2.919 -1.4617  0.5773  0.0459
  398TIP3   OH222608   2.485   4.188  10.672 -0.2289  0.7441  0.5960
  398TIP3    H122609   2.549   4.184  10.744  0.5232  1.9972  0.0351
  398TIP3    H222610   2.426   4.114  10.688  0.9002  0.0123  1.5741
  399TIP3   OH222611   4.440   2.266  16.516  0.2188  0.0042 -0.1332
  399TIP3    H122612   4.531   2.290  16.535  0.1515  0.0430  0.1491
  399TIP3    H222613   4.447   2.196  16.451  0.3951  1.1136 -1.3334
  400TIP3   OH222614   5.293   4.568   2.899  0.5661  0.2874 -0.2537
  400TIP3    H122615   5.214   4.584   2.951  1.8058  1.1542  1.4807
  400TIP3    H222616   5.350   4.518   2.958  2.3636  2.0112 -0.4108
  401TIP3   OH222617   0.059   3.248   1.058  0.2323  0.0821  0.3573
  401TIP3    H122618   0.007   3.325   1.035 -0.4132 -0.1069  1.1190
  401TIP3    H222619   0.006   3.174   1.028  0.7548 -0.0826 -0.1852
  402TIP3   OH222620   3.472   5.008  13.552 -0.0924 -0.3977 -0.9075
  402TIP3    H122621   3.396   4.976  13.599  0.3008 -1.4275 -0.9560
  402TIP3    H222622   3.448   5.001  13.459 -0.1523 -0.1844 -0.9073
  403TIP3   OH222623   5.862   6.634  17.053 -0.4614 -0.1595 -0.4136
  403TIP3    H122624   5.868   6.702  16.987 -1.3999  1.6035  1.2141
  403TIP3    H222625   5.949   6.594  17.054 -0.0348  0.6665 -1.7516
  404TIP3   OH222626   3.494   1.568  16.476  0.2119 -0.5492 -0.0146
  404TIP3    H122627   3.420   1.608  16.432 -0.7476 -1.9090  0.3043
  404TIP3    H222628   3.455   1.516  16.547  1.4748 -1.1163  0.2970
  405TIP3   OH222629   5.278   0.703   2.242  0.0652  0.1088  0.0325
  405TIP3    H122630   5.246   0.634   2.299 -2.5262  0.1651 -1.1985
  405TIP3    H222631   5.216   0.704   2.168  1.7762  1.7149 -1.4981
  406TIP3   OH222632   1.412   4.353  13.963 -0.7578  0.6509  0.0425
  406TIP3    H122633   1.463   4.302  13.901 -1.5396 -0.3579  0.2055
  406TIP3    H222634   1.322   4.321  13.952 -1.3666  2.3030 -0.1775
  407TIP3   OH222635   1.566   2.385   3.581  0.0131  0.1493  0.2752
  407TIP3    H122636   1.477   2.410   3.605  0.3526  0.3819  1.3932
  407TIP3    H222637   1.615   2.394   3.663  1.1088  0.2531 -0.3794
  408TIP3   OH222638   4.909   0.097  15.841 -0.0719 -0.3063 -0.1355
  408TIP3    H122639   4.951   0.154  15.905 -1.3491  1.3841 -0.7459
  408TIP3    H222640   4.982   0.066  15.786  0.5369  1.7719 -0.5674
  409TIP3   OH222641   5.522   6.599   2.842 -0.1809  0.0290  0.1637
  409TIP3    H122642   5.453   6.645   2.794 -0.6526 -0.1519  0.6533
  409TIP3    H222643   5.515   6.508   2.811  1.2191  0.3952 -1.3368
  410TIP3   OH222644   1.485   5.220   0.402  0.0088  0.1964  0.5915
  410TIP3    H122645   1.475   5.131   0.368 -1.5654  0.7704 -0.5516
  410TIP3    H222646   1.467   5.212   0.496  1.6906 -0.9621  0.8556
  411TIP3   OH222647   3.306   6.191   4.264  0.1444 -0.6742 -0.2155
  411TIP3    H122648   3.369   6.119   4.271 -0.0371 -0.8040  0.0844
  411TIP3    H222649   3.224   6.154   4.297 -0.1032 -0.5186 -0.6448
  412TIP3   OH222650   3.734   5.947   4.881  0.0973  0.2497  0.1184
  412TIP3    H122651   3.711   5.974   4.791 -1.6985  0.4149  0.5874
  412TIP3    H222652   3.715   6.025   4.934 -0.1977 -0.3033  0.8270
  413TIP3   OH222653   0.277   6.617   5.131 -0.4010  0.1695  0.1857
  413TIP3    H122654   0.371   6.626   5.146 -0.0699 -1.1980 -0.8639
  413TIP3    H222655   0.264   6.651   5.042 -0.6506 -0.8662 -0.1914
  414TIP3   OH222656   0.131   5.431  13.113  0.5165  0.3116  0.2013
  414TIP3    H122657   0.204   5.468  13.163  1.5080 -0.1022 -0.9112
  414TIP3    H222658   0.165   5.350  13.076 -0.7682 -0.3064  0.2973
  415TIP3   OH222659   6.173   5.411   2.629  0.0704  0.5154 -0.1244
  415TIP3    H122660   6.160   5.480   2.565 -0.5484  0.2994 -0.2384
  415TIP3    H222661   6.254   5.367   2.602 -0.5153  0.0196 -1.1350
  416TIP3   OH222662   2.504   6.056  12.190  0.1179  0.3046  0.1450
  416TIP3    H122663   2.467   6.062  12.102  1.5766  0.0643 -0.5227
  416TIP3    H222664   2.590   6.014  12.177  0.4313  0.4141  1.6621
  417TIP3   OH222665   4.869   0.140  17.015 -0.0699 -0.1283 -0.0039
  417TIP3    H122666   4.932   0.085  16.968  0.2016  0.4134 -0.2811
  417TIP3    H222667   4.824   0.189  16.946  0.4362  0.7844  0.3068
  418TIP3   OH222668   4.262   3.739   1.343 -0.4940 -0.3748 -0.4918
  418TIP3    H122669   4.266   3.644   1.332 -0.6481 -0.3934 -0.3905
  418TIP3    H222670   4.214   3.751   1.425 -1.8916 -0.1734 -1.3127
  419TIP3   OH222671   3.231   1.111   4.503  0.6379  0.0277 -0.5961
  419TIP3    H122672   3.234   1.207   4.502  1.8482  0.0063 -1.2077
  419TIP3    H222673   3.203   1.088   4.591  0.5475  0.9445 -0.3796
  420TIP3   OH222674   4.714   3.668   2.355  0.1238 -0.8477 -0.1286
  420TIP3    H122675   4.697   3.757   2.324 -0.6665 -0.8904  0.1498
  420TIP3    H222676   4.770   3.679   2.431 -1.6050 -0.4304  1.1360
  421TIP3   OH222677   1.920   3.303   2.780 -0.1236  0.2483  0.1216
  421TIP3    H122678   1.937   3.343   2.865  2.2498 -0.0711 -0.1332
  421TIP3    H222679   1.952   3.214   2.788 -1.2004 -0.2418 -0.7083
  422TIP3   OH222680   2.019   0.295  12.898  1.0222  0.4055  0.8580
  422TIP3    H122681   2.032   0.366  12.835 -1.0148  1.1677  1.2357
  422TIP3    H222682   1.926   0.272  12.890  1.3384 -1.3173  1.7011
  423TIP3   OH222683   2.053   1.243   3.722 -0.1560 -0.1906  0.2997
  423TIP3    H122684   1.983   1.234   3.786 -0.9773 -1.4508 -0.7408
  423TIP3    H222685   2.026   1.190   3.647  0.6071  1.4894 -1.2722
  424TIP3   OH222686   6.728   1.152  12.479 -0.2253 -0.4228 -0.2939
  424TIP3    H122687   6.732   1.068  12.524  0.1164 -0.7956 -1.0045
  424TIP3    H222688   6.723   1.130  12.386 -2.6643  0.3103 -0.3995
  425TIP3   OH222689   4.152   3.017   0.457 -0.1632  0.1307  0.5701
  425TIP3    H122690   4.141   3.041   0.549 -0.9277  0.2543  0.4596
  425TIP3    H222691   4.068   3.041   0.416  0.1788  0.1142 -0.1630
  426TIP3   OH222692   6.505   0.498  14.231 -0.7265  0.1303  0.5978
  426TIP3    H122693   6.600   0.498  14.223 -0.7642  3.3186 -3.1783
  426TIP3    H222694   6.488   0.529  14.320  1.7782  0.0945  1.1486
  427TIP3   OH222695   4.668   3.240  14.994  0.6212  0.2060 -0.8218
  427TIP3    H122696   4.720   3.165  14.965 -0.3677 -0.9108  0.1705
  427TIP3    H222697   4.673   3.303  14.921  0.3010 -1.4164 -2.3079
  428TIP3   OH222698   5.764   2.992   4.193 -0.2653 -0.3438 -0.1231
  428TIP3    H122699   5.745   2.912   4.145 -1.3406  0.3197 -0.8505
  428TIP3    H222700   5.682   3.041   4.191 -0.3638 -0.2842  2.4007
  429TIP3   OH222701   4.691   5.457  13.001  0.1141 -0.7258  0.2408
  429TIP3    H122702   4.633   5.399  13.049 -0.2498 -0.5725 -0.0147
  429TIP3    H222703   4.763   5.475  13.062  0.9324 -2.5223 -0.1462
  430TIP3   OH222704   4.183   6.187   3.316 -0.1809 -0.3124  0.1385
  430TIP3    H122705   4.110   6.248   3.322 -0.1337  0.0390 -2.0378
  430TIP3    H222706   4.142   6.100   3.320 -0.4895 -0.1400  0.8724
  431TIP3   OH222707   6.670   4.296   5.706  0.4901 -0.3372  0.3545
  431TIP3    H122708   6.666   4.371   5.647  2.2297 -0.1093  0.4631
  431TIP3    H222709   6.668   4.220   5.649  1.4105 -0.1358  0.0421
  432TIP3   OH222710   0.626   5.679   5.289 -0.2307  0.4300 -0.2301
  432TIP3    H122711   0.646   5.716   5.203  0.2329 -0.0582 -0.3378
  432TIP3    H222712   0.612   5.756   5.346  1.6721  0.8185 -0.2167
  433TIP3   OH222713   3.279   4.457   4.282  0.7218  0.5456 -0.1765
  433TIP3    H122714   3.317   4.528   4.333  1.2876  0.9204 -1.0881
  433TIP3    H222715   3.337   4.448   4.206  0.4459 -0.6304 -0.2759
  434TIP3   OH222716   3.820   2.433   2.083 -0.0813  0.1443 -0.5674
  434TIP3    H122717   3.724   2.429   2.075 -0.0994  1.3594 -1.1222
  434TIP3    H222718   3.835   2.510   2.138  0.4596 -2.2200  2.9696
  435TIP3   OH222719   4.815   5.056   0.726 -0.8718 -0.1639  0.4744
  435TIP3    H122720   4.804   5.076   0.819  0.3761  0.4617  0.5013
  435TIP3    H222721   4.747   5.107   0.682 -0.4682  0.7652  0.9195
  436TIP3   OH222722   4.053   0.723   3.609  0.6175  0.1810 -0.5850
  436TIP3    H122723   4.034   0.761   3.522 -0.6731 -1.6002 -1.1494
  436TIP3    H222724   3.985   0.656   3.620  2.7579 -1.9504  0.3432
  437TIP3   OH222725   2.798   0.608  12.155 -0.0727 -0.1907  0.1182
  437TIP3    H122726   2.734   0.540  12.135 -0.8939  1.1442 -2.2478
  437TIP3    H222727   2.744   0.683  12.184  0.3409  0.9231 -1.8255
  438TIP3   OH222728   2.022   3.313   3.845  0.2448 -0.0620 -0.0606
  438TIP3    H122729   2.089   3.308   3.914 -0.1573  0.4333  0.3718
  438TIP3    H222730   2.009   3.406   3.832  1.2108 -0.1219 -1.7085
  439TIP3   OH222731   0.166   1.900  14.838  0.4723  0.1315  0.0685
  439TIP3    H122732   0.129   1.872  14.922  0.4979  0.4247  0.1769
  439TIP3    H222733   0.137   1.833  14.776 -1.3090  1.0125 -0.0984
  440TIP3   OH222734   1.383   0.795   0.997 -0.1796  0.8307  0.1009
  440TIP3    H122735   1.445   0.834   0.936  0.1579 -0.9326 -0.7514
  440TIP3    H222736   1.346   0.869   1.045  3.2493  1.9391  1.3412
  441TIP3   OH222737   4.352   5.926   2.038  0.2451 -0.4602  0.0360
  441TIP3    H122738   4.311   5.949   1.954 -0.8534  0.2147  0.7193
  441TIP3    H222739   4.401   5.846   2.020  1.3266  0.5184 -1.6181
  442TIP3   OH222740   0.546   3.590  13.743 -0.5671 -0.3806 -0.2681
  442TIP3    H122741   0.460   3.630  13.728  0.3420  2.1707  0.7570
  442TIP3    H222742   0.608   3.661  13.726  1.1069 -0.7336  3.4658
  443TIP3   OH222743   5.443   0.783  14.999  0.0835 -0.1164 -0.1828
  443TIP3    H122744   5.414   0.807  14.911 -0.8660  1.6762  0.5775
  443TIP3    H222745   5.376   0.721  15.029 -0.2593  0.2036 -0.2749
  444TIP3   OH222746   2.142   0.085   0.376 -0.6926 -0.2863 -0.0138
  444TIP3    H122747   2.142   0.067   0.470  0.1878  0.3288  0.1167
  444TIP3    H222748   2.174   0.005   0.336 -2.2963 -1.0140  0.0932
  445TIP3   OH222749   4.226   2.903   0.127  0.3038  0.5652  0.3455
  445TIP3    H122750   4.206   2.979   0.073 -1.4130 -0.1932 -0.1345
  445TIP3    H222751   4.282   2.848   0.072 -0.5793  0.2859 -0.2786
  446TIP3   OH222752   1.692   1.173   6.407 -0.0102 -0.1977 -0.0393
  446TIP3    H122753   1.720   1.262   6.388  0.6632 -0.2000  0.8974
  446TIP3    H222754   1.771   1.128   6.437 -0.2074 -1.2882 -1.0604
  447TIP3   OH222755   6.711   5.608  13.320  0.5458 -0.9379 -0.1184
  447TIP3    H122756   6.638   5.617  13.259 -0.5328 -1.0444  1.1110
  447TIP3    H222757   6.737   5.516  13.312 -1.1669 -1.5866  1.2684
  448TIP3   OH222758   0.373   0.631   6.450  0.1848 -1.0114  0.2773
  448TIP3    H122759   0.462   0.639   6.486  0.2562 -2.9378  0.6459
  448TIP3    H222760   0.386   0.612   6.358  0.1059 -0.1500  0.0803
  449TIP3   OH222761   2.251   4.277   1.843  0.5031 -0.0813  0.0053
  449TIP3    H122762   2.211   4.269   1.930  0.3117 -0.5066 -0.1199
  449TIP3    H222763   2.295   4.362   1.845  0.8941 -0.2924  0.6806
  450TIP3   OH222764   2.434   3.016   3.049  0.3213 -0.3279  0.1419
  450TIP3    H122765   2.449   2.937   3.101 -1.7282 -0.5237  0.5102
  450TIP3    H222766   2.397   2.984   2.967  1.1324  0.1581 -0.4305
  451TIP3   OH222767   1.324   4.993   2.822 -0.5217 -0.4166  0.2023
  451TIP3    H122768   1.285   4.916   2.781  1.3048 -0.8342 -0.8742
  451TIP3    H222769   1.366   5.040   2.749 -0.8193  1.1344  0.9751
  452TIP3   OH222770   6.538   0.292   2.873  0.6678  0.0609 -0.0466
  452TIP3    H122771   6.629   0.306   2.896  0.4770 -1.0370  1.5428
  452TIP3    H222772   6.513   0.213   2.921 -0.9938  0.1028 -0.7806
  453TIP3   OH222773   0.735   4.218  16.318 -0.1134  0.0828 -0.1868
  453TIP3    H122774   0.801   4.154  16.292 -0.7121 -0.4907 -0.3126
  453TIP3    H222775   0.692   4.243  16.237  0.5670  1.1716 -0.2370
  454TIP3   OH222776   4.472   0.864  15.906 -0.1611 -0.0044 -0.5785
  454TIP3    H122777   4.527   0.790  15.883 -1.2686 -0.8239 -0.6845
  454TIP3    H222778   4.409   0.828  15.968 -0.6531  0.8725 -0.5561
  455TIP3   OH222779   6.019   4.724  13.575 -0.1115 -0.0862  0.2980
  455TIP3    H122780   6.020   4.753  13.484 -0.0398  1.6400  0.8184
  455TIP3    H222781   5.947   4.773  13.615  0.1917 -0.4405  1.3011
  456TIP3   OH222782   2.255   5.035  13.089 -0.2804  0.3007  0.3448
  456TIP3    H122783   2.222   5.100  13.151  1.1018 -0.3439  1.8289
  456TIP3    H222784   2.302   4.972  13.144 -0.0028 -0.9462 -1.2563
  457TIP3   OH222785   6.124   1.272   3.134 -0.0833 -0.1897 -0.3682
  457TIP3    H122786   6.186   1.209   3.098  0.4634 -0.8833  1.6083
  457TIP3    H222787   6.177   1.326   3.193 -0.9753  0.6164 -0.2838
  458TIP3   OH222788   5.921   4.270   4.514 -0.3827 -0.6660  0.0513
  458TIP3    H122789   5.889   4.360   4.511 -0.3241 -0.6279  0.4665
  458TIP3    H222790   6.010   4.277   4.550 -0.3711 -0.8847  0.0717
  459TIP3   OH222791   1.946   2.855  15.342 -0.0033 -0.7551  0.1864
  459TIP3    H122792   1.966   2.894  15.427  1.2964 -1.5264  0.2737
  459TIP3    H222793   2.031   2.851  15.297 -0.9333  1.4450 -1.9672
  460TIP3   OH222794   0.426   6.028  14.347  0.4922 -0.3319  0.8617
  460TIP3    H122795   0.404   6.050  14.438 -0.2551 -0.5367  0.7399
  460TIP3    H222796   0.517   6.000  14.351  0.4870 -0.2800  1.5440
  461TIP3   OH222797   0.689   5.357  15.533  0.4683  0.1947  0.1809
  461TIP3    H122798   0.653   5.334  15.620  0.0199  0.7042  0.1347
  461TIP3    H222799   0.780   5.327  15.537  1.1330  2.2110  1.6468
  462TIP3   OH222800   2.790   0.449  16.449  0.4691  0.4786 -0.4236
  462TIP3    H122801   2.724   0.462  16.381 -2.8874  1.4028  2.6619
  462TIP3    H222802   2.827   0.363  16.432 -1.3813  0.0207 -2.5065
  463TIP3   OH222803   3.679   5.035   0.232  0.5500 -0.2132 -0.0567
  463TIP3    H122804   3.707   4.962   0.178  0.0600 -0.5870  0.1813
  463TIP3    H222805   3.727   5.111   0.198  0.1649 -0.4179 -1.0899
  464TIP3   OH222806   1.324   1.223   2.549  0.0317  0.5538 -0.5761
  464TIP3    H122807   1.337   1.310   2.587 -1.4322  0.5971 -0.1155
  464TIP3    H222808   1.229   1.211   2.548  0.2215 -1.2873 -0.0829
  465TIP3   OH222809   1.904   5.020   4.184  0.1864  0.5051  0.5580
  465TIP3    H122810   1.921   5.049   4.274 -0.5912 -2.9745  2.0235
  465TIP3    H222811   1.990   4.997   4.149  0.4125  1.1602  0.6621
  466TIP3   OH222812   6.277   1.665  15.147  0.0863 -0.8071  0.4493
  466TIP3    H122813   6.267   1.750  15.105  0.0604 -1.6363 -1.3170
  466TIP3    H222814   6.322   1.684  15.230 -0.6864  0.9947  0.4997
  467TIP3   OH222815   0.159   4.359  15.774  0.0119  0.1256 -0.4428
  467TIP3    H122816   0.189   4.426  15.713 -0.7745  0.5689 -0.3593
  467TIP3    H222817   0.166   4.400  15.860  0.8968 -0.4148 -0.2489
  468TIP3   OH222818   2.617   4.259   0.964 -0.3004  0.4788  0.4112
  468TIP3    H122819   2.572   4.227   1.042  2.3314 -0.4821  1.6356
  468TIP3    H222820   2.662   4.339   0.993  2.4669 -1.0380  0.5914
  469TIP3   OH222821   3.268   0.994  11.958  0.3191 -0.1131  0.2049
  469TIP3    H122822   3.364   0.999  11.957  0.3470 -0.2302  1.2267
  469TIP3    H222823   3.249   0.916  12.010 -0.3328 -0.2496 -0.2309
  470TIP3   OH222824   0.962   0.023   6.057  0.1120 -0.1647 -0.2559
  470TIP3    H122825   0.882  -0.008   6.100  0.0282 -1.1310 -1.0658
  470TIP3    H222826   0.932   0.093   5.999 -0.3140 -1.1372 -1.2428
  471TIP3   OH222827   1.097   1.840  14.641 -0.6427 -0.0281 -0.5335
  471TIP3    H122828   1.127   1.828  14.731  0.9501 -1.0312 -1.1461
  471TIP3    H222829   1.094   1.751  14.605 -0.9064  0.3921 -1.5788
  472TIP3   OH222830   1.225   2.708  14.195  0.4683 -0.1917  0.0450
  472TIP3    H122831   1.164   2.694  14.268 -0.7626 -0.5095 -1.0046
  472TIP3    H222832   1.254   2.798  14.205 -0.4136  0.0674  0.4111
  473TIP3   OH222833   5.795   2.967  16.872 -0.7358 -0.0723  0.0200
  473TIP3    H122834   5.767   2.913  16.947 -0.4998  0.6082  0.6122
  473TIP3    H222835   5.883   2.996  16.896 -0.6291  0.0855 -0.5657
  474TIP3   OH222836   2.566   4.939  15.898  0.0758 -0.1064 -0.2486
  474TIP3    H122837   2.548   4.965  15.988  0.6054 -1.5012  0.2937
  474TIP3    H222838   2.627   5.005  15.865  0.8094 -0.2254  0.8270
  475TIP3   OH222839   2.153   3.317  16.733 -0.1607 -0.1559 -0.2020
  475TIP3    H122840   2.151   3.401  16.780 -0.3741  0.6925 -1.6768
  475TIP3    H222841   2.229   3.323  16.676  0.5609 -1.5074  0.5706
  476TIP3   OH222842   5.055   6.381  16.398  0.0389  1.2333  0.0571
  476TIP3    H122843   4.979   6.338  16.438  0.6097  0.0813 -0.0557
  476TIP3    H222844   5.095   6.430  16.469  0.3403  0.2042  0.6168
  477TIP3   OH222845   2.556   2.566   2.924 -0.5594  0.1449 -0.2729
  477TIP3    H122846   2.623   2.566   2.992  0.9749  0.7243 -1.7206
  477TIP3    H222847   2.580   2.494   2.866 -1.2449  0.3192 -0.7897
  478TIP3   OH222848   1.021   2.839   3.584 -0.4670  0.5826  0.0216
  478TIP3    H122849   1.066   2.917   3.553 -1.4894  1.6102  1.0168
  478TIP3    H222850   0.937   2.840   3.538 -0.9783  0.7626  0.9249
  479TIP3   OH222851   6.324   4.926  14.577 -0.1732 -0.4455  0.1118
  479TIP3    H122852   6.344   4.879  14.658 -0.4565  1.9287  1.6846
  479TIP3    H222853   6.395   4.904  14.517  0.1395 -2.1366  1.0550
  480TIP3   OH222854   5.249   2.983   5.652 -0.2772  0.2126 -0.5124
  480TIP3    H122855   5.180   3.014   5.593 -0.4841  2.4813  0.8111
  480TIP3    H222856   5.304   3.060   5.666  2.6814 -1.5445 -1.6198
  481TIP3   OH222857   3.381   3.202  16.619  0.0066 -0.0979  0.1122
  481TIP3    H122858   3.408   3.291  16.639 -0.4684 -0.0679  0.6404
  481TIP3    H222859   3.341   3.208  16.532  1.1979 -0.0549 -0.4586
  482TIP3   OH222860   2.724   4.613  15.025  0.0616 -0.0104 -0.5341
  482TIP3    H122861   2.715   4.527  15.065  0.6442  0.2836  0.2673
  482TIP3    H222862   2.685   4.673  15.089  0.4658  0.4044 -0.6725
  483TIP3   OH222863   4.526   2.631   6.116  0.2730 -0.2057  0.4095
  483TIP3    H122864   4.589   2.583   6.170 -0.9120 -0.5428  1.5657
  483TIP3    H222865   4.443   2.585   6.132 -0.1718 -0.1361 -1.5100
  484TIP3   OH222866   3.845   1.299   1.522 -0.2558  0.4881  0.0515
  484TIP3    H122867   3.822   1.206   1.515 -1.3181  0.8453 -1.9659
  484TIP3    H222868   3.929   1.306   1.477 -0.8676  0.7071 -1.0908
  485TIP3   OH222869   3.130   5.282   5.178 -0.0540 -0.1110 -0.1314
  485TIP3    H122870   3.141   5.198   5.134  2.0246  0.0509 -0.0310
  485TIP3    H222871   3.043   5.311   5.153 -0.6846 -2.1118 -0.4662
  486TIP3   OH222872   4.870   3.301   1.008 -0.1090  0.1017 -0.2146
  486TIP3    H122873   4.849   3.211   0.984  2.1983 -0.5320 -0.0690
  486TIP3    H222874   4.872   3.300   1.104  1.2490 -0.0542 -0.2308
  487TIP3   OH222875   5.797   3.796  13.924  0.3585 -0.2134  0.7540
  487TIP3    H122876   5.817   3.872  13.870  2.1187  0.8358  2.7569
  487TIP3    H222877   5.775   3.727  13.861  0.8503  1.3380 -1.1952
  488TIP3   OH222878   4.372   2.768  11.728  0.0528 -0.7054 -0.3642
  488TIP3    H122879   4.296   2.823  11.745  0.7874  0.8608 -1.9184
  488TIP3    H222880   4.347   2.714  11.654  0.5039 -0.0388 -1.0139
  489TIP3   OH222881   5.935   0.376   0.296 -0.0114  0.1635 -0.0632
  489TIP3    H122882   6.010   0.315   0.293 -0.9979 -1.1329  0.5104
  489TIP3    H222883   5.886   0.356   0.216 -0.1313  0.4993 -0.0721
  490TIP3   OH222884   3.814   5.179   2.410 -0.0631  0.2158 -0.1169
  490TIP3    H122885   3.841   5.087   2.414  0.3531  0.3501  0.2674
  490TIP3    H222886   3.728   5.177   2.369 -0.1815 -0.3705  0.1511
  491TIP3   OH222887   5.083   0.111   4.734 -0.0329  0.1947  0.1836
  491TIP3    H122888   5.151   0.068   4.786 -0.3071  1.0980  1.3340
  491TIP3    H222889   5.056   0.186   4.787  0.2531  1.6432 -1.6119
  492TIP3   OH222890   1.745   3.412   0.055 -0.2694  0.3790 -0.2747
  492TIP3    H122891   1.670   3.365   0.091 -0.1670 -0.1318 -0.7073
  492TIP3    H222892   1.717   3.503   0.052 -0.2390  0.4625  1.1896
  493TIP3   OH222893   6.539   6.169  14.470  0.0563 -0.1605 -0.0923
  493TIP3    H122894   6.548   6.078  14.497  1.9062  0.1376  0.4769
  493TIP3    H222895   6.467   6.203  14.523  0.3829 -0.8962  0.8522
  494TIP3   OH222896   4.171   1.490  13.284 -0.0808  0.4720  0.0404
  494TIP3    H122897   4.077   1.508  13.275  0.1359  1.6080 -0.0803
  494TIP3    H222898   4.213   1.576  13.277  1.0506 -0.1291 -0.9492
  495TIP3   OH222899   1.528   4.147   5.665 -0.1447 -0.6145  0.1433
  495TIP3    H122900   1.519   4.241   5.650 -0.3604 -0.8318 -1.1620
  495TIP3    H222901   1.574   4.114   5.588  1.0398 -1.4006  1.1522
  496TIP3   OH222902   0.055   0.453  13.458  0.0370 -0.4773 -0.2764
  496TIP3    H122903   0.068   0.456  13.553 -0.6168  1.4754 -0.2075
  496TIP3    H222904   0.003   0.374  13.445 -0.9109 -0.1451  1.1634
  497TIP3   OH222905   0.660   0.095   3.033  0.2456 -0.2823 -0.5294
  497TIP3    H122906   0.754   0.099   3.015  0.1366  1.5590 -0.9153
  497TIP3    H222907   0.632   0.186   3.031 -1.3859 -0.7217  0.5369
  498TIP3   OH222908   6.650   2.925  16.066 -0.3320 -0.1450 -0.3944
  498TIP3    H122909   6.606   2.880  15.994  1.0887 -0.0561 -1.3579
  498TIP3    H222910   6.602   3.007  16.076  0.3864  0.5735 -2.3449
  499TIP3   OH222911   5.607   4.618  13.516 -0.3670 -0.5955  0.1201
  499TIP3    H122912   5.613   4.693  13.576  0.0764 -0.8427  0.3919
  499TIP3    H222913   5.643   4.650  13.434 -0.3786 -0.4471  0.1719
  500TIP3   OH222914   2.801   0.379  10.864 -0.0447  0.1005  0.5838
  500TIP3    H122915   2.758   0.425  10.791 -0.0822  0.0243  0.5577
  500TIP3    H222916   2.882   0.346  10.826 -0.9649 -1.6283  0.0387
  501TIP3   OH222917   5.013   0.325  16.654  0.3803  0.0224 -0.1992
  501TIP3    H122918   4.990   0.287  16.739  0.3153 -1.3013 -0.7808
  501TIP3    H222919   4.932   0.320  16.603  0.6150  0.1176 -0.5845
  502TIP3   OH222920   2.304   2.771   6.155 -0.2786 -0.3262 -0.4512
  502TIP3    H122921   2.231   2.781   6.216 -0.0035 -0.9937 -0.0043
  502TIP3    H222922   2.338   2.683   6.172 -0.4173 -0.6723 -1.8117
  503TIP3   OH222923   0.570   3.773   0.990  0.3139  0.6140 -0.3828
  503TIP3    H122924   0.593   3.730   1.072 -0.0204  1.3297  0.1061
  503TIP3    H222925   0.540   3.703   0.933 -0.5341  0.2275  0.5045
  504TIP3   OH222926   3.276   5.539   0.235  0.2399  0.6936 -0.2605
  504TIP3    H122927   3.201   5.500   0.192  0.2433 -0.6057  0.8584
  504TIP3    H222928   3.333   5.465   0.257  0.8159  1.4349  0.8356
  505TIP3   OH222929   0.868   4.738   2.151  0.3191  0.5908 -0.4566
  505TIP3    H122930   0.819   4.780   2.221 -1.1710 -0.5615 -0.7574
  505TIP3    H222931   0.959   4.761   2.168 -0.1080  1.0981  1.3181
  506TIP3   OH222932   0.852   4.562   0.159  0.2581  0.3411  0.2874
  506TIP3    H122933   0.760   4.583   0.139  0.3644 -0.1856 -0.8285
  506TIP3    H222934   0.898   4.578   0.077  1.5617  2.6585  1.3623
  507TIP3   OH222935   5.985   3.088  11.885 -0.3033 -0.0154  0.4910
  507TIP3    H122936   5.958   2.997  11.898  1.4557 -0.8594 -1.1351
  507TIP3    H222937   6.062   3.098  11.941  0.6638 -0.1826 -0.7633
  508TIP3   OH222938   6.280   1.666   3.454  0.1605 -0.3190 -0.1692
  508TIP3    H122939   6.342   1.603   3.492 -0.0189 -1.7882 -2.1184
  508TIP3    H222940   6.235   1.616   3.385  0.1620  2.0078 -1.9972
  509TIP3   OH222941   1.326   5.159   2.293 -0.3455 -0.1698  0.2759
  509TIP3    H122942   1.273   5.197   2.363 -0.6791 -0.0837 -0.0162
  509TIP3    H222943   1.303   5.066   2.293 -0.3331 -0.1727  0.2962
  510TIP3   OH222944   1.229   4.370   6.917 -0.1124 -0.3559  0.0526
  510TIP3    H122945   1.237   4.465   6.916  0.9850 -0.4307  0.3293
  510TIP3    H222946   1.219   4.345   6.826 -1.5939  0.1002  0.0657
  511TIP3   OH222947   2.177   1.402  11.717 -0.0441 -0.5233 -0.1349
  511TIP3    H122948   2.242   1.442  11.659  0.4356 -0.4968  0.4091
  511TIP3    H222949   2.157   1.318  11.675 -1.6928  0.5823 -1.7379
  512TIP3   OH222950   5.470   4.055   1.381  0.4441  0.0685  0.1002
  512TIP3    H122951   5.450   4.023   1.293 -0.9636  1.2917 -0.0760
  512TIP3    H222952   5.495   4.146   1.368  0.1653  0.2815  0.9573
  513TIP3   OH222953   4.195   4.298  15.263 -0.0402  0.6188  0.2369
  513TIP3    H122954   4.283   4.265  15.281  1.4504  3.8827 -0.2933
  513TIP3    H222955   4.138   4.244  15.317  2.3345 -1.2219  1.0870
  514TIP3   OH222956   1.618   3.814   0.809  0.4126  0.6208  0.5862
  514TIP3    H122957   1.714   3.818   0.815  0.4684 -0.9641  1.3323
  514TIP3    H222958   1.588   3.832   0.898  0.1717 -1.4690  0.9763
  515TIP3   OH222959   4.881   4.446   3.611 -0.3196  0.1868  0.3449
  515TIP3    H122960   4.837   4.391   3.676  0.3962 -0.6928  0.0954
  515TIP3    H222961   4.871   4.399   3.529 -0.0569  0.6395  0.0492
  516TIP3   OH222962   3.881   6.499  17.223  0.8343  0.4351  0.3423
  516TIP3    H122963   3.894   6.439  17.296  0.2955  0.6016  0.5796
  516TIP3    H222964   3.929   6.578  17.248 -1.6878  1.5928  1.8850
  517TIP3   OH222965   0.993   5.048   3.177 -0.2140 -0.0309  0.0438
  517TIP3    H122966   1.073   5.047   3.229 -1.0334  0.4303  1.3675
  517TIP3    H222967   0.946   5.127   3.206 -1.0083 -0.1109 -0.9398
  518TIP3   OH222968   3.315   2.536  16.467 -0.4968  0.4551 -0.3035
  518TIP3    H122969   3.389   2.591  16.441 -0.0614  0.4434  0.8175
  518TIP3    H222970   3.346   2.446  16.455 -0.9187  0.4377 -1.3628
  519TIP3   OH222971   4.350   2.330  14.522 -0.1225 -0.3054  0.4743
  519TIP3    H122972   4.291   2.394  14.483  1.7339  0.9432 -0.4560
  519TIP3    H222973   4.363   2.264  14.454  0.9311  0.3965 -0.0387
  520TIP3   OH222974   0.900   2.210  14.918 -0.0320 -0.5099 -0.0801
  520TIP3    H122975   0.980   2.239  14.874 -0.7304  0.9160 -0.4866
  520TIP3    H222976   0.883   2.123  14.883  1.0634 -0.6136 -0.3812
  521TIP3   OH222977   4.021   1.464  12.113  0.0576  0.0501  0.2598
  521TIP3    H122978   4.001   1.373  12.135  1.7787 -0.1244  1.2758
  521TIP3    H222979   3.946   1.513  12.145  0.0232 -0.8120  1.5959
  522TIP3   OH222980   0.943   6.531   2.748 -0.0706  0.3639  0.2833
  522TIP3    H122981   0.938   6.542   2.653  1.5099  0.8992  0.2371
  522TIP3    H222982   0.991   6.448   2.760  0.7363  0.8587  0.5875
  523TIP3   OH222983   5.008   1.448   3.127  0.8841 -0.1769 -0.5244
  523TIP3    H122984   4.966   1.413   3.049 -2.9894  0.5643  1.0027
  523TIP3    H222985   4.940   1.499   3.171  2.9453 -0.1672  3.1087
  524TIP3   OH222986   5.328   4.557  10.811 -0.2074  0.9132 -0.6075
  524TIP3    H122987   5.287   4.476  10.843 -0.8804  1.8323  0.9375
  524TIP3    H222988   5.262   4.595  10.752  0.6391 -0.2785 -2.4226
  525TIP3   OH222989   0.319   3.154  13.502  0.2657  0.3970 -0.2953
  525TIP3    H122990   0.337   3.060  13.501  0.6177  0.4391  0.8351
  525TIP3    H222991   0.397   3.193  13.541 -0.1642  1.0972 -0.1174
  526TIP3   OH222992   5.227   2.952  13.832  0.5124  0.3010 -0.5809
  526TIP3    H122993   5.139   2.952  13.794  1.0909  0.3825 -2.0097
  526TIP3    H222994   5.239   2.864  13.866  0.5647 -0.3317 -2.1389
  527TIP3   OH222995   4.388   3.082   5.172  0.0338  0.1554  0.0540
  527TIP3    H122996   4.337   3.006   5.200 -1.8299  1.6114  0.8095
  527TIP3    H222997   4.478   3.061   5.197 -0.5578 -1.4569  0.9618
  528TIP3   OH222998   3.833   5.643   0.354 -0.2247 -0.1054 -0.5246
  528TIP3    H122999   3.916   5.603   0.326  0.9048  0.3554  1.9302
  528TIP3    H223000   3.846   5.663   0.447 -2.8012  0.7893 -0.2863
  529TIP3   OH223001   3.931   4.229   6.079 -0.1261 -0.8252  0.4172
  529TIP3    H123002   4.020   4.199   6.095  0.3897 -0.2881 -1.2448
  529TIP3    H223003   3.876   4.152   6.091  0.5865 -1.2470  1.0579
  530TIP3   OH223004   4.804   3.416   5.511 -0.0130 -0.2260  0.0157
  530TIP3    H123005   4.729   3.409   5.452  0.2916 -0.5039 -0.3426
  530TIP3    H223006   4.813   3.329   5.551 -1.2348  0.3915  1.7484
  531TIP3   OH223007   3.945   1.732  16.950  0.7885 -0.7521  0.3683
  531TIP3    H123008   3.999   1.702  16.877  0.8559  0.5824 -0.1516
  531TIP3    H223009   3.951   1.828  16.947 -3.7261 -0.2702 -1.4244
  532TIP3   OH223010   4.625   3.081   3.707 -0.7454 -0.0472  0.0352
  532TIP3    H123011   4.678   3.160   3.699 -0.6178 -0.1871 -0.5433
  532TIP3    H223012   4.596   3.062   3.617  0.6001 -1.6011 -0.1298
  533TIP3   OH223013   0.995   1.931  16.443 -0.0844 -0.0272  0.2992
  533TIP3    H123014   1.056   1.938  16.370 -0.1149 -0.9498  0.1782
  533TIP3    H223015   0.972   1.838  16.448 -0.0832  0.0106  1.4804
  534TIP3   OH223016   3.050   6.327   4.849 -0.3665  0.3194 -0.3702
  534TIP3    H123017   2.965   6.293   4.821  0.3544 -1.6140 -0.3327
  534TIP3    H223018   3.037   6.422   4.855 -3.0274 -0.0652  1.3937
  535TIP3   OH223019   6.172   2.016  14.566  0.6365 -0.2974 -0.2723
  535TIP3    H123020   6.239   2.076  14.531  0.6622  0.5319  1.1101
  535TIP3    H223021   6.090   2.046  14.526  0.5938  0.9274  0.6776
  536TIP3   OH223022   5.574   0.547   0.918 -0.4520  0.0734 -0.2264
  536TIP3    H123023   5.650   0.598   0.946 -0.3895 -0.5044  0.6915
  536TIP3    H223024   5.531   0.602   0.853  0.4629  0.6300 -0.3724
  537TIP3   OH223025   4.652   2.820   4.177  0.0068  0.0535  0.4025
  537TIP3    H123026   4.618   2.756   4.115  1.2407 -1.3453  1.1113
  537TIP3    H223027   4.577   2.877   4.197 -1.1626 -1.2385 -0.1557
  538TIP3   OH223028   3.165   6.175  13.470  0.3436  0.3421 -0.2624
  538TIP3    H123029   3.197   6.092  13.505  0.5127 -0.5148 -2.3242
  538TIP3    H223030   3.070   6.166  13.470  0.3906 -0.3731 -1.5964
  539TIP3   OH223031   5.719   0.085   4.048 -0.0273 -0.5376  0.2123
  539TIP3    H123032   5.723   0.166   3.998  0.5303 -1.4101 -1.2006
  539TIP3    H223033   5.802   0.041   4.030 -0.2392 -1.3390  1.1102
  540TIP3   OH223034   4.636   5.626   1.726 -0.1518  0.5930 -0.4970
  540TIP3    H123035   4.663   5.623   1.634 -0.2414 -1.0113 -0.5028
  540TIP3    H223036   4.543   5.647   1.723 -1.0654 -2.9534 -1.0482
  541TIP3   OH223037   6.663   6.251  14.224 -0.1188 -0.5025 -0.0076
  541TIP3    H123038   6.608   6.231  14.300  0.8515  0.4132  0.9699
  541TIP3    H223039   6.629   6.334  14.192  1.3862  0.7132  1.3532
  542TIP3   OH223040   0.875   4.250   2.440 -0.1169  0.4573  0.1513
  542TIP3    H123041   0.953   4.306   2.443 -0.6823  1.2380  2.4278
  542TIP3    H223042   0.819   4.291   2.374  0.9640  0.4510 -0.7989
  543TIP3   OH223043   2.668   0.156   4.973 -0.7141  0.7070 -0.3149
  543TIP3    H123044   2.626   0.074   4.946 -2.5947  1.5458 -0.0688
  543TIP3    H223045   2.596   0.213   4.999  0.6310  2.0622  0.6264
  544TIP3   OH223046   0.405   1.149   4.840  0.1842 -0.0232 -0.1866
  544TIP3    H123047   0.374   1.071   4.793 -3.8563  2.2767 -1.8827
  544TIP3    H223048   0.328   1.180   4.887  1.1785  3.6945 -0.7241
  545TIP3   OH223049   1.552   3.134   2.125  0.0138 -0.2294 -0.0330
  545TIP3    H123050   1.642   3.101   2.123 -0.0034 -0.5109  1.9089
  545TIP3    H223051   1.538   3.160   2.216 -1.5625  0.7325 -0.5043
  546TIP3   OH223052   4.370   6.308   2.435 -0.6867 -0.1221  0.0287
  546TIP3    H123053   4.305   6.373   2.408 -1.6045 -1.3458 -0.8436
  546TIP3    H223054   4.451   6.337   2.393 -0.7761  1.1482  0.7075
  547TIP3   OH223055   1.508   6.598   2.978 -0.2988  0.4870  0.0016
  547TIP3    H123056   1.509   6.631   3.068 -0.6279  0.8681 -0.1320
  547TIP3    H223057   1.534   6.506   2.986  0.9353  0.8499  0.3466
  548TIP3   OH223058   1.706   0.581   0.930  0.1781  0.2124  0.2320
  548TIP3    H123059   1.686   0.592   0.837  1.1751  1.3449  0.1153
  548TIP3    H223060   1.685   0.666   0.969 -0.1319 -0.2203  1.0277
  549TIP3   OH223061   5.565   2.916   5.243  0.2218 -0.0678 -0.3150
  549TIP3    H123062   5.618   2.978   5.292 -0.8865 -0.4543  1.4549
  549TIP3    H223063   5.575   2.833   5.291 -2.0420 -0.1215  0.1757
  550TIP3   OH223064   2.071   4.627   2.134  0.3043  0.2623 -0.1958
  550TIP3    H123065   2.027   4.643   2.051 -1.9292 -1.1063  0.6188
  550TIP3    H223066   2.045   4.700   2.190 -0.8744 -0.4465  0.2253
  551TIP3   OH223067   3.171   3.177   1.409  0.0657 -0.0033 -0.0160
  551TIP3    H123068   3.083   3.151   1.381 -1.3778  3.3398  0.9056
  551TIP3    H223069   3.219   3.095   1.416 -3.0352 -2.0178 -0.3196
  552TIP3   OH223070   2.137   2.782   5.921 -0.1835  0.4847 -0.0108
  552TIP3    H123071   2.209   2.763   5.980  0.1649 -0.6959 -0.7847
  552TIP3    H223072   2.067   2.815   5.978  0.2602 -0.2857  1.0097
  553TIP3   OH223073   0.131   3.268   0.163 -0.1021  0.1068  0.6207
  553TIP3    H123074   0.088   3.318   0.094 -0.7589 -0.1558  0.8234
  553TIP3    H223075   0.154   3.185   0.122  2.4655  1.1349 -0.1715
  554TIP3   OH223076   0.727   3.664  13.396  0.4311  0.3312 -0.1129
  554TIP3    H123077   0.639   3.630  13.383  1.1665 -1.9405  0.4517
  554TIP3    H223078   0.741   3.725  13.323 -1.0668 -0.3523 -1.0079
  555TIP3   OH223079   0.900   0.182   3.691  0.2513 -0.4488 -0.0103
  555TIP3    H123080   0.936   0.096   3.668 -2.8804 -2.6260  2.2859
  555TIP3    H223081   0.825   0.193   3.634  0.4986  0.7207 -0.1353
  556TIP3   OH223082   3.494   5.323  12.411  0.3005 -0.2784  0.1491
  556TIP3    H123083   3.547   5.394  12.374 -0.7671  1.8274  2.4326
  556TIP3    H223084   3.438   5.295  12.338  0.4193  1.5463 -0.7029
  557TIP3   OH223085   2.643   0.328   5.223  0.3458  0.3061 -0.0465
  557TIP3    H123086   2.680   0.267   5.287 -0.1839  0.3313  0.2909
  557TIP3    H223087   2.575   0.276   5.178 -0.0831  0.6297  0.2186
  558TIP3   OH223088   1.420   0.265   4.634 -0.2767 -0.0662  0.1776
  558TIP3    H123089   1.441   0.223   4.717  1.6096  1.7979  0.7134
  558TIP3    H223090   1.365   0.340   4.658 -0.9024 -0.3114 -0.4334
  559TIP3   OH223091   3.413   5.140   4.970  0.0723 -0.0049 -0.1218
  559TIP3    H123092   3.429   5.075   4.902 -0.2203 -1.3112  0.9975
  559TIP3    H223093   3.451   5.101   5.049  0.7327  1.6322  0.3972
  560TIP3   OH223094   6.157   0.852  15.895 -0.6189 -0.0213 -0.1349
  560TIP3    H123095   6.099   0.877  15.822 -0.7435  0.3629  0.0906
  560TIP3    H223096   6.167   0.933  15.945  0.0595 -0.1020 -0.1324
  561TIP3   OH223097   0.044   3.532   0.251  0.1615  0.3274 -0.0789
  561TIP3    H123098   0.116   3.536   0.188  1.5539  0.3684  1.4317
  561TIP3    H223099   0.047   3.443   0.285  0.3256  0.6850  0.8868
  562TIP3   OH223100   1.533   2.110   3.808  0.7175 -0.3881 -0.0676
  562TIP3    H123101   1.559   2.201   3.797 -0.0717 -0.2788 -1.2176
  562TIP3    H223102   1.559   2.068   3.725 -1.4008 -0.5862 -0.6843
  563TIP3   OH223103   2.799   0.223   2.101  0.4021  0.1967  0.5405
  563TIP3    H123104   2.763   0.225   2.013  1.3019  0.7940  0.1662
  563TIP3    H223105   2.728   0.256   2.157  0.2214  0.9490 -0.1174
  564TIP3   OH223106   1.907   6.184   5.171  0.6720  0.1635 -0.0934
  564TIP3    H123107   1.904   6.142   5.257 -2.2280  1.7117  0.7041
  564TIP3    H223108   1.856   6.127   5.114  0.9293  0.1130 -0.2732
  565TIP3   OH223109   2.228   1.410  14.567 -0.2023  0.3012 -0.0151
  565TIP3    H123110   2.175   1.448  14.637 -1.6227  0.4871 -1.1429
  565TIP3    H223111   2.292   1.478  14.545 -0.1824  0.4972  0.6410
  566TIP3   OH223112   6.234   2.515  16.817  0.3826 -0.2916  0.4697
  566TIP3    H123113   6.140   2.532  16.816  0.5499  0.6947 -0.2211
  566TIP3    H223114   6.250   2.471  16.900 -0.3434  1.5792  1.6571
  567TIP3   OH223115   0.830   4.341   6.296  0.1419 -0.1298 -0.0864
  567TIP3    H123116   0.785   4.257   6.283 -0.2066  0.2879 -1.7851
  567TIP3    H223117   0.800   4.396   6.224 -0.7585  1.9804  1.7811
  568TIP3   OH223118   4.825   3.093   0.593 -0.3072  0.2473 -0.4002
  568TIP3    H123119   4.878   3.059   0.520  1.6962 -1.4162  1.6942
  568TIP3    H223120   4.736   3.061   0.574  0.1708 -0.2374 -2.0351
  569TIP3   OH223121   3.056   2.558   4.358  0.0748 -0.8774  0.1486
  569TIP3    H123122   3.064   2.514   4.274 -0.3114  0.1500 -0.4396
  569TIP3    H223123   3.113   2.635   4.351  2.2729 -2.1945  1.8405
  570TIP3   OH223124   3.456   1.880  12.923 -0.4537  0.1464 -0.4617
  570TIP3    H123125   3.365   1.857  12.942 -0.2790  0.4361  0.7757
  570TIP3    H223126   3.508   1.812  12.968 -0.0320  0.8426  0.1264
  571TIP3   OH223127   2.958   5.700   1.239 -0.4269 -0.0509  0.0383
  571TIP3    H123128   2.930   5.731   1.153  0.8828 -0.7078 -0.6462
  571TIP3    H223129   2.954   5.777   1.295 -3.3489 -0.0303 -0.0232
  572TIP3   OH223130   6.617   3.377   0.701  0.0567 -0.3838 -0.3652
  572TIP3    H123131   6.702   3.334   0.688 -0.7137 -1.8938 -0.6876
  572TIP3    H223132   6.557   3.305   0.719 -0.8789  0.7880  1.4608
  573TIP3   OH223133   0.099   5.887  15.786 -0.4871  0.6830 -0.1029
  573TIP3    H123134   0.035   5.878  15.856 -0.0012  1.2849  0.4311
  573TIP3    H223135   0.115   5.798  15.756 -0.6955  0.4215  0.5559
  574TIP3   OH223136   1.001   2.371   0.224 -0.4679 -0.3290 -0.4301
  574TIP3    H123137   1.074   2.395   0.282 -1.1350  0.1098  0.2457
  574TIP3    H223138   1.028   2.289   0.184  0.3108 -0.2736 -0.0305
  575TIP3   OH223139   2.573   1.895  11.128 -0.7323 -0.0361 -0.0180
  575TIP3    H123140   2.527   1.947  11.061 -2.1307 -1.9312 -0.6376
  575TIP3    H223141   2.666   1.910  11.111 -1.0109 -0.7846 -2.7494
  576TIP3   OH223142   5.385   5.780  16.068 -0.4976 -0.1086  0.4526
  576TIP3    H123143   5.322   5.739  16.128 -1.5684  1.5014  0.4959
  576TIP3    H223144   5.453   5.816  16.126 -1.7919  1.8934  0.8243
  577TIP3   OH223145   2.302   4.437  13.133  0.1968 -0.4297 -0.1204
  577TIP3    H123146   2.240   4.474  13.197 -0.0031  0.8607 -1.0185
  577TIP3    H223147   2.379   4.494  13.139  1.5840 -2.3209  1.3642
  578TIP3   OH223148   3.717   0.217   1.239  0.3906  0.1063 -0.2020
  578TIP3    H123149   3.714   0.189   1.331  1.9903  0.5951  0.0331
  578TIP3    H223150   3.737   0.311   1.244 -0.1319  0.2735 -1.0542
  579TIP3   OH223151   4.998   4.178   0.008  0.8807  1.0237  0.3623
  579TIP3    H123152   5.034   4.184   0.096  1.3721  2.8672  0.0772
  579TIP3    H223153   4.984   4.084  -0.006  4.4140  0.2410  0.9943
  580TIP3   OH223154   0.953   3.160  16.381  0.7281 -1.0733 -0.3366
  580TIP3    H123155   0.964   3.141  16.288  1.0774 -0.9687 -0.3189
  580TIP3    H223156   0.973   3.253  16.389  0.7020 -1.0829 -0.1579
  581TIP3   OH223157   5.399   3.630  11.457  0.4238  0.4058  0.0583
  581TIP3    H123158   5.436   3.704  11.410  0.5253  0.3868  0.1062
  581TIP3    H223159   5.472   3.597  11.509  0.2711  0.5204  0.3446
  582TIP3   OH223160   5.484   3.365  12.037 -0.7425 -0.6394 -0.1759
  582TIP3    H123161   5.418   3.380  12.105 -1.0322 -0.6487 -0.4508
  582TIP3    H223162   5.516   3.276  12.054  1.2235  0.3213  1.6615
  583TIP3   OH223163   2.872   5.253  10.698 -0.0619 -0.1784 -0.2905
  583TIP3    H123164   2.944   5.193  10.714  0.2970  0.6244  1.3650
  583TIP3    H223165   2.804   5.199  10.657  0.9991 -1.2256 -0.7051
  584TIP3   OH223166   5.295   1.130   5.383  0.7487 -0.1432  0.0630
  584TIP3    H123167   5.371   1.146   5.328  1.2491  0.7757  0.9978
  584TIP3    H223168   5.263   1.044   5.356  2.9872 -1.2233  0.6336
  585TIP3   OH223169   1.730   0.311  10.820  0.6541  0.2828  0.7112
  585TIP3    H123170   1.649   0.357  10.796  0.6186 -0.3722 -0.5366
  585TIP3    H223171   1.799   0.376  10.808  0.8902 -0.4318 -3.2481
  586TIP3   OH223172   6.199   4.935   4.944 -0.2985 -0.4817  0.0037
  586TIP3    H123173   6.200   5.016   4.891  0.5481 -0.4746  0.0120
  586TIP3    H223174   6.132   4.881   4.902  0.6553 -0.6552 -1.3770
  587TIP3   OH223175   5.498   5.305  13.260 -0.0824  0.0152 -0.0446
  587TIP3    H123176   5.481   5.215  13.234  0.5012  0.1594 -0.9777
  587TIP3    H223177   5.455   5.358  13.192 -1.0182  0.4684  0.8628
  588TIP3   OH223178   5.368   2.114   4.590  0.0391 -0.1638 -0.0185
  588TIP3    H123179   5.406   2.085   4.674 -1.7936 -0.2851  0.8184
  588TIP3    H223180   5.346   2.033   4.545  0.5095 -0.0897 -0.3910
  589TIP3   OH223181   1.984   1.239  12.431  0.2218  0.2676 -0.3135
  589TIP3    H123182   1.963   1.225  12.523 -0.4335  0.4612 -0.4264
  589TIP3    H223183   2.051   1.174  12.410  1.1089  0.8707  0.5618
  590TIP3   OH223184   3.796   5.441  13.461 -0.4538  1.0879  0.2785
  590TIP3    H123185   3.788   5.365  13.403 -1.9089  0.3372  1.3939
  590TIP3    H223186   3.891   5.452  13.473 -0.1908 -0.8701  0.4681
  591TIP3   OH223187   3.032   3.250   3.712 -0.4346  0.5847 -0.7402
  591TIP3    H123188   3.121   3.283   3.719 -0.6463  0.9767  0.3512
  591TIP3    H223189   2.991   3.273   3.796 -1.1968 -0.6575 -0.7384
  592TIP3   OH223190   2.089   5.215   2.792 -0.3106 -0.1659 -0.2327
  592TIP3    H123191   2.111   5.259   2.709 -0.7738 -1.6577 -1.1744
  592TIP3    H223192   1.997   5.192   2.784 -0.8097  1.0653  1.3855
  593TIP3   OH223193   4.838   5.417   4.284  0.3674 -0.0343 -0.0302
  593TIP3    H123194   4.838   5.473   4.361 -0.2857 -0.1669  0.0725
  593TIP3    H223195   4.790   5.468   4.218  0.2470 -0.2433 -0.1046
  594TIP3   OH223196   0.516   5.623   3.043  0.0613  0.9127 -0.1480
  594TIP3    H123197   0.565   5.576   2.975  0.7020  1.2511  0.0802
  594TIP3    H223198   0.481   5.700   2.998  0.3247  1.0363 -0.1424
  595TIP3   OH223199   1.878   5.070  15.873  0.1964  0.0006  0.1314
  595TIP3    H123200   1.942   5.024  15.928  0.9084 -0.8664 -1.3474
  595TIP3    H223201   1.826   5.000  15.833 -1.7256  0.6937  1.3087
  596TIP3   OH223202   3.119   1.304   1.988  0.2451 -0.5430 -0.6113
  596TIP3    H123203   3.136   1.398   1.983 -1.6966 -0.1707 -1.3046
  596TIP3    H223204   3.205   1.264   1.987  1.1532  1.2588  0.6113
  597TIP3   OH223205   4.732   6.304  14.212  0.1500  0.3977  0.1413
  597TIP3    H123206   4.701   6.394  14.199 -0.0078  0.4932  1.0967
  597TIP3    H223207   4.807   6.313  14.271 -0.8519 -0.2116  1.5648
  598TIP3   OH223208   3.032   2.696  14.292 -0.0479 -0.0438 -0.3848
  598TIP3    H123209   3.064   2.770  14.242 -2.1196  0.4282 -1.0989
  598TIP3    H223210   3.076   2.620  14.254  1.6874  0.6959  0.0091
  599TIP3   OH223211   0.249   2.709   0.556  0.2288  0.0645  0.1909
  599TIP3    H123212   0.335   2.723   0.517  1.0774 -0.4244  1.7813
  599TIP3    H223213   0.202   2.654   0.492  1.8364 -1.3693  0.1677
  600TIP3   OH223214   3.150   1.662  13.865  1.2788  0.3275 -0.6748
  600TIP3    H123215   3.157   1.567  13.859  0.4336  0.3476 -2.6861
  600TIP3    H223216   3.223   1.688  13.921  0.6672 -1.5909  1.1518
  601TIP3   OH223217   3.764   1.752   4.929  0.3539 -0.2850  0.1364
  601TIP3    H123218   3.737   1.843   4.920  1.1133  0.3617  3.2896
  601TIP3    H223219   3.849   1.747   4.885  0.7179  0.7705  0.6885
  602TIP3   OH223220   0.845   0.539  16.619  0.5590  0.1970 -0.4663
  602TIP3    H123221   0.887   0.542  16.705 -1.2966 -0.3312  0.5004
  602TIP3    H223222   0.752   0.529  16.637 -0.1299  2.0504 -2.5173
  603TIP3   OH223223   0.376   2.942  14.240 -0.2836 -0.1678 -0.1664
  603TIP3    H123224   0.452   2.929  14.296  0.1561 -1.6309 -1.0409
  603TIP3    H223225   0.394   2.889  14.162 -0.7333  2.0180 -1.8600
  604TIP3   OH223226   3.313   2.536   0.725 -0.3163  0.2191 -0.5311
  604TIP3    H123227   3.246   2.470   0.738 -1.5195  1.8773  2.5219
  604TIP3    H223228   3.396   2.488   0.730 -1.1047 -0.9963  2.8209
  605TIP3   OH223229   2.922   5.865  16.426 -0.3461  0.2966 -0.1083
  605TIP3    H123230   2.896   5.919  16.500 -1.2281  1.7079 -1.3633
  605TIP3    H223231   3.009   5.895  16.403  0.2248 -0.6338  0.7485
  606TIP3   OH223232   1.658   0.772   5.711 -0.1839 -0.1228 -0.5208
  606TIP3    H123233   1.623   0.752   5.797 -0.7600 -1.3134 -1.0142
  606TIP3    H223234   1.741   0.726   5.707  0.1113  0.3850 -0.4133
  607TIP3   OH223235   2.618   6.085  16.727 -0.5418  0.1324  0.5572
  607TIP3    H123236   2.643   6.071  16.819 -1.4830 -1.1667  0.6404
  607TIP3    H223237   2.525   6.108  16.731 -0.4705  0.5449 -0.0502
  608TIP3   OH223238   0.955   6.061   0.022 -0.5351  0.1555 -0.0495
  608TIP3    H123239   0.910   6.022  -0.053  0.4699  0.2611 -0.7287
  608TIP3    H223240   0.962   6.154   0.001 -0.7908  0.2927  0.4602
  609TIP3   OH223241   4.698   6.674   5.903 -0.8353  0.4823  0.2961
  609TIP3    H123242   4.784   6.694   5.866 -0.7645  0.5067  0.4735
  609TIP3    H223243   4.714   6.663   5.997 -0.6321 -1.6568  0.0692
  610TIP3   OH223244   3.431   6.600  17.128  0.1336  0.1902  0.0592
  610TIP3    H123245   3.483   6.679  17.138  0.4401 -0.2365  2.0656
  610TIP3    H223246   3.449   6.548  17.206 -3.4213  0.1120  1.0333
  611TIP3   OH223247   3.319   1.679   4.053  0.3638  0.1196 -0.1509
  611TIP3    H123248   3.314   1.584   4.070 -1.9700  0.0826 -0.7437
  611TIP3    H223249   3.348   1.685   3.962 -0.4910 -0.0746 -0.4450
  612TIP3   OH223250   0.706   2.189   2.963 -0.1787  0.1024  0.5559
  612TIP3    H123251   0.667   2.169   3.048 -1.0818 -0.0803  0.1095
  612TIP3    H223252   0.637   2.235   2.915 -0.2376 -1.1605 -0.6268
  613TIP3   OH223253   3.456   3.132   5.402  0.1773 -0.4550 -0.5824
  613TIP3    H123254   3.480   3.050   5.358  0.0025  0.0025 -1.5755
  613TIP3    H223255   3.362   3.140   5.386  0.0551 -0.4143  0.1341
  614TIP3   OH223256   0.787   4.987   3.736 -0.5021 -0.1039  0.2230
  614TIP3    H123257   0.728   4.914   3.753 -1.2951  0.6551  0.8686
  614TIP3    H223258   0.729   5.063   3.726  0.2547  0.3496 -1.0240
  615TIP3   OH223259   0.105   5.390  12.364  0.2525 -0.1660 -0.0420
  615TIP3    H123260   0.093   5.473  12.411  0.3892  0.1666 -0.5947
  615TIP3    H223261   0.159   5.337  12.424 -1.6789 -0.7070  1.3029
  616TIP3   OH223262   2.579   2.854   2.783 -0.3970  0.6346 -0.8639
  616TIP3    H123263   2.574   2.839   2.689  1.6318  2.5817 -1.3592
  616TIP3    H223264   2.656   2.806   2.811 -2.5804 -2.4439  0.5083
  617TIP3   OH223265   2.839   6.697   6.301 -1.0508  0.5128 -0.9883
  617TIP3    H123266   2.762   6.696   6.245 -1.4598 -4.2415 -0.7437
  617TIP3    H223267   2.913   6.684   6.240 -0.7205  1.7756 -0.8987
  618TIP3   OH223268   5.142   2.667   6.003  0.1218 -0.0913  0.1540
  618TIP3    H123269   5.183   2.729   6.063 -0.0795  0.3374 -0.1497
  618TIP3    H223270   5.051   2.663   6.032 -0.0152  0.2414 -0.2199
  619TIP3   OH223271   1.440   1.468   1.208  0.1474  0.8581  0.0037
  619TIP3    H123272   1.513   1.432   1.158 -1.4288 -1.4743 -0.8021
  619TIP3    H223273   1.401   1.533   1.150  0.2180  0.4161 -0.5525
  620TIP3   OH223274   0.663   0.239   0.551 -0.6049  0.6783 -0.0966
  620TIP3    H123275   0.722   0.198   0.614 -1.1759 -0.2315 -0.1196
  620TIP3    H223276   0.630   0.317   0.595  1.2335  1.6715 -0.4098
  621TIP3   OH223277   5.144   0.734   0.716 -0.0538  0.1089  0.1085
  621TIP3    H123278   5.111   0.682   0.789  0.0711  0.7724  0.6534
  621TIP3    H223279   5.066   0.758   0.667 -0.1185 -0.5169 -0.0968
  622TIP3   OH223280   5.603   0.157   4.572 -0.0777  0.3762 -0.4973
  622TIP3    H123281   5.681   0.133   4.522  0.2427 -1.4272  0.7858
  622TIP3    H223282   5.544   0.195   4.507  1.2786  0.3850 -1.7675
  623TIP3   OH223283   6.528   3.620   0.754 -0.5383  0.5063  0.5095
  623TIP3    H123284   6.553   3.528   0.746 -0.3637  0.6229 -0.3319
  623TIP3    H223285   6.503   3.646   0.665 -1.1476  1.1133  0.8452
  624TIP3   OH223286   6.134   2.398   0.065  0.0974 -0.1243 -0.1422
  624TIP3    H123287   6.094   2.312   0.071  1.1777 -0.6896 -0.6782
  624TIP3    H223288   6.079   2.447   0.004 -2.6521  0.8589  2.8419
  625TIP3   OH223289   2.179   6.779  10.984 -0.1918 -0.4430 -0.3885
  625TIP3    H123290   2.137   6.851  10.937 -0.3539 -0.5131 -0.3519
  625TIP3    H223291   2.189   6.710  10.918 -0.8322 -0.7103 -0.2162
  626TIP3   OH223292   5.319   0.439   3.114  0.6083 -0.0379 -0.0852
  626TIP3    H123293   5.352   0.352   3.091  1.1235  0.4651 -1.3434
  626TIP3    H223294   5.224   0.431   3.106  0.4387 -1.0812  2.0817
  627TIP3   OH223295   5.092   3.716   3.446 -0.0943 -0.1995  0.1960
  627TIP3    H123296   5.139   3.673   3.517 -1.4373 -0.8451  0.7266
  627TIP3    H223297   5.017   3.660   3.430 -0.6514  0.7664 -0.6642
  628TIP3   OH223298   6.086   2.125  17.040 -0.2564 -0.0264  0.1799
  628TIP3    H123299   6.027   2.122  17.115 -1.3697  1.8750 -0.5535
  628TIP3    H223300   6.030   2.106  16.965  0.0873  1.5068 -0.4978
  629TIP3   OH223301   1.383   0.257  12.320 -0.8986 -0.1432  0.3842
  629TIP3    H123302   1.377   0.176  12.370 -2.7103 -0.7924 -0.7733
  629TIP3    H223303   1.296   0.267  12.280  0.3731  0.3745 -2.5228
  630TIP3   OH223304   5.382   2.200  16.985  0.1926  0.3300 -0.3050
  630TIP3    H123305   5.339   2.165  17.063 -0.8751 -0.4323 -1.2075
  630TIP3    H223306   5.316   2.196  16.917  0.3413  3.2110 -0.7440
  631TIP3   OH223307   3.256   5.447  14.210 -0.6113 -0.2867  0.3236
  631TIP3    H123308   3.307   5.375  14.248 -0.3768  0.7763  2.1641
  631TIP3    H223309   3.318   5.519  14.200 -0.7925 -0.3509 -1.7108
  632TIP3   OH223310   0.247   1.770  13.755 -0.2445  0.1348 -0.1072
  632TIP3    H123311   0.260   1.835  13.686 -1.2034 -0.9955 -1.4088
  632TIP3    H223312   0.331   1.724  13.760 -0.6188 -0.8150 -1.6965
  633TIP3   OH223313   4.588   5.200   2.225  0.0062  0.0445 -0.5306
  633TIP3    H123314   4.591   5.234   2.136  0.9215  2.5184  0.3416
  633TIP3    H223315   4.548   5.271   2.276  0.7070 -0.7620  1.2359
  634TIP3   OH223316   6.160   5.966  13.415  0.1060 -0.5816  0.0005
  634TIP3    H123317   6.130   5.908  13.345 -2.0204  1.3756 -0.8321
  634TIP3    H223318   6.086   5.973  13.475 -0.1145  2.0068 -0.4624
  635TIP3   OH223319   6.376   4.194  13.603 -0.6352 -0.3131  0.1973
  635TIP3    H123320   6.330   4.276  13.588  0.2871  0.2122  0.1411
  635TIP3    H223321   6.307   4.128  13.610 -1.3853  0.4647  0.2527
  636TIP3   OH223322   3.370   6.268   5.683  0.0862  0.1037 -0.2189
  636TIP3    H123323   3.344   6.282   5.592 -0.7349  0.5947  0.0792
  636TIP3    H223324   3.426   6.191   5.680 -0.8202 -0.5530 -1.0054
  637TIP3   OH223325   0.168   1.173   4.407 -0.2679 -0.4907 -0.5837
  637TIP3    H123326   0.146   1.264   4.426 -0.1507 -0.6993  0.6164
  637TIP3    H223327   0.113   1.151   4.331  0.1776  0.7537 -1.2972
  638TIP3   OH223328   4.457   2.849   5.970  0.5162 -0.5594  0.1148
  638TIP3    H123329   4.492   2.787   6.034  1.1730 -0.5561 -0.2354
  638TIP3    H223330   4.501   2.827   5.888  1.4544  0.9568  0.1777
  639TIP3   OH223331   2.599   2.373  15.315  0.6135 -0.0547 -0.3187
  639TIP3    H123332   2.533   2.319  15.271  0.2690  1.4041 -1.6781
  639TIP3    H223333   2.559   2.460  15.322  2.2184  0.7742 -0.8275
  640TIP3   OH223334   0.608   4.170  15.820  0.6584 -0.2409 -0.1094
  640TIP3    H123335   0.651   4.218  15.891 -1.7382  0.6056  0.8975
  640TIP3    H223336   0.664   4.094  15.805  2.3163  0.6375  1.2534
  641TIP3   OH223337   4.277   0.109   3.351 -0.1581  0.1729  0.0630
  641TIP3    H123338   4.332   0.033   3.372  1.8188  1.8933  1.5719
  641TIP3    H223339   4.328   0.158   3.287 -1.7771 -0.1256 -1.5083
  642TIP3   OH223340   4.640   2.490   3.012 -0.2595 -0.7806 -0.3980
  642TIP3    H123341   4.653   2.472   2.919 -3.9391 -0.6871 -1.0999
  642TIP3    H223342   4.580   2.565   3.013  0.0941 -0.4570  2.0839
  643TIP3   OH223343   2.291   5.639   1.429  0.3862  0.0654  0.2948
  643TIP3    H123344   2.208   5.688   1.431 -0.2701 -0.7840 -2.4788
  643TIP3    H223345   2.266   5.551   1.458  0.4416 -0.0450  0.0021
  644TIP3   OH223346   2.873   4.779   4.709 -0.0285  0.0139 -0.2040
  644TIP3    H123347   2.892   4.873   4.712 -1.8671  0.5401 -2.2690
  644TIP3    H223348   2.829   4.761   4.792 -0.2472  1.1244 -0.0617
  645TIP3   OH223349   2.931   6.057   2.432  0.7739 -0.2519 -0.1399
  645TIP3    H123350   2.993   5.986   2.415 -2.0190 -2.9832  0.3625
  645TIP3    H223351   2.901   6.084   2.345  1.7731  0.3094 -0.3266
  646TIP3   OH223352   4.227   2.010   0.698  0.2575 -0.6756 -0.0677
  646TIP3    H123353   4.286   2.012   0.622  0.2285  0.0744 -0.0866
  646TIP3    H223354   4.242   2.095   0.740  0.8974 -1.4233  1.2482
  647TIP3   OH223355   5.134   3.229   0.020  0.1852  0.2646  0.2650
  647TIP3    H123356   5.068   3.298   0.021  1.5948  1.6862 -0.5916
  647TIP3    H223357   5.096   3.158   0.072 -0.9065  2.0702  2.0307
  648TIP3   OH223358   0.423   5.583   6.700  0.0454 -0.0678  0.1451
  648TIP3    H123359   0.408   5.668   6.740  2.1444  0.0763  0.7948
  648TIP3    H223360   0.390   5.520   6.765  0.7499  0.2317  0.8140
  649TIP3   OH223361   2.889   0.351   0.224  0.1323  0.2663 -0.5241
  649TIP3    H123362   2.951   0.307   0.166  0.1064 -1.4702  0.7021
  649TIP3    H223363   2.923   0.335   0.312 -1.3690  0.3770  0.0979
  650TIP3   OH223364   5.179   2.817  12.658 -0.8863 -0.2815  0.4668
  650TIP3    H123365   5.263   2.818  12.612 -0.2009  3.5018  1.4806
  650TIP3    H223366   5.114   2.811  12.589  0.1696  0.5210 -0.6424
  651TIP3   OH223367   1.279   3.854  17.094  0.1807  0.2835  0.1156
  651TIP3    H123368   1.344   3.925  17.094  0.4971  0.0048 -0.4455
  651TIP3    H223369   1.312   3.792  17.159 -0.7296  1.2053  1.4740
  652TIP3   OH223370   2.962   3.803   0.329 -0.0171  0.1005 -0.1148
  652TIP3    H123371   3.047   3.796   0.285 -0.2872 -0.7826 -0.5283
  652TIP3    H223372   2.977   3.768   0.417  0.1238  0.2379 -0.0848
  653TIP3   OH223373   6.704   0.839  11.641  0.2003  0.3171  0.5069
  653TIP3    H123374   6.707   0.919  11.588  0.0765 -0.1524 -0.2260
  653TIP3    H223375   6.644   0.781  11.593  1.1911 -0.6538  0.4046
  654TIP3   OH223376   3.562   1.004   3.320 -0.0883  0.6812 -0.3036
  654TIP3    H123377   3.616   0.927   3.339  0.5791  1.1176 -0.3948
  654TIP3    H223378   3.479   0.967   3.289 -0.4544 -0.0200  1.3891
  655TIP3   OH223379   3.828   3.383   4.563 -0.2480 -0.5662  0.4073
  655TIP3    H123380   3.801   3.457   4.618  2.5953 -0.3825  1.7330
  655TIP3    H223381   3.781   3.396   4.481 -0.3325  2.3863  0.8096
  656TIP3   OH223382   4.894   5.946  15.372 -0.0002  0.6463  0.0444
  656TIP3    H123383   4.894   5.924  15.465  0.3636 -1.5492 -0.4175
  656TIP3    H223384   4.944   6.028  15.366 -0.9867  1.4243  1.8725
  657TIP3   OH223385   3.546   6.688   1.314  0.5436  0.2542  1.2786
  657TIP3    H123386   3.620   6.644   1.355  1.5216 -2.0612 -2.4509
  657TIP3    H223387   3.572   6.698   1.223 -2.5927  2.1645  0.4383
  658TIP3   OH223388   5.313   3.666   3.106  0.0693 -0.1692  0.1616
  658TIP3    H123389   5.300   3.607   3.031 -3.4301  1.8413 -1.0307
  658TIP3    H223390   5.404   3.693   3.099  0.1539 -0.8288 -2.8087
  659TIP3   OH223391   5.220   1.796  15.510  0.3720  0.3685 -0.1307
  659TIP3    H123392   5.144   1.821  15.458 -0.1181  0.9492  0.8349
  659TIP3    H223393   5.279   1.872  15.503  0.3016  0.4524  0.1435
  660TIP3   OH223394   1.953   5.093  12.404  0.2755 -0.2853  0.5814
  660TIP3    H123395   2.038   5.053  12.424  0.3521 -0.1731  0.4843
  660TIP3    H223396   1.954   5.105  12.309 -0.3465 -1.3995  0.4232
  661TIP3   OH223397   0.686   1.360  14.185  0.0655 -0.6229 -0.5828
  661TIP3    H123398   0.750   1.305  14.229 -1.1136 -2.2236 -0.7462
  661TIP3    H223399   0.620   1.379  14.252  0.6487  0.9587 -0.4235
  662TIP3   OH223400   0.716   6.186   5.280 -0.2249  0.2174 -0.2981
  662TIP3    H123401   0.776   6.114   5.300 -0.7850 -0.4230 -0.8700
  662TIP3    H223402   0.739   6.255   5.343  0.8061 -0.1801 -0.2224
  663TIP3   OH223403   5.240   5.875  10.308  0.2747  0.7625  0.6321
  663TIP3    H123404   5.330   5.857  10.334  0.4133 -0.9645 -0.8427
  663TIP3    H223405   5.240   5.968  10.285  1.6734  0.7884  0.6576
  664TIP3   OH223406   2.478   3.556  14.060 -0.2152 -0.3515  0.3642
  664TIP3    H123407   2.390   3.584  14.035 -0.9876 -3.1810 -0.5120
  664TIP3    H223408   2.533   3.633  14.048 -2.5137  1.4699  0.7861
  665TIP3   OH223409   1.272   0.257   0.158  0.6578 -0.3378  0.5878
  665TIP3    H123410   1.215   0.207   0.100  1.6490 -2.0123  0.9854
  665TIP3    H223411   1.233   0.345   0.160 -1.4566 -1.1928  0.2635
  666TIP3   OH223412   6.373   2.009  15.747 -0.1935 -0.1474  0.0776
  666TIP3    H123413   6.303   2.063  15.709 -0.0679  0.9722  1.3658
  666TIP3    H223414   6.414   2.065  15.812  1.1365 -1.2094  0.1959
  667TIP3   OH223415   2.376   0.780   1.535 -0.2483 -0.2447  0.3368
  667TIP3    H123416   2.459   0.786   1.581 -0.8426  0.1536  1.3996
  667TIP3    H223417   2.396   0.733   1.454  1.3117  1.2120 -0.1839
  668TIP3   OH223418   3.822   2.809  12.146 -0.3474 -0.6050 -0.1637
  668TIP3    H123419   3.848   2.839  12.059 -0.8550 -1.3314 -0.5731
  668TIP3    H223420   3.734   2.775  12.134 -0.5181 -0.4773  0.6920
  669TIP3   OH223421   5.024   3.046   5.529  0.0158  0.3367  0.0198
  669TIP3    H123422   4.937   3.008   5.539  0.2028 -0.7232 -1.7904
  669TIP3    H223423   5.036   3.052   5.434  2.7483 -1.6654  0.1177
  670TIP3   OH223424   6.721   5.983   3.808  0.1630 -0.2524 -0.5680
  670TIP3    H123425   6.671   6.015   3.883 -1.0552 -0.7558 -1.1354
  670TIP3    H223426   6.732   6.060   3.752  3.2353  0.7260  1.2060
  671TIP3   OH223427   1.399   2.260   3.353 -0.1284 -0.4160  0.6920
  671TIP3    H123428   1.431   2.212   3.277  1.7348  0.5498  0.8176
  671TIP3    H223429   1.461   2.238   3.423 -0.4934  0.4780  1.3176
  672TIP3   OH223430   0.394   3.711   3.332  0.6961 -0.4920 -0.6130
  672TIP3    H123431   0.323   3.768   3.303  0.7404  0.1688  0.5158
  672TIP3    H223432   0.416   3.659   3.255 -0.1847  0.1511 -1.3196
  673TIP3   OH223433   5.943   6.341   2.898  0.3812 -0.0220  0.4281
  673TIP3    H123434   5.850   6.321   2.884  0.5899 -0.1137 -1.0046
  673TIP3    H223435   5.950   6.436   2.887  0.4943 -0.0514  0.2248
  674TIP3   OH223436   2.152   4.097   1.524 -0.4592 -0.3275  0.2481
  674TIP3    H123437   2.089   4.084   1.595 -2.3631 -0.7452 -1.4314
  674TIP3    H223438   2.123   4.037   1.455 -0.3949  2.0124 -1.9482
  675TIP3   OH223439   6.495   3.869  11.420  0.3689  0.2254  0.2920
  675TIP3    H123440   6.502   3.811  11.496  0.9803  0.4569  0.4166
  675TIP3    H223441   6.439   3.941  11.450 -1.7088 -1.0190 -0.3278
  676TIP3   OH223442   2.004   2.699  14.809  0.3555 -0.0373  0.5341
  676TIP3    H123443   2.049   2.730  14.888 -1.1501  0.2088  1.3305
  676TIP3    H223444   1.996   2.776  14.753  0.7708 -0.0492  0.4547
  677TIP3   OH223445   4.294   3.307   2.748 -0.2902  0.1341 -0.0803
  677TIP3    H123446   4.307   3.401   2.762  1.4943 -0.1945  0.7052
  677TIP3    H223447   4.293   3.297   2.653  1.9519  0.6764 -0.2105
  678TIP3   OH223448   1.483   1.065  10.569  0.0131  0.3186 -0.3212
  678TIP3    H123449   1.554   1.010  10.601  0.4941  1.1084  0.0069
  678TIP3    H223450   1.403   1.015  10.589  0.4896 -0.8360 -1.2189
  679TIP3   OH223451   3.023   4.423   3.651  0.3402  0.1524 -0.8457
  679TIP3    H123452   3.106   4.469   3.657  0.1291  0.3611  1.4115
  679TIP3    H223453   3.046   4.330   3.660  0.2352  0.3308  2.4006
  680TIP3   OH223454   6.339   2.296   2.940 -0.0713 -1.1779 -0.0769
  680TIP3    H123455   6.304   2.353   3.009  0.1888  1.2204 -1.8123
  680TIP3    H223456   6.265   2.281   2.881  0.3554 -0.9774 -0.6703
  681TIP3   OH223457   1.991   4.507  14.000  0.1508 -0.4448  0.4765
  681TIP3    H123458   1.942   4.470  13.927  1.6207 -0.1975 -0.6743
  681TIP3    H223459   1.957   4.596  14.010  0.3012 -0.3035 -0.2444
  682TIP3   OH223460   3.079   6.198  16.059 -0.5593 -0.1972  0.4927
  682TIP3    H123461   3.001   6.185  16.114 -1.0939  1.8474  0.3038
  682TIP3    H223462   3.151   6.207  16.122 -0.6485 -0.9529  0.7121
  683TIP3   OH223463   4.528   1.131   4.204 -0.3970 -0.5285 -0.2753
  683TIP3    H123464   4.476   1.051   4.204  0.6884 -1.2457 -0.4996
  683TIP3    H223465   4.618   1.102   4.189 -0.1563  0.8453 -1.7626
  684TIP3   OH223466   1.601   0.667   4.898 -0.2277  1.3274  0.3416
  684TIP3    H123467   1.609   0.749   4.850 -1.6767  0.0184 -2.4396
  684TIP3    H223468   1.507   0.658   4.914  0.1618  1.4329  3.0842
  685TIP3   OH223469   2.983   1.781   3.003 -0.1091 -0.5205 -0.0860
  685TIP3    H123470   3.038   1.755   3.077 -0.5653 -0.7240  0.1920
  685TIP3    H223471   2.926   1.849   3.040  0.7118  0.5012 -0.6615
  686TIP3   OH223472   4.853   6.638   2.601  0.2673 -0.1775  0.3227
  686TIP3    H123473   4.858   6.642   2.506 -0.9861  3.0314  0.2758
  686TIP3    H223474   4.788   6.570   2.619 -1.5583  1.0303 -1.2980
  687TIP3   OH223475   1.347   2.141   0.114  0.4097  0.1137  0.5557
  687TIP3    H123476   1.278   2.107   0.171 -0.8048  0.9492 -0.3647
  687TIP3    H223477   1.375   2.223   0.156  0.4354  0.0681  0.6278
  688TIP3   OH223478   1.257   4.018   0.644 -0.2336 -0.2445  0.3087
  688TIP3    H123479   1.184   4.032   0.583  0.2539 -0.7415 -0.4037
  688TIP3    H223480   1.275   3.924   0.638  0.0476 -0.2431  0.9745
  689TIP3   OH223481   2.508   2.906   0.418  0.2501  0.0898  0.0160
  689TIP3    H123482   2.528   2.890   0.326  1.0557  2.1899 -0.2404
  689TIP3    H223483   2.416   2.933   0.419  0.0897 -0.4418 -0.0888
  690TIP3   OH223484   5.857   4.812  14.100  0.3691 -0.4935  0.8554
  690TIP3    H123485   5.835   4.838  14.190 -2.9304  4.4987 -0.9885
  690TIP3    H223486   5.772   4.791  14.060  1.4500 -0.4001 -1.6503
  691TIP3   OH223487   4.978   6.461   0.564 -0.4368 -0.0748 -0.1613
  691TIP3    H123488   5.049   6.502   0.613 -1.0519  0.5507  0.2250
  691TIP3    H223489   4.957   6.524   0.495 -0.8036 -0.1326 -0.1041
  692TIP3   OH223490   4.115   1.340   1.477 -0.1955 -0.0297 -0.0356
  692TIP3    H123491   4.174   1.285   1.426  3.3107  3.1197  0.1837
  692TIP3    H223492   4.133   1.316   1.568  0.2056  0.3613 -0.0049
  693TIP3   OH223493   6.653   3.051  12.467 -0.1601  0.3894 -0.3763
  693TIP3    H123494   6.641   3.131  12.518 -1.1414  0.3321 -0.5041
  693TIP3    H223495   6.567   3.008  12.469  0.3733 -0.7007 -0.2399
  694TIP3   OH223496   0.555   6.630  12.371 -0.4214  0.3485 -0.2497
  694TIP3    H123497   0.646   6.637  12.402 -0.4443  2.3949 -0.4616
  694TIP3    H223498   0.532   6.538  12.382  2.0255 -0.4425 -1.1643
  695TIP3   OH223499   2.095   6.305   0.304 -0.4814  0.1017 -0.7369
  695TIP3    H123500   2.011   6.263   0.287  0.3962 -2.1598  0.0279
  695TIP3    H223501   2.101   6.309   0.399  0.2933  0.1583 -0.7788
  696TIP3   OH223502   0.470   1.746  12.437 -0.1564  0.2984  0.1217
  696TIP3    H123503   0.449   1.659  12.405 -0.5213  0.4348 -0.0124
  696TIP3    H223504   0.468   1.801  12.359 -0.8683  0.5983  0.3413
  697TIP3   OH223505   6.111   5.843  11.975  0.8694  0.6639 -0.8113
  697TIP3    H123506   6.150   5.783  12.038 -1.0719  0.9867  0.8032
  697TIP3    H223507   6.164   5.923  11.982 -0.9055  1.7646  2.7079
  698TIP3   OH223508   2.445   5.313   1.819  0.0838  0.4421 -0.6440
  698TIP3    H123509   2.389   5.371   1.767 -0.8914  1.1151  1.0655
  698TIP3    H223510   2.448   5.354   1.906  2.5881 -0.0096 -0.4312
  699TIP3   OH223511   4.749   1.153  12.087 -0.2672 -0.5212 -0.0310
  699TIP3    H123512   4.743   1.208  12.165 -0.9603 -0.6502  0.0138
  699TIP3    H223513   4.698   1.075  12.108 -1.5333 -0.0083 -1.0621
  700TIP3   OH223514   4.257   0.391   2.337  0.2836 -1.2577 -0.0247
  700TIP3    H123515   4.234   0.480   2.307  0.3898 -0.9461  0.7906
  700TIP3    H223516   4.294   0.349   2.260 -1.5119 -1.2296 -0.9503
  701TIP3   OH223517   6.126   4.099   2.849 -0.6931  0.4789  0.0074
  701TIP3    H123518   6.127   4.005   2.836 -0.5416  0.4890 -0.0614
  701TIP3    H223519   6.071   4.133   2.779  0.2143  0.5435 -0.6977
  702TIP3   OH223520   3.080   3.453  16.536 -0.1264  0.4202  0.4677
  702TIP3    H123521   3.079   3.364  16.501 -1.0806  1.0468 -1.1977
  702TIP3    H223522   3.169   3.465  16.570  0.4538 -0.6626 -0.6199
  703TIP3   OH223523   4.842   4.741   4.148 -0.0157 -0.2686 -0.4011
  703TIP3    H123524   4.896   4.752   4.227 -0.4516 -0.7297 -0.0245
  703TIP3    H223525   4.871   4.809   4.089  0.4443 -0.0214  0.0999
  704TIP3   OH223526   4.831   4.825  17.159  0.2490 -0.1644  0.1045
  704TIP3    H123527   4.891   4.850  17.229  0.6782 -0.7478 -0.0500
  704TIP3    H223528   4.823   4.730  17.167 -1.3927 -0.0066  0.7076
  705TIP3   OH223529   4.971   3.535   2.725 -0.2844  0.0110  0.2991
  705TIP3    H123530   4.983   3.610   2.666 -1.9680 -0.5319 -0.8264
  705TIP3    H223531   5.007   3.461   2.677 -0.1915 -0.1674  0.6473
  706TIP3   OH223532   0.997   1.148  15.489  0.4221 -0.7279  0.4686
  706TIP3    H123533   1.032   1.221  15.539 -0.9728 -0.5748  1.2937
  706TIP3    H223534   0.903   1.148  15.510  0.0916 -1.6855 -0.8739
  707TIP3   OH223535   1.220   4.379   5.109 -0.2949  0.7007  0.2606
  707TIP3    H123536   1.143   4.343   5.153  0.0915  1.2954  1.4697
  707TIP3    H223537   1.192   4.464   5.077  0.5147  2.1716  3.0827
  708TIP3   OH223538   3.535   5.899  11.327 -0.2969  0.1605 -1.2988
  708TIP3    H123539   3.514   5.992  11.319  0.2723  0.2927 -1.2751
  708TIP3    H223540   3.629   5.894  11.311 -0.1619 -0.2946 -0.4139
  709TIP3   OH223541   0.291   5.178   4.321  0.1534  0.2721 -0.1451
  709TIP3    H123542   0.310   5.120   4.247  0.9928  1.8554 -1.2393
  709TIP3    H223543   0.258   5.120   4.389  0.1908 -1.3673 -1.4553
  710TIP3   OH223544   4.602   1.854   2.959 -0.4968  0.4955 -0.0834
  710TIP3    H123545   4.600   1.785   2.892  2.1619 -0.5195  0.7742
  710TIP3    H223546   4.585   1.808   3.041  1.4487  0.7625  0.5171
  711TIP3   OH223547   4.630   0.801  12.577 -0.5655  0.2513 -0.2146
  711TIP3    H123548   4.651   0.713  12.610 -1.7716  0.3256  0.8565
  711TIP3    H223549   4.713   0.848  12.580 -0.3163 -0.2039  1.3663
  712TIP3   OH223550   6.030   5.109  15.673 -0.1735 -0.0652  0.4100
  712TIP3    H123551   6.056   5.017  15.667  0.2212  0.0344  0.5863
  712TIP3    H223552   6.052   5.134  15.763 -0.2911  0.1957  0.3649
  713TIP3   OH223553   2.385   6.215  13.973 -0.1320 -0.0309 -0.7696
  713TIP3    H123554   2.325   6.196  13.901 -0.1883 -0.3855 -0.6312
  713TIP3    H223555   2.328   6.226  14.049  0.0020 -0.8603 -0.5353
  714TIP3   OH223556   6.108   1.147  14.284 -0.6589  0.3324 -0.1986
  714TIP3    H123557   6.176   1.170  14.221  0.7704  1.9838  1.8108
  714TIP3    H223558   6.106   1.051  14.283  0.2178  0.3012 -1.7849
  715TIP3   OH223559   4.083   1.452  15.204 -0.1350 -0.1123  0.6736
  715TIP3    H123560   4.143   1.395  15.156 -0.2665 -0.7443  1.2479
  715TIP3    H223561   4.039   1.503  15.136 -0.5165 -1.1842  0.0978
  716TIP3   OH223562   3.024   3.750  11.449 -0.7629  0.0186 -0.5645
  716TIP3    H123563   3.108   3.761  11.405  0.0665  0.8884  1.1341
  716TIP3    H223564   3.039   3.679  11.511 -1.2859  0.1889 -0.2385
  717TIP3   OH223565   0.566   1.505   2.741 -0.1116  0.4572 -0.7755
  717TIP3    H123566   0.595   1.456   2.818  0.2310  0.3898 -0.9461
  717TIP3    H223567   0.519   1.580   2.777 -4.6835 -2.1999 -0.4205
  718TIP3   OH223568   5.673   0.423   5.383 -0.1503  0.6378  0.0456
  718TIP3    H123569   5.679   0.335   5.345 -0.9270  1.2949 -1.7074
  718TIP3    H223570   5.601   0.417   5.446  0.4517 -0.2039  0.6798
  719TIP3   OH223571   4.216   1.664  17.215  0.3339 -0.2597  0.2265
  719TIP3    H123572   4.128   1.646  17.248 -1.2647  1.0369 -2.9218
  719TIP3    H223573   4.247   1.580  17.183 -1.5323 -0.0928 -2.3007
  720TIP3   OH223574   0.554   0.522  16.790 -0.3883 -0.0310  0.0802
  720TIP3    H123575   0.494   0.531  16.865 -0.9398  1.3506 -0.4915
  720TIP3    H223576   0.504   0.471  16.726 -0.2172 -0.5371  0.3483
  721TIP3   OH223577   0.113   5.190   2.010  1.0631  0.3055  0.3362
  721TIP3    H123578   0.143   5.252   1.943  0.1041  0.1852 -0.2068
  721TIP3    H223579   0.127   5.104   1.971  0.4269  0.2371  0.2495
  722TIP3   OH223580   5.654   1.894   2.235  0.3083 -0.3253  0.4166
  722TIP3    H123581   5.647   1.910   2.329 -0.1678  0.4723  0.2500
  722TIP3    H223582   5.727   1.949   2.207 -0.9122  1.1269 -0.0403
  723TIP3   OH223583   1.808   5.521  15.249  0.1206 -0.0964  0.1097
  723TIP3    H123584   1.838   5.574  15.323  0.7876  0.2308 -0.3865
  723TIP3    H223585   1.884   5.517  15.191 -0.7240  0.5213 -1.0587
  724TIP3   OH223586   1.419   3.107  15.776  0.1349  0.3318 -0.4463
  724TIP3    H123587   1.492   3.169  15.777 -0.8055  1.5144 -1.6844
  724TIP3    H223588   1.341   3.161  15.786 -0.5931 -1.1566  4.2922
  725TIP3   OH223589   2.509   4.216   3.416  0.3592  0.0687  0.1735
  725TIP3    H123590   2.596   4.202   3.378  0.9392  1.6889  0.8428
  725TIP3    H223591   2.514   4.302   3.458 -1.5164  0.1220  0.3817
  726TIP3   OH223592   5.850   4.987  13.194  0.2781 -0.6926  0.1009
  726TIP3    H123593   5.910   5.016  13.126 -0.8136 -1.5491 -1.2729
  726TIP3    H223594   5.763   5.013  13.163 -0.2789 -1.4513  0.9710
  727TIP3   OH223595   4.864   0.071   4.587 -0.1390 -0.6252 -0.1005
  727TIP3    H123596   4.940   0.078   4.644 -0.7149  1.8298  0.4708
  727TIP3    H223597   4.849   0.160   4.554 -3.4057 -0.7109  0.7322
  728TIP3   OH223598   0.422   4.133  16.772 -0.4266 -0.3758  0.0735
  728TIP3    H123599   0.356   4.183  16.723  0.0932  0.9976  0.7156
  728TIP3    H223600   0.397   4.145  16.864  1.2714  1.0524  0.3977
  729TIP3   OH223601   6.113   5.115   6.425  0.5136 -0.4113  0.0580
  729TIP3    H123602   6.096   5.190   6.482 -0.9579  0.3765 -1.3244
  729TIP3    H223603   6.109   5.151   6.336 -2.0692 -2.3671 -0.7625
  730TIP3   OH223604   0.525   0.474   4.705 -0.1536 -0.9334 -0.2856
  730TIP3    H123605   0.588   0.417   4.661  0.2519  0.6378 -1.8094
  730TIP3    H223606   0.440   0.445   4.674 -0.0061 -1.2301 -0.4123
  731TIP3   OH223607   1.618   2.224   0.619 -0.3912 -0.2359 -0.8938
  731TIP3    H123608   1.694   2.169   0.639 -1.0961 -1.5019 -1.5519
  731TIP3    H223609   1.574   2.236   0.703  0.2352  0.0552 -0.5980
  732TIP3   OH223610   5.236   6.544  12.815  0.3469 -0.0063 -0.3349
  732TIP3    H123611   5.272   6.629  12.788 -0.3462  1.1441  2.1215
  732TIP3    H223612   5.143   6.549  12.793 -0.0407  0.5892  1.3232
  733TIP3   OH223613   5.902   3.392  16.047  0.0837 -0.1176  0.2836
  733TIP3    H123614   5.809   3.416  16.042 -0.5574 -2.2462  0.9442
  733TIP3    H223615   5.928   3.380  15.956 -0.2345  0.6059  0.0867
  734TIP3   OH223616   3.112   4.289  15.706  0.3754 -0.1485  0.3599
  734TIP3    H123617   3.031   4.295  15.756  0.1864  0.7067 -0.0360
  734TIP3    H223618   3.177   4.333  15.760  0.3839 -0.0769  0.2918
  735TIP3   OH223619   5.986   6.630   5.465  0.2251 -0.0307  0.4998
  735TIP3    H123620   6.077   6.650   5.486  0.0687  1.1059  0.1630
  735TIP3    H223621   5.991   6.584   5.381  0.5207 -0.5941  0.8126
  736TIP3   OH223622   2.589   3.764  16.183  0.2582 -0.0076 -0.3762
  736TIP3    H123623   2.508   3.792  16.226  0.7424  0.4960  0.2119
  736TIP3    H223624   2.569   3.769  16.089 -1.2116 -2.2875 -0.2769
  737TIP3   OH223625   2.193   4.628  16.204  0.1488 -0.7580  0.1489
  737TIP3    H123626   2.216   4.714  16.239  0.7846 -0.1126 -1.7542
  737TIP3    H223627   2.218   4.567  16.273  2.8631  0.3234  0.2659
  738TIP3   OH223628   1.152   4.908   5.869  0.0402  0.2214 -0.2747
  738TIP3    H123629   1.158   4.943   5.780 -1.7875 -0.1531 -0.5917
  738TIP3    H223630   1.154   4.986   5.925  2.6344  0.3935 -0.4772
  739TIP3   OH223631   6.650   5.633   3.305 -0.0559 -0.2891 -0.0682
  739TIP3    H123632   6.703   5.711   3.325  0.8614 -0.4138 -1.7856
  739TIP3    H223633   6.706   5.580   3.248 -0.7479 -2.1331  0.8947
  740TIP3   OH223634   6.014   3.415   5.449  0.0517 -0.0160 -0.1294
  740TIP3    H123635   6.021   3.440   5.358 -0.1240  0.3157 -0.0506
  740TIP3    H223636   6.040   3.323   5.451 -2.1853 -0.7359 -0.8826
  741TIP3   OH223637   3.570   1.763  13.816  0.2567 -0.3855 -0.0532
  741TIP3    H123638   3.611   1.727  13.894  0.7248  0.2749  0.0157
  741TIP3    H223639   3.510   1.829  13.849  0.7180  0.1450 -0.2632
  742TIP3   OH223640   2.959   0.186   1.233  0.2253 -0.3382  0.9986
  742TIP3    H123641   2.965   0.120   1.164  0.0472  0.9295 -0.2559
  742TIP3    H223642   2.872   0.222   1.225  0.5710  0.5592  1.2095
  743TIP3   OH223643   4.879   5.642   0.275  0.4317 -0.0010 -0.1831
  743TIP3    H123644   4.918   5.696   0.344  1.3437 -0.7337 -0.1017
  743TIP3    H223645   4.791   5.623   0.306 -0.2615  2.1465 -0.6128
  744TIP3   OH223646   6.296   0.215   3.460 -0.7004  0.1062  0.1445
  744TIP3    H123647   6.370   0.272   3.440 -0.8768  0.7711  1.2676
  744TIP3    H223648   6.313   0.185   3.549 -0.8471 -1.2544 -0.2690
  745TIP3   OH223649   1.569   5.826  15.440 -0.0858 -0.1887  0.3896
  745TIP3    H123650   1.542   5.879  15.515  1.9926  0.8333  0.5103
  745TIP3    H223651   1.545   5.879  15.364 -0.7360 -0.4748  0.3960
  746TIP3   OH223652   5.751   5.913  16.856 -0.4814 -0.1646 -0.1987
  746TIP3    H123653   5.824   5.966  16.826  0.8698 -2.0857 -0.4475
  746TIP3    H223654   5.712   5.878  16.776 -1.1499  0.1411 -0.0162
  747TIP3   OH223655   6.658   4.126   5.987 -0.7291 -0.0971 -0.0147
  747TIP3    H123656   6.630   4.034   5.983 -3.0297  0.5660 -1.9601
  747TIP3    H223657   6.736   4.130   5.931 -0.5030 -0.8912  0.2370
  748TIP3   OH223658   5.862   0.761  14.123  0.2456 -0.0333  0.4284
  748TIP3    H123659   5.874   0.671  14.155 -0.6918 -0.4035 -0.2337
  748TIP3    H223660   5.800   0.800  14.185 -1.2724 -0.6307 -0.6806
  749TIP3   OH223661   5.613   1.891   4.224  0.0332  0.4640  0.7058
  749TIP3    H123662   5.517   1.896   4.226 -0.0073 -0.3976  1.6325
  749TIP3    H223663   5.633   1.803   4.255  1.1047  0.2289 -0.5393
  750TIP3   OH223664   2.253   3.708   2.990  0.6463 -0.2519 -0.0481
  750TIP3    H123665   2.216   3.786   3.033 -1.0253 -1.4837  0.9001
  750TIP3    H223666   2.334   3.691   3.038  1.7413  1.6005 -1.1181
  751TIP3   OH223667   6.546   0.776   5.925 -0.1381 -0.2377  0.0838
  751TIP3    H123668   6.596   0.745   5.849 -1.4237 -2.6418  0.1227
  751TIP3    H223669   6.600   0.754   6.001  0.6710  1.2199 -0.0238
  752TIP3   OH223670   0.839   3.808  15.892 -0.0549  0.3723  0.0756
  752TIP3    H123671   0.866   3.899  15.896 -1.0596  0.6534  0.6521
  752TIP3    H223672   0.745   3.809  15.907  0.1404 -0.8948  1.6999
  753TIP3   OH223673   6.445   0.541  14.584  0.2207  0.3193  0.8929
  753TIP3    H123674   6.427   0.447  14.592  0.1030  0.1635 -0.8030
  753TIP3    H223675   6.541   0.546  14.578  0.1548  0.1146 -0.7305
  754TIP3   OH223676   2.285   0.583   0.520 -0.0603 -0.3838 -0.6921
  754TIP3    H123677   2.298   0.509   0.461 -2.1679 -1.5794  0.2008
  754TIP3    H223678   2.268   0.542   0.605 -0.3430  1.1758  0.0295
  755TIP3   OH223679   4.006   0.269   1.691  0.3973 -0.6873 -0.0062
  755TIP3    H123680   4.087   0.318   1.705  1.2690 -2.3088  0.8651
  755TIP3    H223681   4.031   0.197   1.633 -0.5135 -0.9861 -0.0408
  756TIP3   OH223682   3.502   3.919   6.122 -0.0989  0.1118  0.0650
  756TIP3    H123683   3.414   3.950   6.144 -0.4525 -1.2252  0.5767
  756TIP3    H223684   3.554   3.999   6.117 -1.0248  0.8204  1.1688
  757TIP3   OH223685   6.343   3.713  16.000 -0.0750 -0.4295  0.5178
  757TIP3    H123686   6.307   3.793  16.039  1.9552  0.2051  1.2225
  757TIP3    H223687   6.270   3.676  15.950 -1.2686  1.4883  0.7243
  758TIP3   OH223688   4.261   4.606   2.652 -0.3596  0.2154 -0.0943
  758TIP3    H123689   4.180   4.564   2.626  0.2439 -0.9015 -0.2300
  758TIP3    H223690   4.286   4.562   2.734  1.2540 -1.0847 -1.2137
  759TIP3   OH223691   3.697   3.684  15.595  0.0837  0.2484  0.6934
  759TIP3    H123692   3.746   3.765  15.612 -0.9708  0.9972  0.2387
  759TIP3    H223693   3.605   3.711  15.594 -0.1765 -0.4357 -2.0505
  760TIP3   OH223694   6.743   0.461   4.986 -0.1925 -0.0963 -0.0207
  760TIP3    H123695   6.772   0.377   5.020  0.6971  0.9823  2.0797
  760TIP3    H223696   6.727   0.514   5.065 -1.1841  1.5515 -1.2723
  761TIP3   OH223697   3.348   0.224   1.842  0.3545 -0.5653  0.0187
  761TIP3    H123698   3.257   0.198   1.829  0.3428  0.1689 -1.5516
  761TIP3    H223699   3.348   0.271   1.925 -1.0713  1.0054 -0.8101
  762TIP3   OH223700   3.600   0.616   4.717 -0.3757 -0.0732 -0.5239
  762TIP3    H123701   3.526   0.626   4.776  1.2082 -2.7997  2.2147
  762TIP3    H223702   3.575   0.545   4.658 -0.6122  0.2402 -0.8030
  763TIP3   OH223703   3.191   1.639   4.662 -0.1969 -0.3961  0.1552
  763TIP3    H123704   3.251   1.710   4.685 -0.0373 -0.5591  0.2493
  763TIP3    H223705   3.197   1.578   4.736  0.6585 -1.1482 -0.5166
  764TIP3   OH223706   4.456   2.180  14.888 -0.0549  0.4026 -0.0259
  764TIP3    H123707   4.475   2.270  14.915 -0.9600 -0.1482  2.8031
  764TIP3    H223708   4.362   2.182  14.867 -0.1961  0.0243  0.5594
  765TIP3   OH223709   1.014   2.020   4.906  0.1488  0.2106 -0.1662
  765TIP3    H123710   1.045   2.067   4.983 -1.2135  2.7172 -1.0316
  765TIP3    H223711   0.953   2.081   4.863 -1.0467 -2.0415 -1.8950
  766TIP3   OH223712   4.476   1.473   3.058  0.1691 -0.4414 -0.3231
  766TIP3    H123713   4.427   1.510   3.131 -1.0423  0.2509 -1.4435
  766TIP3    H223714   4.568   1.493   3.078 -0.1908  0.2264  0.7292
  767TIP3   OH223715   4.437   4.980  11.206  0.5945  0.0036  0.2334
  767TIP3    H123716   4.357   5.019  11.172  1.1820  0.9848 -0.0712
  767TIP3    H223717   4.479   4.939  11.131  1.0169  0.6291  0.1217
  768TIP3   OH223718   0.049   3.155  14.136 -0.7565 -1.1118 -0.0234
  768TIP3    H123719   0.032   3.118  14.050  2.8790 -1.3912 -0.7813
  768TIP3    H223720   0.036   3.249  14.124  0.1513 -1.0922 -1.0580
  769TIP3   OH223721   4.272   1.018   6.200  0.1333  0.0943  0.1560
  769TIP3    H123722   4.292   1.075   6.125  1.9815  1.4438  1.5655
  769TIP3    H223723   4.245   0.935   6.160 -0.0510  1.1038 -1.9894
  770TIP3   OH223724   6.655   5.615   1.846 -0.5250 -0.3984  0.2572
  770TIP3    H123725   6.601   5.620   1.925 -0.2615  0.5916  0.3912
  770TIP3    H223726   6.732   5.669   1.866 -0.8393  0.5542 -0.9622
  771TIP3   OH223727   2.741   2.248  16.612 -0.0305 -0.0475 -0.2265
  771TIP3    H123728   2.685   2.322  16.590 -1.7048 -0.9690  0.6955
  771TIP3    H223729   2.731   2.188  16.538 -0.5823 -0.3771  0.1094
  772TIP3   OH223730   0.214   3.538  14.620 -0.2991  0.0538  0.7715
  772TIP3    H123731   0.197   3.490  14.539  1.8656  1.5271 -0.6612
  772TIP3    H223732   0.303   3.512  14.645  1.7510  4.3660 -1.0556
  773TIP3   OH223733   2.571   4.262   1.247 -0.0252 -0.4270 -0.1375
  773TIP3    H123734   2.653   4.307   1.225  1.3935 -2.5336  0.5618
  773TIP3    H223735   2.576   4.247   1.341 -0.6941 -1.5152 -0.2537
  774TIP3   OH223736   0.059   0.734   3.634 -0.1097 -0.3627  0.0043
  774TIP3    H123737  -0.004   0.704   3.568  1.0935 -2.5455 -0.2618
  774TIP3    H223738   0.141   0.742   3.586 -0.0273  2.0221  0.4408
  775TIP3   OH223739   6.497   0.169   5.591 -0.7541 -0.1554 -0.3693
  775TIP3    H123740   6.585   0.206   5.600 -1.7928  2.4241  0.1945
  775TIP3    H223741   6.497   0.130   5.503  0.2849  1.8364 -1.3242
  776TIP3   OH223742   1.373   5.193  13.240  0.0013 -0.2594  0.4323
  776TIP3    H123743   1.457   5.209  13.283  0.1822 -0.2552  0.0727
  776TIP3    H223744   1.395   5.161  13.153 -0.3077 -4.0996  1.5962
  777TIP3   OH223745   4.894   0.761  16.430 -0.1156 -0.1008 -0.2141
  777TIP3    H123746   4.876   0.811  16.509  2.7179  0.0297  0.4351
  777TIP3    H223747   4.828   0.692  16.430 -0.0879 -0.2122  2.3780
  778TIP3   OH223748   2.049   0.164   4.953  0.3375 -0.3729 -0.7034
  778TIP3    H123749   2.023   0.112   4.877 -1.4749  0.7342 -0.9042
  778TIP3    H223750   2.066   0.251   4.918  0.3484 -0.0739  0.0209
  779TIP3   OH223751   6.642   0.990   5.115  0.5522  0.5275  0.1114
  779TIP3    H123752   6.583   0.928   5.156  2.4537 -0.9710  0.7161
  779TIP3    H223753   6.601   1.008   5.030 -2.3928  2.1180  1.6956
  780TIP3   OH223754   3.538   1.685   3.438 -0.2597 -0.2282 -0.0242
  780TIP3    H123755   3.592   1.764   3.447 -2.2657  1.1406  0.7156
  780TIP3    H223756   3.448   1.718   3.432 -1.2692 -2.5040  1.3369
  781TIP3   OH223757   2.495   2.385  17.246  0.4717  0.3571  0.1917
  781TIP3    H123758   2.509   2.293  17.223 -1.1129  0.3025 -0.7510
  781TIP3    H223759   2.497   2.387  17.341 -2.1210 -1.2058  0.3785
  782TIP3   OH223760   5.154   6.336   6.262 -0.2961 -0.0146  0.1321
  782TIP3    H123761   5.137   6.248   6.295 -0.6647  0.4813  1.3069
  782TIP3    H223762   5.071   6.362   6.220  0.3953 -0.9234 -1.9331
  783TIP3   OH223763   3.760   0.533  16.309  0.1570  0.0651 -0.1091
  783TIP3    H123764   3.707   0.575  16.377  0.5223 -1.1017  0.9466
  783TIP3    H223765   3.817   0.602  16.276  0.6793  0.4344  1.4953
  784TIP3   OH223766   2.743   5.131  15.833  0.0439 -0.8692  0.1464
  784TIP3    H123767   2.834   5.160  15.828 -0.5226  0.8535 -0.7905
  784TIP3    H223768   2.698   5.180  15.765 -2.0465  0.0593  2.0886
  785TIP3   OH223769   6.032   6.413  11.951  0.5522  0.2022  0.3392
  785TIP3    H123770   5.963   6.365  11.904  1.7762  1.1655 -2.6875
  785TIP3    H223771   6.041   6.495  11.903  1.2273  1.8071  2.9974
  786TIP3   OH223772   1.891   5.647  13.817 -0.0042 -0.1804 -0.3564
  786TIP3    H123773   1.857   5.689  13.897 -0.7345 -0.5259 -0.4767
  786TIP3    H223774   1.814   5.636  13.762  0.5098  0.1051 -1.1408
  787TIP3   OH223775   0.762   4.454   5.043  0.3069  0.3636  0.4691
  787TIP3    H123776   0.817   4.532   5.051  0.4824  0.0910  2.3671
  787TIP3    H223777   0.726   4.440   5.131  2.5281 -3.3244  0.9955
  788TIP3   OH223778   5.115   0.060  16.824 -0.3696  0.1103 -0.2074
  788TIP3    H123779   5.142  -0.018  16.776  1.8846 -0.8373  2.3606
  788TIP3    H223780   5.194   0.113  16.829 -0.9325  0.8759  1.1322
  789TIP3   OH223781   4.311   2.584   6.744  0.2062  0.0646 -0.2175
  789TIP3    H123782   4.261   2.621   6.817 -0.0298  0.5404 -0.6057
  789TIP3    H223783   4.349   2.504   6.778  1.0589  0.8609  0.7854
  790TIP3   OH223784   2.552   0.867   4.420 -0.5901 -0.5612 -0.3357
  790TIP3    H123785   2.617   0.830   4.480 -0.4060  0.8490  0.3745
  790TIP3    H223786   2.471   0.870   4.471  0.2063  3.3687  1.0067
  791TIP3   OH223787   3.786   0.973  14.383  0.1193  0.4493 -0.5764
  791TIP3    H123788   3.696   0.949  14.406 -0.4542  1.2774 -1.8191
  791TIP3    H223789   3.833   0.975  14.467 -1.0525  0.1463  0.1098
  792TIP3   OH223790   5.008   1.268  14.454  0.2043 -0.0182 -0.4989
  792TIP3    H123791   4.974   1.337  14.511 -0.4273 -1.0649  0.4380
  792TIP3    H223792   5.073   1.312  14.400 -0.8405  1.5151 -0.5878
  793TIP3   OH223793   0.932   5.923   4.428 -0.6322  0.0896 -1.1468
  793TIP3    H123794   0.850   5.873   4.427 -0.0037 -1.2168  1.9695
  793TIP3    H223795   0.917   5.992   4.492  0.8683 -0.5983  0.0076
  794TIP3   OH223796   0.321   1.851   5.392 -0.0592 -0.0200 -0.0009
  794TIP3    H123797   0.381   1.785   5.356  0.7576  0.9801 -0.5299
  794TIP3    H223798   0.236   1.829   5.353  0.1920 -0.7864 -0.1372
  795TIP3   OH223799   4.942   1.720  11.851 -0.5073  0.0060 -0.3698
  795TIP3    H123800   5.032   1.740  11.875 -0.4133 -1.1326  0.2984
  795TIP3    H223801   4.889   1.759  11.920 -0.7422  2.8128 -2.0141
  796TIP3   OH223802   5.655   2.318  10.674  0.2079 -0.7830  0.2284
  796TIP3    H123803   5.672   2.391  10.615  0.9872 -1.1168  0.0257
  796TIP3    H223804   5.576   2.344  10.723 -0.0624 -0.2208 -0.4902
  797TIP3   OH223805   1.483   6.670  14.322  0.1314 -0.8125  0.1481
  797TIP3    H123806   1.449   6.751  14.285  1.5368 -1.5354 -3.1169
  797TIP3    H223807   1.413   6.606  14.308  0.6408 -1.0772 -1.4940
  798TIP3   OH223808   2.515   1.593  11.263  0.2537 -0.3390  0.6494
  798TIP3    H123809   2.602   1.623  11.289 -0.7384  1.6466  1.9731
  798TIP3    H223810   2.490   1.653  11.193 -1.0526  0.8768  2.0880
  799TIP3   OH223811   1.323   0.531  11.373  0.0447  0.1672  0.3394
  799TIP3    H123812   1.258   0.541  11.442 -0.2792  1.7071 -0.1541
  799TIP3    H223813   1.295   0.591  11.304  0.7431 -0.8274 -0.8515
  800TIP3   OH223814   2.782   2.455  13.535  0.3713  0.0724  0.1583
  800TIP3    H123815   2.839   2.385  13.566  0.7739  0.1994 -0.2729
  800TIP3    H223816   2.729   2.414  13.466  1.2584  0.3985 -0.7539
  801TIP3   OH223817   1.339   0.995   6.169  0.4620 -0.4659  0.0775
  801TIP3    H123818   1.392   0.961   6.241 -0.0308 -0.1035  0.6266
  801TIP3    H223819   1.341   1.090   6.180  0.3998 -0.4056 -0.4041
  802TIP3   OH223820   4.230   5.892  14.900  0.4259 -0.1529 -0.0341
  802TIP3    H123821   4.252   5.979  14.935  0.2503 -0.0292 -0.2276
  802TIP3    H223822   4.149   5.868  14.944  0.6779 -0.3866  0.3027
  803TIP3   OH223823   2.331   4.710  11.985  0.1977  0.2471  0.6822
  803TIP3    H123824   2.410   4.763  11.972  0.0039  0.3389 -0.1817
  803TIP3    H223825   2.263   4.774  12.008 -0.2620  0.5377 -1.2826
  804TIP3   OH223826   3.060   6.428   2.703  0.3394 -0.7342 -0.0711
  804TIP3    H123827   2.999   6.439   2.777  0.8795 -1.3489  0.4830
  804TIP3    H223828   3.107   6.511   2.699 -3.0938  1.3619 -2.9827
  805TIP3   OH223829   6.006   3.789   2.674 -0.9286  0.3270  0.0034
  805TIP3    H123830   6.045   3.703   2.654  0.7447  1.1752 -0.6033
  805TIP3    H223831   5.951   3.773   2.750  0.3369 -1.0662  0.6917
  806TIP3   OH223832   6.016   5.199  13.027  0.3432  0.2883  0.3806
  806TIP3    H123833   6.011   5.118  12.977 -0.4789  0.0537  0.8258
  806TIP3    H223834   6.010   5.268  12.961 -1.5876 -0.0124  0.1882
  807TIP3   OH223835   5.913   4.803   5.686 -0.4002 -0.3044  0.1442
  807TIP3    H123836   5.840   4.788   5.626 -0.9653  1.2282  0.4065
  807TIP3    H223837   5.966   4.724   5.679 -1.9406 -1.3548 -0.2445
  808TIP3   OH223838   3.120   2.814  16.328  0.7646  0.3806 -0.5520
  808TIP3    H123839   3.095   2.729  16.294 -1.8961  1.3177 -1.1825
  808TIP3    H223840   3.216   2.815  16.324  0.7889 -1.9829 -1.9056
  809TIP3   OH223841   3.953   5.268   2.772  0.2036 -0.0687 -0.1476
  809TIP3    H123842   3.935   5.334   2.704 -0.8489 -2.0022 -1.8397
  809TIP3    H223843   4.007   5.203   2.728 -0.8912 -1.6077  0.7047
  810TIP3   OH223844   5.935   0.749  12.603 -0.3190 -0.4086 -0.5035
  810TIP3    H123845   5.905   0.772  12.514 -0.4331  0.6360 -0.2089
  810TIP3    H223846   5.999   0.816  12.625 -1.4482  0.2869  0.8094
  811TIP3   OH223847   0.107   1.630   0.223 -0.4398 -0.1151  0.4488
  811TIP3    H123848   0.038   1.668   0.168  0.1206 -0.6202 -0.6427
  811TIP3    H223849   0.077   1.541   0.242 -0.3870 -0.1220  0.5001
  812TIP3   OH223850   4.625   0.049   4.700 -0.2403 -0.1452 -0.1593
  812TIP3    H123851   4.712   0.064   4.664 -0.4193  1.2298 -0.0581
  812TIP3    H223852   4.630   0.082   4.789 -0.1894 -2.3071  0.7078
  813TIP3   OH223853   0.235   4.338  14.168  0.3146  0.0849  0.5009
  813TIP3    H123854   0.270   4.277  14.103  0.0245  1.5666 -1.1244
  813TIP3    H223855   0.259   4.425  14.134 -2.3314  1.0281  0.8586
  814TIP3   OH223856   2.880   1.444   4.711 -0.3655 -0.1843 -0.3440
  814TIP3    H123857   2.929   1.363   4.724  1.1132  0.8547  0.9320
  814TIP3    H223858   2.802   1.434   4.766  0.1309 -0.5084  0.3240
  815TIP3   OH223859   4.829   4.964  15.497 -0.3590  0.5661 -1.1467
  815TIP3    H123860   4.736   4.947  15.511 -0.4854  1.1498 -1.2275
  815TIP3    H223861   4.848   5.040  15.551  0.6530 -0.9477  0.7412
  816TIP3   OH223862   1.132   4.691   5.293  0.2619  0.4710 -0.6419
  816TIP3    H123863   1.218   4.663   5.265 -0.5649 -1.0739 -1.7797
  816TIP3    H223864   1.124   4.659   5.383  0.8172  0.5299 -0.5704
  817TIP3   OH223865   4.155   5.182  14.562  0.0137 -0.3024  0.2241
  817TIP3    H123866   4.114   5.266  14.580  1.1394  0.0932  1.1086
  817TIP3    H223867   4.085   5.127  14.527 -1.4539  0.1123  2.3343
  818TIP3   OH223868   6.553   3.599  11.239 -0.4097  0.4147  0.4029
  818TIP3    H123869   6.640   3.594  11.280  0.0246 -1.0130 -0.6077
  818TIP3    H223870   6.497   3.635  11.308  1.1190  2.2352  0.8051
  819TIP3   OH223871   1.819   6.180  11.080  0.5225  0.4420 -0.5650
  819TIP3    H123872   1.759   6.194  11.006  1.6651 -0.5423 -1.7117
  819TIP3    H223873   1.854   6.092  11.066  2.5682  1.1561 -0.1617
  820TIP3   OH223874   4.761   0.680  13.636 -0.8726 -0.4912  0.1775
  820TIP3    H123875   4.788   0.644  13.552 -0.0384  0.4696  0.0238
  820TIP3    H223876   4.826   0.649  13.698 -0.6196  0.0550  0.1916
  821TIP3   OH223877   4.884   4.157   4.152  0.3264 -0.6706 -0.3991
  821TIP3    H123878   4.876   4.248   4.123 -1.5103 -0.5241  0.4260
  821TIP3    H223879   4.871   4.105   4.072 -1.6253 -0.2330 -0.4044
  822TIP3   OH223880   4.617   6.373   2.309  0.5166  0.3688  0.0910
  822TIP3    H123881   4.615   6.456   2.262  0.2798 -0.5920 -1.6772
  822TIP3    H223882   4.697   6.330   2.278  0.6415 -0.0796  0.9929
  823TIP3   OH223883   3.206   3.715   5.497  0.3524  0.1166 -0.4252
  823TIP3    H123884   3.224   3.631   5.455 -0.6845 -0.0610 -0.5303
  823TIP3    H223885   3.134   3.752   5.446 -0.6554  0.0831  0.9367
  824TIP3   OH223886   4.429   5.595   4.892 -0.4491 -0.0147 -0.1563
  824TIP3    H123887   4.481   5.520   4.867  1.6652  1.1195  0.5595
  824TIP3    H223888   4.381   5.620   4.813 -3.1446 -3.4630  0.1727
  825TIP3   OH223889   1.953   2.645   3.428 -0.1984 -0.5702 -0.2118
  825TIP3    H123890   1.965   2.711   3.360  2.4752  0.3819  1.0578
  825TIP3    H223891   1.957   2.562   3.381  0.3916  0.0822 -1.3566
  826TIP3   OH223892   0.050   4.131   0.141 -0.6629 -0.7632  0.0771
  826TIP3    H123893  -0.006   4.053   0.132 -0.8895 -0.4006 -2.3388
  826TIP3    H223894   0.001   4.201   0.098 -0.2002  0.6120  1.7076
  827TIP3   OH223895   3.953   5.151   1.908 -0.0513  0.3501  0.5612
  827TIP3    H123896   3.966   5.153   1.813  1.0341 -1.5056  0.6098
  827TIP3    H223897   3.874   5.203   1.922 -0.5844  0.1892 -1.4216
  828TIP3   OH223898   6.087   0.240  13.619  0.3605  0.0806  0.3005
  828TIP3    H123899   6.093   0.299  13.695  4.2209  0.1556  0.1364
  828TIP3    H223900   6.109   0.154  13.654 -2.6829 -0.9137  0.0448
  829TIP3   OH223901   0.368   1.311   1.149 -0.1262  0.5614 -0.2108
  829TIP3    H123902   0.330   1.387   1.103  0.3034 -1.2205 -3.9127
  829TIP3    H223903   0.294   1.272   1.196 -0.5622  2.6345  0.9524
  830TIP3   OH223904   1.533   3.592  12.716 -0.3557  0.5383  0.1912
  830TIP3    H123905   1.481   3.669  12.695 -1.4802 -0.2207  0.0518
  830TIP3    H223906   1.553   3.601  12.809  0.3107  1.4295 -0.0256
  831TIP3   OH223907   2.003   6.594  12.691 -0.0551 -0.1332 -0.1219
  831TIP3    H123908   2.017   6.549  12.774 -0.6508  0.2413  0.1834
  831TIP3    H223909   2.022   6.686  12.709 -0.0608 -0.0673 -0.4351
  832TIP3   OH223910   1.859   5.930   4.442 -0.0028  0.3776  0.6639
  832TIP3    H123911   1.876   6.001   4.380 -1.5857 -0.2146 -0.5148
  832TIP3    H223912   1.927   5.865   4.423 -0.0986  0.4723 -0.0097
  833TIP3   OH223913   4.294   4.485  13.329  0.8053 -0.4658  0.4186
  833TIP3    H123914   4.244   4.489  13.411 -0.0089 -1.6959  0.0152
  833TIP3    H223915   4.385   4.475  13.357  0.7508  0.8321  1.1611
  834TIP3   OH223916   5.068   2.322  10.507  0.1612  0.0841  0.0087
  834TIP3    H123917   5.007   2.371  10.452  1.8300  1.3173 -0.8553
  834TIP3    H223918   5.155   2.354  10.480  1.2997 -2.7566  0.0042
  835TIP3   OH223919   2.651   1.740  12.538  0.2546  0.1307  0.2018
  835TIP3    H123920   2.654   1.815  12.597  1.6077  2.4801 -2.6138
  835TIP3    H223921   2.574   1.755  12.483  0.1160 -0.9635  0.0713
  836TIP3   OH223922   0.342   1.728   2.205  0.2007  0.6382  0.0236
  836TIP3    H123923   0.332   1.810   2.156  1.4328  0.9859  0.3207
  836TIP3    H223924   0.365   1.755   2.293 -0.0404 -0.0254  0.2969
  837TIP3   OH223925   0.640   4.735   6.324  0.2205 -0.0264 -0.1743
  837TIP3    H123926   0.703   4.715   6.393  1.6322  0.7032 -1.2067
  837TIP3    H223927   0.680   4.805   6.273  0.6551 -2.4075 -3.5106
  838TIP3   OH223928   6.374   3.291   1.460 -0.3406  0.1586  0.2855
  838TIP3    H123929   6.433   3.243   1.402 -1.5245  0.6476 -1.4237
  838TIP3    H223930   6.295   3.305   1.407 -0.7544  2.3045  1.3594
  839TIP3   OH223931   4.596   4.178  13.638  0.3328 -0.5277 -0.4097
  839TIP3    H123932   4.555   4.096  13.666 -0.5565 -0.2018 -0.6924
  839TIP3    H223933   4.687   4.156  13.621  0.2397 -1.3258  0.0847
  840TIP3   OH223934   6.163   0.798   0.283 -0.0067  0.2156  0.5934
  840TIP3    H123935   6.114   0.724   0.247 -0.5082  0.3628  0.9698
  840TIP3    H223936   6.246   0.797   0.235 -0.7802  0.5865 -0.8005
  841TIP3   OH223937   5.020   3.018  15.586  0.2208 -0.0905  0.3361
  841TIP3    H123938   5.094   2.962  15.561  1.1851  1.0278  0.5882
  841TIP3    H223939   5.061   3.095  15.625 -1.0492  1.1406 -0.6817
  842TIP3   OH223940   0.913   4.033   3.829 -0.2894 -0.1479 -0.1233
  842TIP3    H123941   0.826   4.044   3.867 -1.3747 -1.0532 -2.2200
  842TIP3    H223942   0.927   4.111   3.776  1.1671  1.0434  1.8485
  843TIP3   OH223943   1.729   0.352  16.467 -0.0600 -0.3527  0.4026
  843TIP3    H123944   1.770   0.435  16.444 -0.7431 -0.3460 -0.8863
  843TIP3    H223945   1.646   0.352  16.419  0.7094 -2.5600 -1.1364
  844TIP3   OH223946   2.348   3.145   4.974 -0.4984 -0.2654  0.0220
  844TIP3    H123947   2.435   3.105   4.970 -0.5842 -0.6121  1.1749
  844TIP3    H223948   2.294   3.080   5.019 -0.7064  1.0313  1.7193
  845TIP3   OH223949   1.458   1.752   6.722  0.5726 -0.0012  0.0821
  845TIP3    H123950   1.473   1.835   6.767  1.7897 -0.6522  0.9479
  845TIP3    H223951   1.531   1.745   6.660 -0.3894  0.2870 -1.1284
  846TIP3   OH223952   4.580   3.090  13.841 -0.6400  0.2063  0.5102
  846TIP3    H123953   4.661   3.099  13.890 -0.6688 -0.4107  0.6777
  846TIP3    H223954   4.511   3.096  13.907 -0.6993 -0.0592  0.4739
  847TIP3   OH223955   2.214   4.284  10.575  0.0840 -0.0563 -0.2114
  847TIP3    H123956   2.175   4.207  10.534 -0.1286  0.1186 -0.3393
  847TIP3    H223957   2.308   4.266  10.575 -0.0188 -0.6960  0.5335
  848TIP3   OH223958   2.631   3.679   4.814  0.3851  0.1212 -0.4667
  848TIP3    H123959   2.673   3.615   4.757  0.3054  0.9141 -1.4475
  848TIP3    H223960   2.554   3.709   4.765 -1.1100 -0.9372  1.0800
  849TIP3   OH223961   6.498   4.086  16.523  0.3079  0.4924 -0.0514
  849TIP3    H123962   6.415   4.127  16.500  1.7028  3.2210 -0.8132
  849TIP3    H223963   6.518   4.028  16.449 -0.7776  0.0367  0.0110
  850TIP3   OH223964   0.996   1.542   0.902 -0.0275  0.0239  0.2332
  850TIP3    H123965   0.914   1.504   0.872  0.2456 -0.5515  0.1913
  850TIP3    H223966   1.052   1.541   0.824 -0.0450  0.6131  0.2052
  851TIP3   OH223967   5.057   6.719   3.815  0.2892 -0.0104 -0.1013
  851TIP3    H123968   5.125   6.748   3.755  1.1700  2.5090  1.9473
  851TIP3    H223969   5.014   6.800   3.844 -2.3149 -1.3774  0.1826
  852TIP3   OH223970   3.443   5.485   1.349 -0.0196  0.0738 -0.1032
  852TIP3    H123971   3.361   5.523   1.317  0.1000  1.2658  0.9284
  852TIP3    H223972   3.509   5.551   1.329  0.9830 -1.4080 -2.1136
  853TIP3   OH223973   1.020   0.120   5.613  0.6055 -0.2499 -0.2475
  853TIP3    H123974   1.061   0.136   5.698 -1.1065  0.3593  0.5039
  853TIP3    H223975   1.040   0.028   5.594  2.3397  0.0292  0.0244
  854TIP3   OH223976   1.305   5.537  15.039 -0.6030  0.1315 -0.0340
  854TIP3    H123977   1.338   5.575  15.120  1.6992  1.7935 -1.6449
  854TIP3    H223978   1.366   5.566  14.971 -2.5220 -1.0387 -2.4324
  855TIP3   OH223979   2.146   1.575  14.227 -0.5956 -0.3804 -0.1486
  855TIP3    H123980   2.187   1.618  14.302  0.0008  0.0000 -0.6830
  855TIP3    H223981   2.140   1.483  14.252  1.2565 -0.5755 -0.3289
  856TIP3   OH223982   2.644   2.221  11.912  0.8696 -0.3684 -0.5043
  856TIP3    H123983   2.719   2.201  11.967  0.9432 -0.5247 -0.6601
  856TIP3    H223984   2.638   2.147  11.851 -0.1466 -0.9649  0.2846
  857TIP3   OH223985   1.256   6.760   2.821  0.1490 -0.4062 -0.3049
  857TIP3    H123986   1.304   6.693   2.773  1.3633  0.3646 -0.2184
  857TIP3    H223987   1.190   6.792   2.759  0.4810 -0.7012 -0.8172
  858TIP3   OH223988   6.601   4.518   2.525 -0.2244  0.2930 -0.1229
  858TIP3    H123989   6.536   4.541   2.591  2.5768  0.7200  2.7287
  858TIP3    H223990   6.620   4.426   2.541  2.0616  0.9434  1.2841
  859TIP3   OH223991   1.788   4.771  11.913  0.2940 -0.1020  0.2518
  859TIP3    H123992   1.794   4.792  11.820 -1.5278  0.5008  0.2425
  859TIP3    H223993   1.879   4.771  11.943  0.8995 -0.1940 -1.4913
  860TIP3   OH223994   1.466   4.051   4.362 -0.3207  0.2450 -0.3087
  860TIP3    H123995   1.382   4.004   4.360  0.5606 -1.4457  0.3307
  860TIP3    H223996   1.444   4.141   4.337 -2.6014  0.3032  1.5733
  861TIP3   OH223997   6.452   3.579   0.036  0.2924  0.4351  0.0806
  861TIP3    H123998   6.398   3.500   0.033 -0.1835  0.6161  2.3840
  861TIP3    H223999   6.539   3.549   0.010 -0.1270 -0.6083 -0.1744
  862TIP3   OH224000   1.092   5.363  12.999 -0.3675  0.1290 -0.3772
  862TIP3    H124001   1.094   5.272  12.967 -0.1229 -0.1575  0.4222
  862TIP3    H224002   1.136   5.413  12.930 -1.5224 -0.1706 -1.3668
  863TIP3   OH224003   2.891   1.401  12.230  0.1370 -0.4946  0.0701
  863TIP3    H124004   2.882   1.478  12.286 -0.0584  0.3818 -1.1566
  863TIP3    H224005   2.801   1.370  12.216  0.1736 -0.6064  0.0745
  864TIP3   OH224006   4.771   3.208  11.164  0.1158  0.7737  0.3233
  864TIP3    H124007   4.780   3.153  11.087 -1.7076 -0.3336  0.8533
  864TIP3    H224008   4.782   3.297  11.130  0.9353  0.2357 -0.9173
  865TIP3   OH224009   5.846   5.362   3.007  0.0721 -0.4991  1.0779
  865TIP3    H124010   5.756   5.354   2.976 -0.0905  0.9826  1.0959
  865TIP3    H224011   5.842   5.430   3.074  0.9369 -1.5670  2.2494
  866TIP3   OH224012   1.066   2.157  16.082  0.1615 -0.4031 -0.3119
  866TIP3    H124013   1.147   2.205  16.061 -1.0222  2.5402  1.2520
  866TIP3    H224014   1.030   2.133  15.996  1.6513  0.0525 -1.1089
  867TIP3   OH224015   1.992   5.339  15.873  0.0128  0.5246 -0.2427
  867TIP3    H124016   1.962   5.255  15.838  0.5495 -0.8290  2.3123
  867TIP3    H224017   2.082   5.348  15.842 -0.3570  0.6557 -1.3129
  868TIP3   OH224018   5.529   2.716   0.574  0.1417  0.3487  0.5949
  868TIP3    H124019   5.536   2.695   0.667 -0.9080  0.2586  0.6653
  868TIP3    H224020   5.496   2.635   0.534 -2.0135  1.1856  0.5660
  869TIP3   OH224021   0.640   0.241  16.192 -0.4866  0.0083 -0.6889
  869TIP3    H124022   0.680   0.287  16.118  2.0173  0.1095  0.6324
  869TIP3    H224023   0.704   0.175  16.217 -0.8327  0.5437  1.9037
  870TIP3   OH224024   0.188   2.406  12.394 -0.1602  0.3084 -0.2237
  870TIP3    H124025   0.226   2.491  12.418  0.5904  0.1441 -0.8161
  870TIP3    H224026   0.152   2.420  12.306 -0.8737  0.2666  0.0530
  871TIP3   OH224027   1.131   4.052   4.504 -0.2853  0.5513  0.0871
  871TIP3    H124028   1.097   4.044   4.593 -0.4880  0.2807 -0.0156
  871TIP3    H224029   1.154   3.963   4.479 -1.5109  0.4188 -0.6438
  872TIP3   OH224030   1.382   3.254   3.631 -0.1872 -0.0766 -0.3006
  872TIP3    H124031   1.427   3.222   3.709  1.2180  0.2407 -0.9465
  872TIP3    H224032   1.308   3.304   3.664  1.7169  2.0858  0.9502
  873TIP3   OH224033   2.631   6.458  16.752  0.6083 -0.2409 -0.1750
  873TIP3    H124034   2.620   6.458  16.656 -0.2592  0.1047 -0.0840
  873TIP3    H224035   2.578   6.385  16.782  1.0695 -0.4960  0.0317
  874TIP3   OH224036   2.358   3.377  15.721  0.4782 -0.1085 -0.4515
  874TIP3    H124037   2.304   3.325  15.780  2.6586 -1.2845  0.6364
  874TIP3    H224038   2.403   3.440  15.778 -1.1142  2.2064 -1.5713
  875TIP3   OH224039   4.927   6.786  14.089 -0.5761 -0.1349 -0.3709
  875TIP3    H124040   4.888   6.862  14.133  0.1819 -1.0277  2.0072
  875TIP3    H224041   4.932   6.719  14.157  1.2506 -1.4187 -1.6819
  876TIP3   OH224042   6.233   3.055  14.867  0.2450  0.2712 -0.0743
  876TIP3    H124043   6.210   2.962  14.869 -1.5694  0.6558 -0.7792
  876TIP3    H224044   6.319   3.059  14.907 -0.4047 -1.5018  1.6744
  877TIP3   OH224045   6.437   6.396  10.366 -0.1833 -0.6015  0.7959
  877TIP3    H124046   6.510   6.336  10.351  2.8499  2.7472  0.8090
  877TIP3    H224047   6.439   6.457  10.292 -2.1690  0.3880  1.4633
  878TIP3   OH224048   5.814   6.189   5.985  0.7453  0.0629  0.1562
  878TIP3    H124049   5.802   6.199   6.079  0.9109  1.0446  0.0822
  878TIP3    H224050   5.908   6.173   5.975  0.7639  0.1773  0.1445
  879TIP3   OH224051   6.059   5.210   2.383 -0.1516  0.1328  0.4589
  879TIP3    H124052   6.130   5.269   2.359 -1.9966  2.1119 -0.5785
  879TIP3    H224053   6.078   5.182   2.472 -0.0821  3.9085  1.8009
  880TIP3   OH224054   6.118   1.478  15.435  0.2038  0.8624 -0.1508
  880TIP3    H124055   6.147   1.388  15.419 -0.6671  0.5874 -0.2272
  880TIP3    H224056   6.188   1.518  15.486 -0.4343 -0.5637  1.9464
  881TIP3   OH224057   6.407   6.107  12.207  0.7392 -0.1167 -0.1069
  881TIP3    H124058   6.315   6.116  12.181 -0.1932 -2.1798  2.0578
  881TIP3    H224059   6.424   6.183  12.262 -0.5947 -0.9665  1.6111
  882TIP3   OH224060   6.118   3.125   1.524 -0.1652  0.4623  0.0729
  882TIP3    H124061   6.192   3.081   1.482 -0.5000 -0.2056  0.1650
  882TIP3    H224062   6.137   3.218   1.514  0.3034  0.3062 -0.5854
  883TIP3   OH224063   6.206   4.697  13.834  0.2615  0.2947 -0.8783
  883TIP3    H124064   6.272   4.723  13.770  0.1859  1.4425 -0.5120
  883TIP3    H224065   6.123   4.711  13.789  0.1944  1.5492 -0.3803
  884TIP3   OH224066   4.977   3.389  13.515  0.0701  0.2701  0.1722
  884TIP3    H124067   5.070   3.399  13.499  0.5654 -1.0756  1.9562
  884TIP3    H224068   4.951   3.471  13.558  0.5074  0.4813  0.0426
  885TIP3   OH224069   5.880   5.327  10.691  0.3597  0.2201  0.0724
  885TIP3    H124070   5.941   5.400  10.707 -0.5026  0.9107  0.2880
  885TIP3    H224071   5.900   5.298  10.602  0.6217  0.8133 -0.0709
  886TIP3   OH224072   0.657   2.956   1.211  0.0646 -0.0664  0.0735
  886TIP3    H124073   0.607   3.035   1.230 -2.4991 -1.5888  0.1505
  886TIP3    H224074   0.685   2.967   1.120 -1.1714  0.4973 -0.2594
  887TIP3   OH224075   5.083   4.151   4.377  0.1158  0.1733  0.1922
  887TIP3    H124076   5.018   4.153   4.307 -0.3506  1.0174  0.6227
  887TIP3    H224077   5.040   4.198   4.450  0.5762 -0.7021  1.0426
  888TIP3   OH224078   1.910   2.947   3.959 -0.1814  0.3991  0.1316
  888TIP3    H124079   2.001   2.924   3.940  0.0395  1.4189 -0.1511
  888TIP3    H224080   1.858   2.880   3.915  0.4295  0.1077 -0.1584
  889TIP3   OH224081   1.901   1.926   3.129 -0.6098  0.1814 -0.1835
  889TIP3    H124082   1.838   1.963   3.191 -2.7214  0.0347 -2.1235
  889TIP3    H224083   1.915   1.996   3.065  1.8304  0.4704  0.5535
  890TIP3   OH224084   3.846   2.070  16.303  0.2405  0.5593 -0.4475
  890TIP3    H124085   3.904   2.023  16.364  0.2929 -1.4232 -1.9194
  890TIP3    H224086   3.906   2.118  16.245  0.2600  1.0196 -0.0524
  891TIP3   OH224087   1.464   0.148   3.345 -0.0790 -0.6863 -0.1114
  891TIP3    H124088   1.504   0.161   3.259 -1.9503  1.1339 -0.7977
  891TIP3    H224089   1.414   0.229   3.360 -2.8278 -2.4522  0.9717
  892TIP3   OH224090   3.841   0.454   1.607  0.4425 -0.0679  0.1889
  892TIP3    H124091   3.816   0.479   1.518  1.6568 -0.2597 -0.2302
  892TIP3    H224092   3.895   0.376   1.596 -0.0693 -0.5743  1.1739
  893TIP3   OH224093   0.379   2.089   1.392 -0.3777 -0.4105  0.0727
  893TIP3    H124094   0.408   2.171   1.431  0.0027 -1.0182  1.1360
  893TIP3    H224095   0.286   2.082   1.415 -0.1763 -0.7251  0.8494
  894TIP3   OH224096   4.467   2.134  16.779  0.7262  1.2053  0.2885
  894TIP3    H124097   4.438   2.211  16.730 -0.6421  1.1461  0.9591
  894TIP3    H224098   4.562   2.131  16.766  0.4951  1.5415 -1.8327
  895TIP3   OH224099   4.649   5.852   2.704  0.3701 -0.0524 -0.4167
  895TIP3    H124100   4.663   5.894   2.619  0.0477  0.4205 -0.2401
  895TIP3    H224101   4.564   5.808   2.696  0.6810 -0.6425 -0.5830
  896TIP3   OH224102   0.556   2.477   4.731  0.3239 -0.0845  0.4945
  896TIP3    H124103   0.517   2.517   4.653 -0.0683 -0.3861  0.5317
  896TIP3    H224104   0.640   2.444   4.702 -0.4583 -1.5607 -0.1931
  897TIP3   OH224105   4.458   3.263  14.361 -0.1564 -0.4664 -0.3614
  897TIP3    H124106   4.539   3.263  14.411 -1.4133  0.8842  1.8801
  897TIP3    H224107   4.479   3.310  14.280  1.2782 -0.1826  0.1556
  898TIP3   OH224108   2.317   6.616  11.855  0.2803  0.5147 -0.2341
  898TIP3    H124109   2.263   6.632  11.933 -1.4706  0.8351 -1.4511
  898TIP3    H224110   2.394   6.671  11.867 -0.4658  1.3786  0.7689
  899TIP3   OH224111   5.281   5.056  14.298  0.0357 -0.4105 -0.4564
  899TIP3    H124112   5.360   5.012  14.329  0.7408  1.4308  0.4837
  899TIP3    H224113   5.249   5.000  14.226  2.3391 -1.0311 -1.0729
  900TIP3   OH224114   2.314   4.356   1.217 -0.0495 -0.2684  0.2916
  900TIP3    H124115   2.407   4.344   1.233  0.2137 -0.0141 -0.9402
  900TIP3    H224116   2.281   4.399   1.296  0.6639 -1.2640  1.1576
  901TIP3   OH224117   4.820   4.060  12.436 -0.5948  0.3503 -0.2844
  901TIP3    H124118   4.862   4.133  12.389 -0.6372  2.2381  2.3982
  901TIP3    H224119   4.860   4.060  12.522 -0.0904 -3.3695 -0.3567
  902TIP3   OH224120   3.472   1.469  15.680  0.5672  0.2153  0.8529
  902TIP3    H124121   3.547   1.426  15.721  1.1371  0.0630 -0.2991
  902TIP3    H224122   3.450   1.413  15.605 -0.2853  0.6021  0.8030
  903TIP3   OH224123   3.441   4.967  16.838  0.1842 -0.0289 -0.2358
  903TIP3    H124124   3.450   4.969  16.743  2.1756 -1.0158 -0.1344
  903TIP3    H224125   3.501   4.897  16.866 -1.7748 -1.0905  1.6101
  904TIP3   OH224126   2.431   0.129   0.263 -0.1119 -0.0554 -0.3995
  904TIP3    H124127   2.347   0.088   0.283 -0.4577  0.4669 -0.7800
  904TIP3    H224128   2.496   0.072   0.307 -0.6473 -0.5013 -0.1710
  905TIP3   OH224129   5.672   4.793   5.506 -0.2029  0.1729 -0.0654
  905TIP3    H124130   5.625   4.855   5.561 -0.7371  0.4062 -0.7657
  905TIP3    H224131   5.637   4.808   5.418  0.2640 -0.5445 -0.3824
  906TIP3   OH224132   2.580   5.027  12.143  0.2401  0.0149  0.4464
  906TIP3    H124133   2.566   4.981  12.060  0.7015  0.5778  0.0437
  906TIP3    H224134   2.588   5.119  12.118 -2.2758  0.5510  1.4011
  907TIP3   OH224135   1.114   3.909   5.886 -0.4974  0.8171  0.0386
  907TIP3    H124136   1.188   3.965   5.862  0.2451 -0.1755 -0.0498
  907TIP3    H224137   1.113   3.840   5.820 -1.3348  0.6630  0.2010
  908TIP3   OH224138   2.519   4.895   5.708  0.6785  0.0342 -0.3709
  908TIP3    H124139   2.595   4.953   5.712 -0.4435  1.5454  0.0214
  908TIP3    H224140   2.451   4.946   5.664 -0.5148 -0.7923  0.4233
  909TIP3   OH224141   5.459   4.829  13.130  0.1003  0.2382  0.2936
  909TIP3    H124142   5.541   4.800  13.089 -1.3227 -2.3598 -0.9859
  909TIP3    H224143   5.441   4.763  13.197 -0.8115  0.9553  0.7825
  910TIP3   OH224144   2.119   6.715  17.188 -0.4830 -0.0014  0.3820
  910TIP3    H124145   2.115   6.624  17.215  0.2559  0.2271  1.3363
  910TIP3    H224146   2.033   6.751  17.211 -1.2626 -0.7475 -1.2229
  911TIP3   OH224147   0.120   1.859   3.001  0.2486 -0.0663  0.2061
  911TIP3    H124148   0.192   1.905   3.043 -0.3672 -0.8226  2.2018
  911TIP3    H224149   0.078   1.925   2.946  0.8645  1.0864  1.0791
  912TIP3   OH224150   3.783   3.280   2.861 -0.2013  0.4578 -0.7428
  912TIP3    H124151   3.871   3.275   2.823 -0.2299  0.5258 -0.8169
  912TIP3    H224152   3.741   3.199   2.833 -0.5169  0.9025 -1.5857
  913TIP3   OH224153   0.046   5.207   2.254  0.3891  0.1684 -0.2085
  913TIP3    H124154   0.083   5.293   2.276 -0.0065  0.1103  0.7335
  913TIP3    H224155   0.054   5.202   2.159 -0.2578  1.5720 -0.3685
  914TIP3   OH224156   2.840   0.313  15.153  0.0682  0.8924  0.4778
  914TIP3    H124157   2.834   0.356  15.068  2.2878 -0.3318 -0.3838
  914TIP3    H224158   2.930   0.280  15.156 -0.3104 -0.0816  2.8359
  915TIP3   OH224159   1.998   6.251   4.620  0.0745 -0.3598 -0.0812
  915TIP3    H124160   2.041   6.228   4.537  2.3561  0.7908  0.7080
  915TIP3    H224161   1.967   6.340   4.607 -0.2179 -0.4372  0.0734
  916TIP3   OH224162   0.206   0.820   6.230  0.0567  0.7486  0.2163
  916TIP3    H124163   0.236   0.862   6.311 -0.3900  1.4130  0.0451
  916TIP3    H224164   0.251   0.736   6.229  1.1305  1.2938  0.4762
  917TIP3   OH224165   6.542   6.354  16.406 -0.6718  0.4536 -0.7548
  917TIP3    H124166   6.592   6.395  16.477 -1.1574 -0.0475 -0.1061
  917TIP3    H224167   6.460   6.404  16.403 -0.5049  0.6962 -1.1967
  918TIP3   OH224168   0.742   5.785  16.237  0.5041  0.8408  0.5482
  918TIP3    H124169   0.761   5.777  16.143 -2.0707  1.5245 -0.1114
  918TIP3    H224170   0.719   5.696  16.264  1.9886  0.4975  0.7461
  919TIP3   OH224171   5.946   3.470   5.137 -0.4982  0.0282  0.1786
  919TIP3    H124172   5.875   3.532   5.122  0.7047  1.5661  0.6448
  919TIP3    H224173   5.999   3.474   5.058 -0.8810 -1.1054 -0.1624
  920TIP3   OH224174   4.089   1.757  11.790  0.6014 -0.4034  0.2302
  920TIP3    H124175   4.056   1.754  11.699 -0.4327  1.0128  0.5290
  920TIP3    H224176   4.180   1.784  11.782  0.5378 -0.3596 -0.3971
  921TIP3   OH224177   4.866   0.719  15.991 -0.1617 -0.0124 -0.0712
  921TIP3    H124178   4.786   0.668  15.994 -0.3232  0.2057 -0.7326
  921TIP3    H224179   4.843   0.802  16.032 -0.9529  0.9765 -2.3861
  922TIP3   OH224180   4.036   6.510  13.125  0.9628 -0.0513  0.3770
  922TIP3    H124181   4.109   6.467  13.080  0.6435 -0.3253  0.1094
  922TIP3    H224182   4.074   6.542  13.207  1.4061 -0.0976  0.1945
  923TIP3   OH224183   5.150   1.201  13.839  0.5897 -0.1506 -0.0285
  923TIP3    H124184   5.092   1.133  13.806  0.9475 -0.5877  0.2251
  923TIP3    H224185   5.099   1.247  13.905  0.0643  0.3632 -0.7717
  924TIP3   OH224186   3.262   5.371   1.113  0.7748 -0.4404 -0.1977
  924TIP3    H124187   3.248   5.450   1.166  0.9894 -0.3752 -0.2372
  924TIP3    H224188   3.255   5.401   1.023  0.3110 -0.5710 -0.2065
  925TIP3   OH224189   2.077   3.181  14.067  0.2060 -0.0241 -0.0790
  925TIP3    H124190   2.067   3.089  14.042  0.1387 -0.0977  0.2148
  925TIP3    H224191   2.157   3.210  14.023  0.5612 -0.3955  0.3146
  926TIP3   OH224192   4.359   4.886  14.003 -0.3787 -0.0917 -0.2119
  926TIP3    H124193   4.431   4.868  14.064  0.4342  0.7227 -0.9005
  926TIP3    H224194   4.347   4.981  14.008  0.8405  0.2637 -2.5100
  927TIP3   OH224195   1.711   5.563  16.474 -0.0923 -0.0968 -0.4983
  927TIP3    H124196   1.796   5.522  16.485 -0.6121 -0.6784  2.1242
  927TIP3    H224197   1.648   5.492  16.486 -0.9854  0.3915 -1.9811
  928TIP3   OH224198   0.549   3.801   2.139  0.2407 -0.7423 -0.8423
  928TIP3    H124199   0.490   3.809   2.063 -0.5091 -1.9360 -0.4086
  928TIP3    H224200   0.632   3.773   2.102  1.4482  3.3185 -1.7972
  929TIP3   OH224201   2.083   3.767   1.501 -0.0656  0.3255  0.5501
  929TIP3    H124202   2.032   3.845   1.477  0.5035  0.1169 -1.5789
  929TIP3    H224203   2.052   3.699   1.441  2.3190  0.0544 -0.4727
  930TIP3   OH224204   6.364   3.276  11.842  0.9801 -0.7149  0.8057
  930TIP3    H124205   6.439   3.325  11.875  1.3620 -2.6227  3.0870
  930TIP3    H224206   6.308   3.263  11.919 -2.9405  2.4550 -1.1563
  931TIP3   OH224207   2.156   6.494  16.695 -0.1163 -0.0062 -0.2695
  931TIP3    H124208   2.229   6.500  16.757  0.4265  0.6178 -0.9447
  931TIP3    H224209   2.160   6.576  16.646  0.4153 -1.0802 -2.1247
  932TIP3   OH224210   6.572   2.273   4.671 -0.0020 -0.1416 -0.2963
  932TIP3    H124211   6.479   2.252   4.674 -0.3078  1.1509  2.8593
  932TIP3    H224212   6.615   2.196   4.709 -0.1376  0.4680  1.1715
  933TIP3   OH224213   3.229   4.592   0.068 -0.1102  0.1943  0.5274
  933TIP3    H124214   3.219   4.636  -0.016 -1.5621  0.0555  0.6067
  933TIP3    H224215   3.320   4.607   0.092  0.2962  0.3354 -1.0090
  934TIP3   OH224216   1.451   2.564  15.909  0.0468 -0.4498 -0.2680
  934TIP3    H124217   1.482   2.642  15.955  0.3348  0.1293 -1.4012
  934TIP3    H224218   1.419   2.506  15.978 -0.9171  0.9946  0.5469
  935TIP3   OH224219   2.353   1.459   2.340 -0.0831 -0.4517  0.4637
  935TIP3    H124220   2.406   1.464   2.419  1.5914 -1.2779 -0.5600
  935TIP3    H224221   2.339   1.550   2.315 -2.0532 -0.0927  2.5543
  936TIP3   OH224222   6.273   0.574   0.488 -0.6683  0.2729  0.1139
  936TIP3    H124223   6.306   0.587   0.577  0.1215  0.0362 -0.1265
  936TIP3    H224224   6.236   0.658   0.462  1.2595  1.0741 -0.1942
  937TIP3   OH224225   2.501   5.694   6.023 -1.0019  0.9686 -0.1876
  937TIP3    H124226   2.546   5.778   6.015  0.1149  0.6049  1.6786
  937TIP3    H224227   2.559   5.640   6.076 -2.2421 -0.6025 -0.3332
  938TIP3   OH224228   3.686   2.188   5.477 -0.2959 -0.2450 -0.5468
  938TIP3    H124229   3.609   2.241   5.458 -1.3267 -1.3864  0.3782
  938TIP3    H224230   3.657   2.098   5.471  1.4850 -0.8004 -2.2703
  939TIP3   OH224231   5.287   1.052  10.677 -0.0263  0.2680 -0.3769
  939TIP3    H124232   5.334   1.091  10.602 -2.3450  2.0694 -0.9925
  939TIP3    H224233   5.251   0.971  10.642 -2.2101  1.7323 -1.7209
  940TIP3   OH224234   0.132   4.088   5.858 -0.4594  0.4345  0.0805
  940TIP3    H124235   0.148   4.034   5.780 -2.4315 -0.0634 -0.0481
  940TIP3    H224236   0.142   4.027   5.932 -2.5968 -0.1946 -0.0604
  941TIP3   OH224237   1.090   3.990   3.384 -0.2164  0.3256  0.2412
  941TIP3    H124238   1.005   3.981   3.428 -0.0967 -1.5394  0.1523
  941TIP3    H224239   1.068   4.026   3.298 -0.8971  0.0502  0.2912
  942TIP3   OH224240   1.546   6.697   5.321 -0.4387  0.1196  1.0655
  942TIP3    H124241   1.544   6.614   5.273 -1.1735  0.8812 -0.3111
  942TIP3    H224242   1.598   6.679   5.399 -1.6915 -1.9807  1.4848
  943TIP3   OH224243   6.712   2.026   1.924  0.0231  0.1796  0.1092
  943TIP3    H124244   6.731   2.009   2.016 -3.2274 -0.0519  0.8689
  943TIP3    H224245   6.669   2.112   1.924  2.0016  1.2576 -1.5721
  944TIP3   OH224246   1.905   0.051  14.092 -0.4406  0.1082  0.2507
  944TIP3    H124247   1.851   0.129  14.105 -0.5016  0.0280  0.4840
  944TIP3    H224248   1.980   0.064  14.149 -0.4866 -0.0374  0.3441
  945TIP3   OH224249   2.831   2.044  16.022  0.1260  0.2231  0.1930
  945TIP3    H124250   2.803   2.052  15.931 -0.3517  1.6219  0.4367
  945TIP3    H224251   2.926   2.034  16.016  0.1160  0.4098 -0.4659
  946TIP3   OH224252   1.960   2.380  16.903 -0.3175 -0.4485 -0.7151
  946TIP3    H124253   1.949   2.301  16.956 -0.2004 -0.0210 -0.0361
  946TIP3    H224254   2.006   2.351  16.825 -0.1904 -1.0367 -0.4235
  947TIP3   OH224255   0.084   1.234   6.059  0.4212  0.5446 -0.1613
  947TIP3    H124256   0.040   1.169   6.004  1.9685 -2.1083  1.4707
  947TIP3    H224257   0.030   1.238   6.138  1.4750 -0.5209  0.6503
  948TIP3   OH224258   1.115   0.046  12.752  0.2075 -0.0777  0.0806
  948TIP3    H124259   1.121   0.047  12.656  2.6393 -1.0153  0.1483
  948TIP3    H224260   1.021   0.057  12.770 -0.2014  1.2090 -2.3470
  949TIP3   OH224261   5.491   4.913  14.223 -0.3145  0.4936 -0.0283
  949TIP3    H124262   5.568   4.940  14.274 -0.5592 -0.0998  0.6596
  949TIP3    H224263   5.470   4.990  14.169  0.9203  0.5797 -0.4285
  950TIP3   OH224264   0.479   4.798   3.102 -0.0308 -0.3740  0.4408
  950TIP3    H124265   0.527   4.864   3.153  0.2001  1.3391 -1.8755
  950TIP3    H224266   0.545   4.761   3.043 -0.9309  0.0093 -0.8405
  951TIP3   OH224267   4.911   1.117   1.768 -0.0913 -0.1886  0.4222
  951TIP3    H124268   4.979   1.171   1.809 -0.0489  0.8932 -1.0003
  951TIP3    H224269   4.864   1.078   1.841 -0.4031  2.1246  1.5468
  952TIP3   OH224270   0.964   2.990   6.274  0.2607  0.0685 -0.4844
  952TIP3    H124271   0.927   2.907   6.303  0.3869  0.6945  1.5903
  952TIP3    H224272   1.052   2.968   6.244  0.4680 -0.4981  0.4939
  953TIP3   OH224273   0.859   2.250   2.039 -0.6282  0.0114 -0.6469
  953TIP3    H124274   0.806   2.311   2.089 -0.4559 -0.4449  0.1107
  953TIP3    H224275   0.866   2.173   2.095  2.5392  0.7916  0.2289
  954TIP3   OH224276   2.721   3.927   4.900 -0.4699  0.2018  0.4360
  954TIP3    H124277   2.693   3.843   4.862 -0.6434  1.8231 -3.4785
  954TIP3    H224278   2.642   3.963   4.939 -0.8989 -0.5965  0.3234
  955TIP3   OH224279   3.008   2.820   6.678  0.7155  0.1049  0.4995
  955TIP3    H124280   2.980   2.848   6.765 -2.6352  0.0802 -0.4116
  955TIP3    H224281   3.009   2.724   6.683  1.1293  0.1205  0.6823
  956TIP3   OH224282   5.996   1.042   4.545 -0.1795 -0.0066  0.1912
  956TIP3    H124283   5.916   1.089   4.520  0.0965  0.1067 -0.5138
  956TIP3    H224284   6.066   1.092   4.503  0.3361  0.3461  1.4539
  957TIP3   OH224285   6.381   1.657  17.246  0.4177 -0.0253  0.3271
  957TIP3    H124286   6.379   1.648  17.341 -1.4185 -0.7897  0.2638
  957TIP3    H224287   6.425   1.740  17.231  0.2089  0.3994  1.8722
  958TIP3   OH224288   0.770   1.069  11.924  0.0542 -0.4262 -0.3946
  958TIP3    H124289   0.689   1.033  11.959  0.2360 -0.2615  0.2173
  958TIP3    H224290   0.816   1.103  12.001  0.7917 -0.6971 -0.7074
  959TIP3   OH224291   4.431   0.356   5.418 -0.1183  0.0488 -0.4545
  959TIP3    H124292   4.483   0.435   5.431 -1.0541  0.6779 -0.4712
  959TIP3    H224293   4.437   0.310   5.502  0.7837 -0.0819 -0.5862
  960TIP3   OH224294   3.503   2.895   5.275  0.2789  1.1657  0.5076
  960TIP3    H124295   3.541   2.883   5.188  0.3201  2.4888  0.3210
  960TIP3    H224296   3.451   2.816   5.289 -0.3651  1.2605 -1.0651
  961TIP3   OH224297   3.559   3.840   4.872 -0.5351  0.7003 -0.4226
  961TIP3    H124298   3.597   3.926   4.851  1.5280  0.1226  0.7591
  961TIP3    H224299   3.604   3.812   4.951 -2.6542 -0.5968  0.4079
  962TIP3   OH224300   5.299   3.262  11.648 -0.0613 -0.2932  0.5071
  962TIP3    H124301   5.315   3.347  11.689 -1.3922  0.4836 -0.5257
  962TIP3    H224302   5.377   3.210  11.670  1.1945  1.4670  0.4227
  963TIP3   OH224303   1.701   4.500   2.583 -0.3714 -0.3048  0.3516
  963TIP3    H124304   1.761   4.441   2.627  0.8171  1.0943  0.6927
  963TIP3    H224305   1.650   4.540   2.654  1.2599  1.6407  0.5122
  964TIP3   OH224306   2.338   2.482  14.658 -0.1887 -0.0166  0.2380
  964TIP3    H124307   2.362   2.538  14.732  1.6257 -1.0606  0.4980
  964TIP3    H224308   2.246   2.461  14.672 -0.1575  0.6868  1.6023
  965TIP3   OH224309   1.837   4.228   2.297  0.2802 -0.2009 -0.1952
  965TIP3    H124310   1.907   4.216   2.361 -0.9437 -1.4274  0.9921
  965TIP3    H224311   1.843   4.320   2.272  0.3432  0.5453  2.2968
  966TIP3   OH224312   6.360   5.172   4.068  0.1381 -0.2856  0.3183
  966TIP3    H124313   6.408   5.226   4.131  2.0771  0.6458 -1.8373
  966TIP3    H224314   6.400   5.085   4.075  2.1565  0.4321 -1.3140
  967TIP3   OH224315   4.621   0.954   5.572  0.1054  0.5589 -0.0043
  967TIP3    H124316   4.543   0.973   5.519  0.9754  2.4828 -0.7026
  967TIP3    H224317   4.671   1.036   5.571  1.7568 -0.3744  1.0971
  968TIP3   OH224318   0.325   5.934   3.123 -0.2020 -0.0239  0.2591
  968TIP3    H124319   0.398   5.905   3.069 -0.8393 -1.5643  0.1495
  968TIP3    H224320   0.279   5.998   3.070 -0.6382 -1.2827 -0.9322
  969TIP3   OH224321   3.326   6.410   2.052  0.1466 -0.0341 -0.0142
  969TIP3    H124322   3.394   6.475   2.074 -1.0183  1.2405 -0.0347
  969TIP3    H224323   3.253   6.431   2.110 -1.0949  0.1253 -1.5690
  970TIP3   OH224324   4.987   2.527  13.223 -0.2781  0.0743 -0.6118
  970TIP3    H124325   4.913   2.487  13.178 -0.6030  0.6609 -0.6110
  970TIP3    H224326   5.064   2.496  13.176 -0.4767 -1.0588 -0.2231
  971TIP3   OH224327   3.417   3.166  12.840 -0.5372 -0.4484 -0.1001
  971TIP3    H124328   3.333   3.210  12.857 -0.6384 -0.6279 -0.1330
  971TIP3    H224329   3.460   3.222  12.775 -0.3160  0.0289  0.4575
  972TIP3   OH224330   1.461   3.070  16.637 -0.3058 -0.7936 -0.0283
  972TIP3    H124331   1.465   2.985  16.682  1.8450 -1.5297 -1.4510
  972TIP3    H224332   1.487   3.134  16.704  0.6120 -1.5825  0.3993
  973TIP3   OH224333   0.605   5.734  13.555 -0.2559 -0.6783  0.4979
  973TIP3    H124334   0.511   5.722  13.547 -0.3906  0.9186 -0.8545
  973TIP3    H224335   0.643   5.666  13.498 -0.5071 -1.9500  1.7890
  974TIP3   OH224336   5.463   4.608  14.811 -0.3192 -0.6752 -0.3125
  974TIP3    H124337   5.532   4.635  14.750  0.1111  1.1251  0.8770
  974TIP3    H224338   5.419   4.690  14.834 -0.6926 -1.3459  1.4939
  975TIP3   OH224339   5.646   1.552   2.608  0.5798 -0.1829  0.3057
  975TIP3    H124340   5.738   1.532   2.626  0.0218 -2.9097  0.5094
  975TIP3    H224341   5.603   1.545   2.693 -0.0512 -0.4540 -0.0289
  976TIP3   OH224342   2.731   2.306  11.418  0.1734 -0.5975  0.1460
  976TIP3    H124343   2.827   2.301  11.418  0.3953  2.2357 -0.2984
  976TIP3    H224344   2.709   2.343  11.503 -0.2729  1.3540 -0.7700
  977TIP3   OH224345   4.676   5.944   3.858  0.6349 -0.2921  0.3141
  977TIP3    H124346   4.707   6.024   3.901 -1.1287  1.1876 -1.0433
  977TIP3    H224347   4.615   5.905   3.921 -0.0022  0.5091  0.2068
  978TIP3   OH224348   5.305   1.626   1.467 -0.6121  0.1662  0.1801
  978TIP3    H124349   5.345   1.695   1.518  0.2905  1.9031 -2.6346
  978TIP3    H224350   5.379   1.580   1.427 -1.2747  0.3760 -1.3637
  979TIP3   OH224351   3.993   4.341  15.070 -0.3511 -0.3653  0.1405
  979TIP3    H124352   4.039   4.361  15.151  0.8524 -0.2591 -0.5397
  979TIP3    H224353   3.949   4.423  15.046 -1.7029 -0.7257  1.2737
  980TIP3   OH224354   2.964   5.028  11.207  0.1638  0.5340  0.2713
  980TIP3    H124355   2.972   4.933  11.196  0.9665  0.4254  1.5723
  980TIP3    H224356   3.041   5.052  11.259 -0.1895  1.8545  0.2046
  981TIP3   OH224357   2.562   2.069  14.546  0.1244  0.0538 -0.3348
  981TIP3    H124358   2.653   2.049  14.567  0.1219  0.6829  0.3067
  981TIP3    H224359   2.510   2.010  14.601  0.1318 -0.4533 -0.8540
  982TIP3   OH224360   0.326   4.253  11.309 -0.0628 -0.1104 -0.3710
  982TIP3    H124361   0.360   4.329  11.262  0.4063 -0.2740 -0.3026
  982TIP3    H224362   0.323   4.184  11.242 -1.9501  0.3569 -0.8247
  983TIP3   OH224363   5.293   5.309   2.639 -0.8940  0.0400 -0.1679
  983TIP3    H124364   5.323   5.277   2.553  0.3045  0.2991  0.1337
  983TIP3    H224365   5.319   5.240   2.700  0.2321  0.8146  0.2663
  984TIP3   OH224366   5.266   2.201   4.918  0.8821 -0.1180  0.5178
  984TIP3    H124367   5.234   2.151   4.993 -0.6922  0.4245  0.2444
  984TIP3    H224368   5.296   2.134   4.856 -1.3557 -0.7956  0.0870
  985TIP3   OH224369   1.593   3.546  13.006  0.0336 -0.0370 -0.3576
  985TIP3    H124370   1.685   3.562  12.984  0.1505  1.8365  1.2058
  985TIP3    H224371   1.596   3.473  13.068  0.2165 -1.3503 -1.8276
  986TIP3   OH224372   3.639   4.011  11.367 -0.1062 -0.4072 -0.4513
  986TIP3    H124373   3.547   4.012  11.340 -0.3377 -0.4712  0.3130
  986TIP3    H224374   3.688   4.023  11.285 -0.8266  1.2306 -0.6887
  987TIP3   OH224375   5.628   2.315  15.742  0.0938  0.5657  0.3846
  987TIP3    H124376   5.638   2.360  15.658  0.2894  0.3676  0.3014
  987TIP3    H224377   5.695   2.354  15.799 -1.7908  2.6889  1.3209
  988TIP3   OH224378   2.629   2.390  16.889 -0.7053 -0.0436 -0.4884
  988TIP3    H124379   2.578   2.310  16.896 -1.1023  0.2374 -0.0820
  988TIP3    H224380   2.634   2.408  16.795 -1.3937 -0.0548 -0.5325
  989TIP3   OH224381   0.919   3.568   1.132  0.0737  0.1926 -0.5784
  989TIP3    H124382   0.941   3.614   1.052  0.1019 -1.2671 -1.4502
  989TIP3    H224383   0.955   3.622   1.202  1.9197  0.4466 -1.6630
  990TIP3   OH224384   6.342   1.938  11.195  0.5252  0.0443  0.2099
  990TIP3    H124385   6.340   1.842  11.194 -1.0681  0.0388  0.2441
  990TIP3    H224386   6.400   1.962  11.123  1.0884 -0.9453  0.3183
  991TIP3   OH224387   1.340   1.889   3.082 -0.0825 -0.0600  0.4374
  991TIP3    H124388   1.419   1.879   3.028  0.2446  0.1282  0.8784
  991TIP3    H224389   1.300   1.802   3.082  0.0545 -0.1234  0.1020
  992TIP3   OH224390   2.257   5.737  11.477  0.4149 -0.0214 -0.1891
  992TIP3    H124391   2.340   5.691  11.486 -0.1778 -1.0609  0.1369
  992TIP3    H224392   2.246   5.783  11.560  0.7018  0.1988 -0.2703
  993TIP3   OH224393   3.941   0.556  12.840 -0.6981 -0.0189  0.1877
  993TIP3    H124394   3.904   0.641  12.865  2.5281  1.8097 -0.7153
  993TIP3    H224395   4.035   0.572  12.832 -0.2411 -2.9949 -2.6645
  994TIP3   OH224396   4.851   0.114   0.526 -0.6170  0.2040 -0.8188
  994TIP3    H124397   4.856   0.022   0.499  1.1535  0.4023 -1.2837
  994TIP3    H224398   4.942   0.139   0.543 -0.9916  2.0606 -1.3270
  995TIP3   OH224399   3.323   2.161   3.455  0.0634  0.3474  0.1355
  995TIP3    H124400   3.240   2.113   3.451  0.3499 -0.1341 -0.1796
  995TIP3    H224401   3.373   2.129   3.380  1.2023 -0.6454  1.2540
  996TIP3   OH224402   2.635   1.280   1.118 -0.3085  0.3231  0.0902
  996TIP3    H124403   2.615   1.315   1.031 -2.0408 -2.4533 -0.7706
  996TIP3    H224404   2.719   1.235   1.106 -0.9285 -0.7348 -0.4060
  997TIP3   OH224405   3.711   6.294   1.713  0.2631 -0.1556 -0.1174
  997TIP3    H124406   3.712   6.225   1.646  0.6557  0.2124 -0.4950
  997TIP3    H224407   3.622   6.292   1.748  0.4281 -1.2395  0.2673
  998TIP3   OH224408   1.595   5.158  15.872  0.1779 -0.0860  0.1461
  998TIP3    H124409   1.606   5.179  15.779 -0.5376 -2.3361 -0.5031
  998TIP3    H224410   1.684   5.144  15.905  0.3362 -1.3659 -0.7643
  999TIP3   OH224411   0.991   3.902  11.868 -0.3321 -0.4273 -0.0205
  999TIP3    H124412   0.922   3.952  11.826  0.0374  0.5695  0.5328
  999TIP3    H224413   1.035   3.964  11.926  0.9703 -1.0454 -0.2847
 1000TIP3   OH224414   0.572   0.701  14.721  0.2237  1.0508  0.1085
 1000TIP3    H124415   0.628   0.632  14.756 -1.1617  0.0097  0.3591
 1000TIP3    H224416   0.536   0.664  14.640 -0.1357  1.6593 -0.0158
 1001TIP3   OH224417   1.970   1.970   5.273 -0.4503 -0.5905  0.5932
 1001TIP3    H124418   2.024   1.921   5.336  0.3405 -0.3735  0.0941
 1001TIP3    H224419   2.031   2.027   5.228 -1.2645  0.3998  0.7085
 1002TIP3   OH224420   2.768   4.045  15.169  0.3572  0.5236  0.1799
 1002TIP3    H124421   2.826   3.970  15.174 -0.2256  0.0378 -0.3077
 1002TIP3    H224422   2.818   4.112  15.122  1.7120  1.2442  2.5181
 1003TIP3   OH224423   4.536   0.002   5.501 -0.5396  0.4133  0.0654
 1003TIP3    H124424   4.569   0.049   5.425 -0.8518 -0.1164 -0.4025
 1003TIP3    H224425   4.441   0.011   5.496 -0.7273 -1.5167 -0.8872
 1004TIP3   OH224426   6.284   1.758  14.185  0.6051 -0.0020 -0.5674
 1004TIP3    H124427   6.335   1.721  14.257  1.4655 -0.2306 -1.2729
 1004TIP3    H224428   6.247   1.838  14.221  1.9387  0.4770 -0.1961
 1005TIP3   OH224429   5.885   4.141   0.855 -0.3982 -0.9111  0.0255
 1005TIP3    H124430   5.921   4.129   0.943  4.5087  0.9600 -1.3354
 1005TIP3    H224431   5.858   4.053   0.828 -0.5908 -1.8123  2.8064
 1006TIP3   OH224432   3.382   4.120  16.030 -0.1026  0.4041  0.0569
 1006TIP3    H124433   3.413   4.076  15.951  0.4446  0.0481  0.4636
 1006TIP3    H224434   3.449   4.184  16.050  0.6385 -0.6860  1.2037
 1007TIP3   OH224435   5.265   2.967   1.589 -0.9267  0.3201 -0.0961
 1007TIP3    H124436   5.257   3.022   1.667 -2.8095  0.7118 -0.4959
 1007TIP3    H224437   5.244   2.879   1.619  1.7589 -0.1949  0.4772
 1008TIP3   OH224438   5.131   5.352   5.650  0.4781  0.3014 -0.1610
 1008TIP3    H124439   5.100   5.287   5.588  2.2633 -0.7740  0.0151
 1008TIP3    H224440   5.051   5.395   5.681 -0.7567 -1.7356 -0.3434
 1009TIP3   OH224441   0.848   4.620   5.797  0.4928  0.1859 -0.4653
 1009TIP3    H124442   0.897   4.539   5.777  1.3890  1.0358 -1.9001
 1009TIP3    H224443   0.864   4.634   5.890  2.2161 -0.1059 -0.6739
 1010TIP3   OH224444   0.299   1.017  15.443  0.3729 -0.1216  0.5931
 1010TIP3    H124445   0.327   1.090  15.388 -0.0151  0.1464  0.7552
 1010TIP3    H224446   0.204   1.018  15.438  0.3760 -0.9170  0.2027
 1011TIP3   OH224447   5.549   3.530  12.464  0.2815  0.3195  0.3542
 1011TIP3    H124448   5.502   3.460  12.509 -0.0413  0.1241 -0.2730
 1011TIP3    H224449   5.495   3.608  12.479  1.2004  0.6874  1.9794
 1012TIP3   OH224450   4.124   6.058   4.206  0.4121  0.4504 -0.2285
 1012TIP3    H124451   4.126   5.969   4.170 -0.5504  0.4055 -0.1825
 1012TIP3    H224452   4.048   6.099   4.165  0.3123  0.9631  0.4540
 1013TIP3   OH224453   0.441   5.546  15.773 -0.5097  0.0043 -0.0570
 1013TIP3    H124454   0.452   5.452  15.761 -2.1255 -0.0067 -1.8898
 1013TIP3    H224455   0.530   5.581  15.771  0.0414 -1.3464 -0.5461
 1014TIP3   OH224456   5.714   6.207   5.743 -0.2834 -0.0372 -0.2064
 1014TIP3    H124457   5.745   6.194   5.832 -1.0167  0.6196  0.1613
 1014TIP3    H224458   5.753   6.291   5.716 -4.6881  3.0320  1.7478
 1015TIP3   OH224459   4.006   2.589  11.954 -0.0083  0.0956 -0.7715
 1015TIP3    H124460   4.032   2.678  11.978 -1.6223  1.0062 -2.1207
 1015TIP3    H224461   3.955   2.558  12.028  1.2880 -0.0793  0.0796
 1016TIP3   OH224462   3.556   6.393  14.537  0.6249  0.1251 -0.3792
 1016TIP3    H124463   3.644   6.365  14.564  1.4535  2.9510  0.2454
 1016TIP3    H224464   3.565   6.411  14.444  0.8079  0.6146 -0.2737
 1017TIP3   OH224465   3.641   0.924  16.574 -0.7678  0.1460 -0.3559
 1017TIP3    H124466   3.550   0.947  16.596 -0.7733  0.7865 -1.0217
 1017TIP3    H224467   3.662   0.978  16.499 -0.2337 -0.8989 -0.9835
 1018TIP3   OH224468   5.598   6.678  13.326 -0.0542  0.4168  0.1055
 1018TIP3    H124469   5.553   6.618  13.385  0.4979 -0.7642 -0.6221
 1018TIP3    H224470   5.552   6.669  13.243  1.5571 -0.9594 -0.7077
 1019TIP3   OH224471   5.510   5.681  12.170 -0.1615  0.3365 -0.4125
 1019TIP3    H124472   5.573   5.748  12.142 -1.4209  1.7430  0.0084
 1019TIP3    H224473   5.537   5.658  12.259  0.6343 -0.1722 -0.7782
 1020TIP3   OH224474   3.594   3.948  15.099 -0.2990  0.5342  0.3572
 1020TIP3    H124475   3.628   3.860  15.113  0.9965  0.6919 -1.4312
 1020TIP3    H224476   3.502   3.942  15.125 -0.5276 -1.6522 -0.6988
 1021TIP3   OH224477   2.957   2.664  16.978  0.3384 -0.2784 -0.2249
 1021TIP3    H124478   3.023   2.731  16.996  1.0476 -0.8680 -0.5981
 1021TIP3    H224479   2.879   2.713  16.954  0.5127  0.4395  0.6254
 1022TIP3   OH224480   5.680   3.670   0.707 -0.1495 -0.0857  0.0270
 1022TIP3    H124481   5.680   3.621   0.625  0.6262  0.3118 -0.2232
 1022TIP3    H224482   5.617   3.625   0.763 -0.6355 -0.3975 -0.7671
 1023TIP3   OH224483   3.846   5.601   1.997 -0.3291  0.4742 -0.0804
 1023TIP3    H124484   3.916   5.612   2.061 -0.2382 -2.5904  0.5041
 1023TIP3    H224485   3.791   5.679   2.008  1.4849  1.6528  1.3178
 1024TIP3   OH224486   1.602   5.197   2.889  0.4829 -0.2082 -0.2008
 1024TIP3    H124487   1.533   5.131   2.897 -0.4605  0.7194 -0.3792
 1024TIP3    H224488   1.598   5.246   2.971 -0.0541  0.7415 -0.7702
 1025TIP3   OH224489   4.558   1.938   5.072  0.2520  0.4652 -0.2332
 1025TIP3    H124490   4.546   1.915   5.164 -0.6157 -0.1262 -0.4857
 1025TIP3    H224491   4.641   1.985   5.070 -0.4313  1.8609  1.1074
 1026TIP3   OH224492   2.399   6.469   0.589  0.2064 -0.3945 -0.5827
 1026TIP3    H124493   2.395   6.547   0.533 -0.1424  0.0232  0.0091
 1026TIP3    H224494   2.447   6.405   0.537 -1.2714 -0.4835 -1.9236
 1027TIP3   OH224495   5.615   2.727  12.277  0.2868  0.7231 -0.0491
 1027TIP3    H124496   5.527   2.705  12.309  0.9239 -1.6347  0.2710
 1027TIP3    H224497   5.609   2.819  12.251 -2.9450  0.0475 -2.2721
 1028TIP3   OH224498   4.674   4.476  15.483 -0.1514 -0.3018 -0.0192
 1028TIP3    H124499   4.672   4.524  15.400 -0.7884  1.9389  1.2102
 1028TIP3    H224500   4.646   4.387  15.460 -1.3884  0.5415 -2.0393
 1029TIP3   OH224501   2.769   1.788  12.119  0.3036 -0.0650 -0.2445
 1029TIP3    H124502   2.838   1.744  12.169  1.0672  1.0239 -0.3110
 1029TIP3    H224503   2.743   1.862  12.175 -1.4313 -0.9219  0.1748
 1030TIP3   OH224504   5.346   1.536  14.906 -0.0492 -0.1717  0.1969
 1030TIP3    H124505   5.404   1.575  14.840 -2.0591  2.1853 -0.3628
 1030TIP3    H224506   5.379   1.448  14.919  2.1283  0.2408 -1.8875
 1031TIP3   OH224507   4.689   6.029  16.073  0.4256 -0.1439  0.1387
 1031TIP3    H124508   4.617   5.993  16.022 -1.0593  1.1364  1.2302
 1031TIP3    H224509   4.679   6.124  16.065  1.1835  0.0698  1.3857
 1032TIP3   OH224510   1.859   3.464   1.442  0.8265 -0.0529  0.0634
 1032TIP3    H124511   1.773   3.431   1.469 -0.7239  3.2544 -0.3612
 1032TIP3    H224512   1.905   3.483   1.524  0.1161  0.5222  0.3387
 1033TIP3   OH224513   5.969   6.364   1.748  0.1989 -0.2328 -0.1493
 1033TIP3    H124514   5.941   6.281   1.786  1.0708 -0.5323 -0.1438
 1033TIP3    H224515   5.921   6.430   1.798 -0.6316 -0.7301 -0.2710
 1034TIP3   OH224516   2.134   1.264   2.881  0.7268 -0.2751  0.7731
 1034TIP3    H124517   2.147   1.335   2.818 -1.5279 -0.4667  0.0024
 1034TIP3    H224518   2.119   1.186   2.827 -1.1403 -0.4607  1.4607
 1035TIP3   OH224519   4.005   1.927   4.942  0.0010 -0.3485 -0.2399
 1035TIP3    H124520   3.947   1.990   4.899  0.6083  0.7303  0.4688
 1035TIP3    H224521   4.093   1.952   4.912  0.2569 -0.7982  0.1363
 1036TIP3   OH224522   0.732   0.569  11.355  0.3705  0.1805 -0.1175
 1036TIP3    H124523   0.670   0.636  11.381 -1.3620 -1.3288 -0.1758
 1036TIP3    H224524   0.678   0.497  11.322  2.1132 -1.3609  0.2011
 1037TIP3   OH224525   6.112   0.873  11.554 -0.5517 -0.3535 -0.0130
 1037TIP3    H124526   6.149   0.803  11.608 -0.7484 -0.9788 -0.6730
 1037TIP3    H224527   6.142   0.954  11.595  1.3009 -0.8343 -0.3353
 1038TIP3   OH224528   1.291   2.162  16.865 -0.4769 -0.4754 -0.0285
 1038TIP3    H124529   1.304   2.254  16.888 -0.3763 -0.6629  0.7025
 1038TIP3    H224530   1.379   2.128  16.847 -0.5591 -0.3222 -0.7243
 1039TIP3   OH224531   1.414   1.602  17.018  0.0921  0.6986 -0.7027
 1039TIP3    H124532   1.441   1.545  16.946  2.2514 -0.2629  0.7720
 1039TIP3    H224533   1.325   1.573  17.039  0.5896 -1.1572 -0.9588
 1040TIP3   OH224534   0.096   5.198   1.287 -0.3961 -0.1995 -0.1707
 1040TIP3    H124535   0.143   5.116   1.304 -0.3650 -0.2336 -0.4253
 1040TIP3    H224536   0.068   5.227   1.374  0.3908 -0.0038  0.0271
 1041TIP3   OH224537   0.607   5.921   5.482 -0.0827 -0.5380  0.1316
 1041TIP3    H124538   0.547   5.995   5.473 -2.0983 -2.1978 -1.0565
 1041TIP3    H224539   0.555   5.852   5.523  1.3320 -1.7350  0.0363
 1042TIP3   OH224540   0.565   4.393  17.031 -0.5874 -0.4022  0.4231
 1042TIP3    H124541   0.618   4.318  17.059 -0.1826 -0.5412 -0.6538
 1042TIP3    H224542   0.498   4.402  17.099 -1.4569 -2.5703 -0.0634
 1043TIP3   OH224543   1.941   6.436  14.578 -0.4183  0.1567  0.6216
 1043TIP3    H124544   1.930   6.349  14.617  1.9962 -0.2618  0.5329
 1043TIP3    H224545   2.029   6.463  14.604 -0.5431  1.9263 -0.6127
 1044TIP3   OH224546   5.462   2.586  11.562 -0.1979  0.3838  0.2437
 1044TIP3    H124547   5.435   2.509  11.510  1.2552 -0.2947  0.4378
 1044TIP3    H224548   5.554   2.570  11.581 -0.4833  1.0005  2.3827
 1045TIP3   OH224549   3.391   5.906  15.679  0.4609  0.7045  0.4493
 1045TIP3    H124550   3.427   5.951  15.755  1.7031  2.6040 -1.1716
 1045TIP3    H224551   3.310   5.867  15.711  1.3732  0.6846  2.9416
 1046TIP3   OH224552   4.021   5.792  14.429  0.5599  0.1026  0.1747
 1046TIP3    H124553   4.011   5.785  14.524 -0.7702  1.3584  0.1631
 1046TIP3    H224554   4.033   5.702  14.399 -1.3906 -0.5853  1.2960
 1047TIP3   OH224555   6.173   1.642   2.200  0.2237 -0.4263 -0.1586
 1047TIP3    H124556   6.105   1.620   2.137  1.2570 -0.3735 -1.3379
 1047TIP3    H224557   6.194   1.734   2.182 -0.4927  0.0384  1.2746
 1048TIP3   OH224558   4.000   3.707  15.482  0.2712  0.3070  0.1721
 1048TIP3    H124559   3.952   3.786  15.509 -1.2167 -0.3801 -0.3698
 1048TIP3    H224560   3.947   3.669  15.413  0.6540 -1.4913  0.8174
 1049TIP3   OH224561   0.199   5.694  13.960  1.0490 -0.4660 -0.3258
 1049TIP3    H124562   0.275   5.752  13.955  1.0778 -0.4979 -0.2443
 1049TIP3    H224563   0.140   5.737  14.022  0.8810 -0.3015 -0.5923
 1050TIP3   OH224564   4.307   3.088  12.957 -0.1518  0.2124 -0.0082
 1050TIP3    H124565   4.309   3.028  13.032 -1.0476 -1.7279 -1.4360
 1050TIP3    H224566   4.395   3.079  12.918 -0.8228 -1.6860 -1.2486
 1051TIP3   OH224567   1.086   6.687  10.878 -0.3470  0.0256 -0.8587
 1051TIP3    H124568   1.138   6.750  10.827 -2.7359  0.1968 -3.3337
 1051TIP3    H224569   1.112   6.601  10.843 -0.3234 -0.0381 -0.6858
 1052TIP3   OH224570   4.402   1.123  17.026 -0.3258  0.1736  0.7094
 1052TIP3    H124571   4.449   1.184  16.969 -0.9322  1.5425  1.6169
 1052TIP3    H224572   4.463   1.105  17.098  0.0874 -0.8268  0.1407
 1053TIP3   OH224573   2.356   2.884   1.271  0.0348  0.0410 -0.0770
 1053TIP3    H124574   2.418   2.955   1.286 -1.7043  1.7473 -0.5871
 1053TIP3    H224575   2.306   2.878   1.352 -2.0473  1.7707 -1.1323
 1054TIP3   OH224576   2.581   1.839  16.866 -0.2882 -0.9541  0.1912
 1054TIP3    H124577   2.603   1.777  16.796 -0.7766  0.7533 -1.5760
 1054TIP3    H224578   2.640   1.914  16.850 -2.6277  0.8545 -0.4991
 1055TIP3   OH224579   3.869   6.408  15.472  0.6473 -0.0674  0.0881
 1055TIP3    H124580   3.796   6.377  15.527  1.1624  0.1800  0.9406
 1055TIP3    H224581   3.928   6.451  15.534  0.0921  2.4041 -0.9747
 1056TIP3   OH224582   2.072   1.170   5.040  0.0930 -0.1378  0.9097
 1056TIP3    H124583   1.977   1.167   5.031  0.2937 -1.1405 -1.4128
 1056TIP3    H224584   2.104   1.190   4.952  2.0849 -1.1295  1.3515
 1057TIP3   OH224585   3.237   2.504  12.565 -0.1061 -0.6103 -0.2256
 1057TIP3    H124586   3.251   2.410  12.567  1.1673 -0.4888 -1.5393
 1057TIP3    H224587   3.270   2.532  12.480  0.6113  1.1770  0.5669
 1058TIP3   OH224588   3.190   2.562  11.449 -0.2034  0.3950 -0.1432
 1058TIP3    H124589   3.282   2.568  11.422  0.0420 -0.1252  0.5337
 1058TIP3    H224590   3.147   2.634  11.404  0.4856  0.4904 -0.6782
 1059TIP3   OH224591   0.882   0.120  13.731  0.0653  0.0014  0.1307
 1059TIP3    H124592   0.924   0.205  13.714 -0.0746 -0.1040 -0.7920
 1059TIP3    H224593   0.788   0.139  13.727  0.0342 -0.2127 -0.1753
 1060TIP3   OH224594   3.473   1.409  15.335  0.1670  0.0954  0.1107
 1060TIP3    H124595   3.482   1.330  15.282 -0.5198  0.2199 -0.2061
 1060TIP3    H224596   3.401   1.457  15.294  1.5595  1.6329 -0.6419
 1061TIP3   OH224597   4.656   4.434  12.914 -0.4663  0.1882  0.3557
 1061TIP3    H124598   4.697   4.510  12.874 -0.4135 -0.4154 -0.7623
 1061TIP3    H224599   4.662   4.365  12.848 -2.4136 -0.1905  0.4954
 1062TIP3   OH224600   1.642   1.099  10.900  0.0833  0.4294 -0.0221
 1062TIP3    H124601   1.673   1.063  10.817  0.0321  1.2636 -0.4104
 1062TIP3    H224602   1.649   1.194  10.890  1.0628  0.5401  1.2954
 1063TIP3   OH224603   3.893   3.464   5.859 -0.2399 -0.2573  0.1214
 1063TIP3    H124604   3.987   3.446   5.869  0.2332  1.5597 -0.6867
 1063TIP3    H224605   3.862   3.478   5.948  0.8249  1.5703  0.2507
 1064TIP3   OH224606   5.991   4.018  14.219  0.4569 -0.0755  0.2174
 1064TIP3    H124607   6.005   4.112  14.221  0.5918 -0.0977  0.4433
 1064TIP3    H224608   6.067   3.983  14.172  0.7507 -0.1269  0.7249
 1065TIP3   OH224609   5.239   0.461   3.949  0.7439  0.3340  0.0903
 1065TIP3    H124610   5.210   0.549   3.925 -0.3411  0.0590  0.3166
 1065TIP3    H224611   5.166   0.405   3.925  0.3184 -0.1775  2.2953
 1066TIP3   OH224612   2.938   5.492   3.547 -0.6277 -0.7305 -0.0236
 1066TIP3    H124613   2.953   5.543   3.626 -0.2544  0.7495 -1.0132
 1066TIP3    H224614   3.019   5.443   3.535 -0.6376 -0.8653  0.4202
 1067TIP3   OH224615   5.220   2.068   5.749  0.8147  0.4509  0.4154
 1067TIP3    H124616   5.249   2.158   5.758 -1.4981  1.3248 -0.1711
 1067TIP3    H224617   5.182   2.063   5.661  0.4293 -0.9455  0.6259
 1068TIP3   OH224618   0.388   0.860  13.958  0.2966  0.1774 -0.0560
 1068TIP3    H124619   0.470   0.827  13.919 -0.4396 -0.0584 -1.4577
 1068TIP3    H224620   0.327   0.787  13.950 -0.0273  0.2792  1.1878
 1069TIP3   OH224621   0.996   4.057   2.599  0.0590 -0.0786  0.0038
 1069TIP3    H124622   0.949   4.136   2.572 -1.6049 -0.9515  0.1651
 1069TIP3    H224623   1.004   4.006   2.519  0.6031 -0.0005  0.0092
 1070TIP3   OH224624   3.268   0.904   0.038 -0.3895 -0.7492  0.4229
 1070TIP3    H124625   3.282   0.993   0.008 -0.7940 -0.6119  0.6348
 1070TIP3    H224626   3.296   0.849  -0.035  2.7655 -0.5607  1.3764
 1071TIP3   OH224627   6.106   4.226  13.742 -0.9807 -0.4615 -0.5888
 1071TIP3    H124628   6.115   4.321  13.740 -1.8721 -0.3674 -1.0143
 1071TIP3    H224629   6.169   4.197  13.807 -0.7416  0.4298 -0.4064
 1072TIP3   OH224630   5.752   2.283  11.775 -0.1860  0.4230  0.1679
 1072TIP3    H124631   5.758   2.372  11.810  1.1825  1.7903 -3.0583
 1072TIP3    H224632   5.784   2.227  11.845  1.5935  2.7904  1.3901
 1073TIP3   OH224633   5.796   0.428  14.640 -0.5558 -0.4202 -0.4503
 1073TIP3    H124634   5.878   0.380  14.632 -1.1769 -1.7129  0.5962
 1073TIP3    H224635   5.821   0.519  14.623  0.9521 -0.8689 -0.8603
 1074TIP3   OH224636   1.978   3.711   5.580 -0.1695 -0.3017  0.3831
 1074TIP3    H124637   1.944   3.800   5.571  0.0563 -0.1345  1.1485
 1074TIP3    H224638   1.929   3.673   5.652  0.4772 -0.4357  0.7587
 1075TIP3   OH224639   0.417   4.882   3.514  0.1325  0.8595  0.2553
 1075TIP3    H124640   0.359   4.958   3.503  0.4382  1.1289  0.4705
 1075TIP3    H224641   0.485   4.894   3.448 -1.7241 -1.1003 -2.1840
 1076TIP3   OH224642   1.748   4.789   5.205 -0.3229  0.0184 -0.1447
 1076TIP3    H124643   1.782   4.767   5.292 -0.7615  0.3994  0.1306
 1076TIP3    H224644   1.818   4.840   5.164 -1.4545  3.0622  1.3878
 1077TIP3   OH224645   4.962   1.464  16.224  0.3793  0.4863 -0.1794
 1077TIP3    H124646   4.946   1.453  16.130  0.9918  2.3576 -0.5601
 1077TIP3    H224647   4.892   1.523  16.253 -0.3452 -0.7977  0.7655
 1078TIP3   OH224648   0.644   4.209   4.199  0.2195  0.4218 -0.2983
 1078TIP3    H124649   0.654   4.243   4.110  0.2655  1.9102  0.2490
 1078TIP3    H224650   0.555   4.172   4.201 -0.0586  1.0544 -0.7514
 1079TIP3   OH224651   2.445   6.324  11.388  0.2217  0.1396  0.3599
 1079TIP3    H124652   2.472   6.279  11.307  1.1673 -0.7390  1.1345
 1079TIP3    H224653   2.424   6.413  11.360  0.0594 -0.2796 -0.9324
 1080TIP3   OH224654   0.170   0.792   0.915  0.0614 -0.2322 -0.1479
 1080TIP3    H124655   0.127   0.753   0.839 -0.0726 -0.0383 -0.1741
 1080TIP3    H224656   0.257   0.815   0.885 -0.0704  0.0613 -0.3141
 1081TIP3   OH224657   4.603   3.393  16.720 -0.7740  0.0626  0.2189
 1081TIP3    H124658   4.584   3.439  16.638 -1.2224  0.0040  0.2850
 1081TIP3    H224659   4.584   3.457  16.788  0.4437  0.3997  0.2566
 1082TIP3   OH224660   6.708   2.565  16.003 -0.0330  0.2273 -0.1618
 1082TIP3    H124661   6.776   2.503  15.975 -2.0472 -2.0230 -0.4012
 1082TIP3    H224662   6.731   2.647  15.959  1.0932 -1.1401 -2.3223
 1083TIP3   OH224663   0.559   2.664  11.666 -0.1516  0.6077  0.2118
 1083TIP3    H124664   0.622   2.596  11.691 -1.7706 -1.1585 -0.2957
 1083TIP3    H224665   0.546   2.715  11.746 -0.5889 -1.0986  1.2698
 1084TIP3   OH224666   4.796   4.214   5.580  0.4170  0.0279  0.2388
 1084TIP3    H124667   4.719   4.189   5.630 -1.1782  2.3562 -0.8949
 1084TIP3    H224668   4.866   4.220   5.645 -1.2012  1.4111  1.9678
 1085TIP3   OH224669   5.903   5.372   2.705  0.2526 -0.5499 -0.2751
 1085TIP3    H124670   5.997   5.377   2.687  0.3419 -1.6802 -0.2280
 1085TIP3    H224671   5.895   5.401   2.796  0.4550  0.2558 -0.5068
 1086TIP3   OH224672   4.521   1.588   1.652 -0.0854 -0.1514  0.1669
 1086TIP3    H124673   4.580   1.593   1.727 -0.4782 -0.7824  0.5237
 1086TIP3    H224674   4.576   1.561   1.579  0.0268 -0.9855  0.5531
 1087TIP3   OH224675   2.765   1.200   3.623  0.5963 -0.8646  0.1462
 1087TIP3    H124676   2.829   1.143   3.580 -0.0363 -0.5924 -1.1977
 1087TIP3    H224677   2.681   1.155   3.610  0.4874 -1.2645  1.9639
 1088TIP3   OH224678   4.691   5.015  14.886  0.3253 -0.0047  0.2693
 1088TIP3    H124679   4.724   5.100  14.856 -1.7403  0.9556  0.5581
 1088TIP3    H224680   4.731   4.952  14.826  0.4005  1.3552 -1.1963
 1089TIP3   OH224681   4.836   1.621   2.904 -0.0010  0.2831  0.1885
 1089TIP3    H124682   4.890   1.576   2.840  2.3817  3.2241 -0.0942
 1089TIP3    H224683   4.751   1.630   2.861  0.1769 -1.6679 -0.6752
 1090TIP3   OH224684   2.475   3.424   0.586 -0.3150  0.3909 -0.5234
 1090TIP3    H124685   2.565   3.439   0.558 -0.4938  0.6102 -1.0010
 1090TIP3    H224686   2.470   3.330   0.602  0.1229  0.4457 -0.0355
 1091TIP3   OH224687   3.233   5.401  16.303 -0.1791 -0.1494  0.3477
 1091TIP3    H124688   3.144   5.379  16.273 -0.6601  0.6203  1.1443
 1091TIP3    H224689   3.287   5.392  16.225 -1.1162  0.2407 -0.3823
 1092TIP3   OH224690   6.089   4.718  14.464  0.6122 -0.2922 -0.6703
 1092TIP3    H124691   6.033   4.769  14.522 -1.3282 -1.7049 -1.2045
 1092TIP3    H224692   6.171   4.708  14.513  0.7584  2.5159 -0.1974
 1093TIP3   OH224693   2.034   6.689  11.189 -0.0478 -0.1581 -1.0387
 1093TIP3    H124694   2.088   6.727  11.120  0.8259 -1.7535 -1.2796
 1093TIP3    H224695   2.014   6.763  11.247  2.2946  0.5444 -0.9986
 1094TIP3   OH224696   1.487   4.370  12.461  0.3443 -0.2853  0.1633
 1094TIP3    H124697   1.410   4.392  12.513 -0.3868  0.9458 -1.3780
 1094TIP3    H224698   1.557   4.360  12.526 -0.3287  2.0392  1.3461
 1095TIP3   OH224699   4.602   0.930  12.099  0.1223 -0.0597 -0.3160
 1095TIP3    H124700   4.638   0.907  12.014  1.7564 -0.1292  0.3514
 1095TIP3    H224701   4.634   0.861  12.158 -1.1437 -0.1255  0.3244
 1096TIP3   OH224702   0.948   2.429   3.035  0.4169 -0.3248 -0.8412
 1096TIP3    H124703   0.859   2.419   3.002  0.4938  0.7606 -1.4572
 1096TIP3    H224704   0.940   2.425   3.130 -0.5359  1.2650 -0.8138
 1097TIP3   OH224705   5.241   5.636  14.901  0.1442  0.4051 -0.0843
 1097TIP3    H124706   5.151   5.669  14.904 -0.4157 -0.9089 -1.5330
 1097TIP3    H224707   5.246   5.573  14.973 -0.1300  0.3713 -0.0950
 1098TIP3   OH224708   0.123   5.843   4.379 -0.3799  0.7039  0.1589
 1098TIP3    H124709   0.151   5.925   4.419  0.9169  0.4494 -0.1891
 1098TIP3    H224710   0.204   5.801   4.352 -0.7945 -1.7482  2.3164
 1099TIP3   OH224711   6.727   2.878   3.314  0.7086  0.1723 -0.2469
 1099TIP3    H124712   6.648   2.831   3.341  2.5166 -2.0474  1.6218
 1099TIP3    H224713   6.698   2.936   3.244 -2.1373 -2.1910 -1.2186
 1100TIP3   OH224714   4.398   6.056  16.745  0.1394 -0.2742  0.1931
 1100TIP3    H124715   4.424   6.031  16.833  1.2053  0.3472  0.0740
 1100TIP3    H224716   4.361   5.976  16.707  1.2167 -1.0101  0.6405
 1101TIP3   OH224717   4.591   0.661   4.458  0.0016 -0.3247 -0.0411
 1101TIP3    H124718   4.589   0.702   4.545 -0.6993  0.1368 -0.2649
 1101TIP3    H224719   4.601   0.568   4.475 -0.3537 -0.2596  0.5439
 1102TIP3   OH224720   5.665   0.216  11.533 -0.2082 -0.3399  0.0255
 1102TIP3    H124721   5.716   0.136  11.543 -0.5608 -0.6760 -0.8006
 1102TIP3    H224722   5.724   0.277  11.489  0.7115  0.5267  2.2619
 1103TIP3   OH224723   6.749   0.290  12.311  0.1578  0.3149  0.4543
 1103TIP3    H124724   6.671   0.238  12.289 -0.6617  1.4456  0.6110
 1103TIP3    H224725   6.812   0.226  12.344  0.1915 -0.9785 -1.8763
 1104TIP3   OH224726   0.652   2.268  14.817 -0.5407  0.3480  0.0905
 1104TIP3    H124727   0.746   2.271  14.840 -0.4402 -1.5019  0.0429
 1104TIP3    H224728   0.609   2.247  14.900 -0.7773 -0.1695 -0.1640
 1105TIP3   OH224729   6.276   3.534  12.475 -0.6567  0.5443  0.5714
 1105TIP3    H124730   6.261   3.471  12.546  0.9284  0.5200  0.9216
 1105TIP3    H224731   6.287   3.480  12.397 -2.7286  0.5835  0.1850
 1106TIP3   OH224732   0.033   3.504  12.863  0.8036  0.2430 -0.6103
 1106TIP3    H124733   0.025   3.409  12.855 -0.9500  0.4302 -1.6746
 1106TIP3    H224734   0.021   3.536  12.773  1.9512  1.4508 -0.3545
 1107TIP3   OH224735   5.096   1.774  15.748 -0.2975  0.2094 -0.0408
 1107TIP3    H124736   5.133   1.779  15.660  2.1942  0.0808  0.9138
 1107TIP3    H224737   5.171   1.783  15.806 -1.6195 -1.3829  2.0818
 1108TIP3   OH224738   3.407   1.549   1.391  0.0723  0.0722  0.0943
 1108TIP3    H124739   3.414   1.544   1.295 -2.0983 -1.2475 -0.0574
 1108TIP3    H224740   3.456   1.472   1.422  0.0834  0.0443  0.0102
 1109TIP3   OH224741   1.489   5.118  12.955  0.3336  0.5102 -0.5071
 1109TIP3    H124742   1.519   5.059  12.886  2.7764 -0.1038  0.9592
 1109TIP3    H224743   1.564   5.126  13.014 -0.5988  3.5241  0.4255
 1110TIP3   OH224744   0.777   4.599  14.450 -0.0356 -0.4250  0.2598
 1110TIP3    H124745   0.693   4.555  14.441 -1.5257  2.5338 -1.8030
 1110TIP3    H224746   0.832   4.558  14.383 -0.9551 -0.1768 -0.6839
 1111TIP3   OH224747   0.402   5.238   0.454 -0.2857 -0.8384  0.1814
 1111TIP3    H124748   0.460   5.260   0.528  0.7263  0.1698 -0.8642
 1111TIP3    H224749   0.321   5.207   0.495  0.7339 -1.5996  1.6930
 1112TIP3   OH224750   6.518   3.062   5.273  0.0020  0.2056 -0.5452
 1112TIP3    H124751   6.438   3.011   5.262 -0.0839  0.1772  0.1327
 1112TIP3    H224752   6.488   3.151   5.288  0.0600  0.0727  0.4174
 1113TIP3   OH224753   0.600   6.183  14.971  0.2623  0.2850 -0.2400
 1113TIP3    H124754   0.695   6.179  14.975  0.2189 -1.5963 -0.3600
 1113TIP3    H224755   0.580   6.185  14.877  0.1596 -0.8822 -0.2523
 1114TIP3   OH224756   2.670   2.305   2.375 -0.3959 -0.1242  0.6616
 1114TIP3    H124757   2.734   2.248   2.416  0.5052 -0.2192 -0.8147
 1114TIP3    H224758   2.684   2.294   2.281 -2.0091  0.5022  0.3055
 1115TIP3   OH224759   2.368   1.676   1.834  0.2552  0.1979 -0.2251
 1115TIP3    H124760   2.361   1.650   1.926  1.4002 -0.4350 -0.2875
 1115TIP3    H224761   2.329   1.603   1.786 -1.8682  1.2558 -0.2220
 1116TIP3   OH224762   4.919   1.040   5.249 -0.1113  0.4258 -0.1230
 1116TIP3    H124763   4.909   1.040   5.344  0.0390 -0.7386 -0.0873
 1116TIP3    H224764   5.013   1.030   5.235 -0.2414 -0.5665 -0.3736
 1117TIP3   OH224765   2.614   0.899   1.898 -0.5788  0.2590  0.2386
 1117TIP3    H124766   2.635   0.984   1.858 -0.3497  0.3673  0.5863
 1117TIP3    H224767   2.691   0.845   1.881 -1.6048 -0.6178 -1.9711
 1118TIP3   OH224768   1.435   1.288   6.207 -0.0903 -0.0800 -0.2565
 1118TIP3    H124769   1.478   1.238   6.276 -0.3526  1.5281  1.1391
 1118TIP3    H224770   1.506   1.336   6.164 -0.3600  3.6902  2.9655
 1119TIP3   OH224771   5.813   3.851  15.710 -0.2730 -0.0326  0.2995
 1119TIP3    H124772   5.778   3.921  15.655 -0.4277  1.3803  2.0954
 1119TIP3    H224773   5.883   3.893  15.761 -0.0510 -1.3033  1.0969
 1120TIP3   OH224774   1.479   2.560   5.990  0.2840  0.2638  0.2937
 1120TIP3    H124775   1.544   2.615   5.947  0.0476  0.5809  0.3397
 1120TIP3    H224776   1.418   2.621   6.031  0.2776 -0.0319  0.7369
 1121TIP3   OH224777   4.011   2.264   2.741  0.5261 -0.1440  0.2146
 1121TIP3    H124778   3.984   2.293   2.829  0.7349  1.0397 -0.0966
 1121TIP3    H224779   4.106   2.264   2.744  0.5525  0.8344 -0.2927
 1122TIP3   OH224780   4.550   0.109   0.981  0.5103  0.2962  0.1467
 1122TIP3    H124781   4.548   0.196   0.942  0.9553 -0.4196 -1.5732
 1122TIP3    H224782   4.642   0.085   0.981  0.2480 -0.8418 -1.0449
 1123TIP3   OH224783   2.493   3.656  14.569  0.0955 -0.2829  0.0841
 1123TIP3    H124784   2.450   3.738  14.544  0.8287 -0.2384 -1.1046
 1123TIP3    H224785   2.448   3.589  14.518 -0.4866 -0.6187  1.0371
 1124TIP3   OH224786   1.664   3.009   4.412  1.1445  0.4125 -0.6610
 1124TIP3    H124787   1.621   3.095   4.407 -1.8795 -0.9205 -0.1433
 1124TIP3    H224788   1.623   2.967   4.487  1.9782 -1.7662 -1.3646
 1125TIP3   OH224789   6.658   2.993  15.490 -0.2139 -0.4911 -0.2730
 1125TIP3    H124790   6.628   2.928  15.426  0.4492 -0.7553 -0.3207
 1125TIP3    H224791   6.722   3.046  15.443 -0.5040 -0.0117 -0.1342
 1126TIP3   OH224792   5.894   1.677  13.408 -0.7071 -0.5378 -0.2031
 1126TIP3    H124793   5.979   1.661  13.367 -1.3726 -0.8568 -1.5263
 1126TIP3    H224794   5.881   1.772  13.400 -0.1055 -0.3643  0.7832
 1127TIP3   OH224795   6.404   6.281   4.938  0.1692 -0.6531  0.0189
 1127TIP3    H124796   6.448   6.243   4.862 -0.9855 -0.4212 -0.7907
 1127TIP3    H224797   6.341   6.215   4.964 -0.2731 -0.2312  0.0234
 1128TIP3   OH224798   4.106   4.494  11.193  0.3792 -0.0076  0.8414
 1128TIP3    H124799   4.114   4.503  11.288 -0.3188  1.3282  0.7981
 1128TIP3    H224800   4.192   4.521  11.160  0.9919 -1.4987  1.1068
 1129TIP3   OH224801   3.351   4.122  10.475 -0.0415  0.0560 -0.5403
 1129TIP3    H124802   3.302   4.069  10.411 -4.1122 -2.8481  4.1749
 1129TIP3    H224803   3.419   4.063  10.507  0.6190  0.6995 -0.7583
 1130TIP3   OH224804   2.009   6.014  14.941 -0.3928 -0.5068  0.8302
 1130TIP3    H124805   2.064   5.948  14.982 -1.0096 -1.0118  0.8530
 1130TIP3    H224806   2.022   6.093  14.994 -0.8069 -1.0204  1.7070
 1131TIP3   OH224807   0.380   5.266   5.507 -0.3104 -0.3970 -0.5427
 1131TIP3    H124808   0.448   5.332   5.515  0.2293 -0.9038 -0.8471
 1131TIP3    H224809   0.352   5.248   5.596  0.2454 -0.4783 -0.3808
 1132TIP3   OH224810   4.276   1.915   0.171  0.2488 -0.3848 -0.3906
 1132TIP3    H124811   4.199   1.879   0.126 -1.1196 -0.3141  1.7741
 1132TIP3    H224812   4.317   1.839   0.212  1.0712 -0.3421 -1.1038
 1133TIP3   OH224813   0.352   0.197   0.513 -0.0776 -0.5957 -0.2519
 1133TIP3    H124814   0.314   0.277   0.549  0.9992  0.0750 -0.5507
 1133TIP3    H224815   0.446   0.207   0.527 -0.0176 -2.6484  1.3678
 1134TIP3   OH224816   0.740   2.361   3.889 -0.4109 -0.3596 -0.5695
 1134TIP3    H124817   0.773   2.409   3.964  0.2090 -0.7813 -0.5685
 1134TIP3    H224818   0.815   2.354   3.829 -0.7000 -0.6477 -0.9098
 1135TIP3   OH224819   0.897   3.287  12.748  0.1314 -0.0057 -0.0858
 1135TIP3    H124820   0.957   3.264  12.677 -0.6082  1.5494 -1.2744
 1135TIP3    H224821   0.915   3.379  12.766 -1.5708  0.3871 -0.1718
 1136TIP3   OH224822   0.519   5.794  14.761  0.4784 -0.4913  0.2988
 1136TIP3    H124823   0.598   5.741  14.752  0.6733 -0.3035  0.8372
 1136TIP3    H224824   0.463   5.744  14.820  0.6571 -0.1204  0.7972
 1137TIP3   OH224825   4.239   4.985   1.752  0.5373  0.4424 -0.1653
 1137TIP3    H124826   4.168   4.937   1.793  0.2418  0.2095 -0.9431
 1137TIP3    H224827   4.298   4.918   1.719  1.8019  0.6173  1.5772
 1138TIP3   OH224828   5.709   6.627   4.250  0.3818  0.3019 -0.4962
 1138TIP3    H124829   5.649   6.648   4.179 -0.2650  0.4896  0.0901
 1138TIP3    H224830   5.796   6.646   4.215  0.1018  0.0837 -1.3406
 1139TIP3   OH224831   0.342   5.312  12.706  0.4533 -0.2588 -0.4941
 1139TIP3    H124832   0.302   5.274  12.628  0.6282  1.4418 -1.4677
 1139TIP3    H224833   0.435   5.320  12.685  0.6612 -0.6217  0.2492
 1140TIP3   OH224834   1.138   6.539  14.490 -0.1150  0.1805 -0.0628
 1140TIP3    H124835   1.179   6.456  14.465  1.2376  0.6719  0.4716
 1140TIP3    H224836   1.187   6.569  14.566 -1.4845  0.7946  0.6074
 1141TIP3   OH224837   4.633   4.029   5.765  0.1127  0.2032  0.4029
 1141TIP3    H124838   4.587   4.004   5.686  0.9700  0.7682 -0.2892
 1141TIP3    H224839   4.689   3.954   5.785 -2.0065 -1.0633  2.0136
 1142TIP3   OH224840   2.638   5.885   2.712 -0.3592 -0.0345  0.6477
 1142TIP3    H124841   2.572   5.952   2.691  0.5640  1.0137  1.0075
 1142TIP3    H224842   2.627   5.869   2.806 -1.8047 -1.7814  0.2380
 1143TIP3   OH224843   3.686   0.369  13.522 -0.3270  0.6647 -0.0817
 1143TIP3    H124844   3.701   0.447  13.576 -1.2155  0.5037  0.4187
 1143TIP3    H224845   3.641   0.308  13.581 -3.2826  1.2568 -1.5536
 1144TIP3   OH224846   5.610   6.086   5.275 -0.1539 -0.7044 -0.2162
 1144TIP3    H124847   5.550   6.134   5.333  1.0833 -0.2942  0.7624
 1144TIP3    H224848   5.696   6.097   5.315  0.8057 -0.2127 -2.2779
 1145TIP3   OH224849   6.345   4.134   1.123  0.6127  0.5010  0.1948
 1145TIP3    H124850   6.323   4.216   1.167  0.2967  0.8729 -0.6393
 1145TIP3    H224851   6.421   4.157   1.068  0.0617  0.4280 -0.6049
 1146TIP3   OH224852   1.564   4.322   4.648  0.5980 -0.1323  0.4960
 1146TIP3    H124853   1.509   4.394   4.615  0.0266 -1.4253 -1.5847
 1146TIP3    H224854   1.527   4.244   4.607  1.6500 -1.5375  2.1315
 1147TIP3   OH224855   0.324   6.086  12.900 -0.1080  0.6644 -0.1124
 1147TIP3    H124856   0.304   6.071  12.807 -0.4012  0.9357 -0.0945
 1147TIP3    H224857   0.301   6.177  12.915 -0.1995  0.5828  0.2642
 1148TIP3   OH224858   5.191   1.850  14.017 -0.4664 -0.1531 -0.1557
 1148TIP3    H124859   5.172   1.901  14.096 -0.7651  0.6104 -0.7146
 1148TIP3    H224860   5.255   1.785  14.046 -0.0954  0.5197  0.5783
 1149TIP3   OH224861   0.477   2.692   1.803  0.3401 -0.1653 -0.4511
 1149TIP3    H124862   0.442   2.644   1.728  1.3622  0.3539 -1.3097
 1149TIP3    H224863   0.502   2.625   1.866 -1.1371 -0.5820 -0.2760
 1150TIP3   OH224864   5.475   1.796   0.342 -0.2944  0.0553 -0.0877
 1150TIP3    H124865   5.497   1.780   0.251  1.5008 -0.8142  0.4587
 1150TIP3    H224866   5.459   1.709   0.379 -0.0175  0.3096  0.6514
 1151TIP3   OH224867   0.814   4.352  15.506  0.1340  0.8652 -0.0109
 1151TIP3    H124868   0.796   4.418  15.439  0.2883  1.0277  0.1060
 1151TIP3    H224869   0.728   4.317  15.528  0.1853 -0.0511 -1.1613
 1152TIP3   OH224870   2.942   6.398  10.771  0.2839  0.0516  0.3742
 1152TIP3    H124871   2.922   6.488  10.794  1.0416  0.0589  1.0744
 1152TIP3    H224872   2.860   6.350  10.784  0.4269  0.2304  2.2591
 1153TIP3   OH224873   0.297   3.915   5.392  0.3953  0.5813 -0.2116
 1153TIP3    H124874   0.309   3.954   5.305  2.0400 -1.0802 -0.8172
 1153TIP3    H224875   0.365   3.956   5.446  2.2619 -1.4068 -0.9011
 1154TIP3   OH224876   5.992   1.121   4.211  0.1428 -0.1172  0.4898
 1154TIP3    H124877   5.933   1.049   4.230  0.4310 -0.7904 -1.0364
 1154TIP3    H224878   5.987   1.133   4.116  2.7822 -0.5003  0.2141
 1155TIP3   OH224879   4.879   0.729  14.660 -0.1323  0.3207  0.4456
 1155TIP3    H124880   4.854   0.753  14.570 -1.3788 -0.7487  0.4688
 1155TIP3    H224881   4.918   0.808  14.696  3.4287 -0.0792 -2.0465
 1156TIP3   OH224882   2.069   6.070  10.995  0.6085 -0.2890  0.4352
 1156TIP3    H124883   2.104   6.003  10.936  0.9992 -0.6691  1.0914
 1156TIP3    H224884   2.144   6.124  11.018  0.3140  0.3257 -0.0134
 1157TIP3   OH224885   4.241   6.371  16.068 -0.9160  0.6268  0.7510
 1157TIP3    H124886   4.256   6.400  16.158  2.6903 -1.3834  0.9702
 1157TIP3    H224887   4.219   6.278  16.077  0.4707  0.1588 -0.4557
 1158TIP3   OH224888   6.451   0.212   4.569 -0.5242  0.1603  0.1048
 1158TIP3    H124889   6.451   0.230   4.663  0.2553  0.9266 -0.0289
 1158TIP3    H224890   6.530   0.158   4.556 -1.8923 -1.9852  0.2299
 1159TIP3   OH224891   5.625   6.662  13.652  0.1541 -0.3160 -0.1534
 1159TIP3    H124892   5.650   6.570  13.650 -1.9006 -0.9393  0.5250
 1159TIP3    H224893   5.680   6.700  13.721  0.7994 -1.1025 -0.2229
 1160TIP3   OH224894   0.909   5.717   0.402  0.1191 -0.5146  0.5925
 1160TIP3    H124895   0.871   5.778   0.338 -0.3773 -1.0990  0.3094
 1160TIP3    H224896   0.982   5.676   0.355 -0.6013 -1.3623  0.1831
 1161TIP3   OH224897   2.813   4.569   2.709  0.4901 -0.4272 -0.5201
 1161TIP3    H124898   2.794   4.620   2.631 -0.1792 -1.1674 -0.8482
 1161TIP3    H224899   2.903   4.538   2.696 -0.6285 -3.2177 -2.5523
 1162TIP3   OH224900   5.072   1.653   0.770  0.2540  0.1856 -0.2146
 1162TIP3    H124901   5.106   1.738   0.742 -0.0124  0.4416  0.2235
 1162TIP3    H224902   5.065   1.660   0.865 -1.0609  0.1639 -0.2848
 1163TIP3   OH224903   1.917   1.567   4.192 -0.0120  0.4752  0.0865
 1163TIP3    H124904   1.824   1.549   4.175 -0.0791  1.0592 -0.1717
 1163TIP3    H224905   1.922   1.575   4.287  0.2955 -2.4066  0.4028
 1164TIP3   OH224906   4.625   2.524  11.617 -0.0381  0.0893 -0.4439
 1164TIP3    H124907   4.641   2.430  11.611 -1.7660 -0.2439 -0.5031
 1164TIP3    H224908   4.651   2.558  11.531 -1.0740 -0.6572 -1.0879
 1165TIP3   OH224909   6.505   4.509  14.337 -0.2542  0.6529  0.0275
 1165TIP3    H124910   6.463   4.432  14.375  3.3495 -0.6971  1.7188
 1165TIP3    H224911   6.536   4.559  14.413 -0.6348  2.6839 -1.0848
 1166TIP3   OH224912   5.080   2.226  12.978  0.5707 -0.6572  0.6586
 1166TIP3    H124913   5.050   2.175  12.903  0.3564  0.6440 -0.1717
 1166TIP3    H224914   5.083   2.163  13.050  0.0522 -1.7693 -0.2565
 1167TIP3   OH224915   3.184   1.802  15.965 -0.2295 -0.4925  0.2570
 1167TIP3    H124916   3.142   1.769  16.045 -0.1989  1.3762  1.0824
 1167TIP3    H224917   3.230   1.726  15.930  1.0573 -1.0227  2.8741
 1168TIP3   OH224918   3.604   0.687  15.512 -0.0554  0.7735 -0.0915
 1168TIP3    H124919   3.511   0.669  15.496  0.2916 -1.1861 -0.1460
 1168TIP3    H224920   3.648   0.660  15.432  0.7446 -0.2745  0.6642
 1169TIP3   OH224921   6.104   1.387  12.125  0.4604 -0.1060 -0.3567
 1169TIP3    H124922   6.120   1.397  12.031  2.2764 -2.1889 -0.3678
 1169TIP3    H224923   6.150   1.461  12.165  1.5987 -0.4154 -1.0294
 1170TIP3   OH224924   0.672   6.350  15.961  0.0449 -0.4647 -0.1295
 1170TIP3    H124925   0.646   6.440  15.942  0.1847 -0.1850  0.9693
 1170TIP3    H224926   0.705   6.317  15.877 -2.6017 -0.4343 -1.2913
 1171TIP3   OH224927   3.823   4.052  12.588  0.2095 -0.4608 -0.2377
 1171TIP3    H124928   3.813   4.106  12.667  0.5799  0.2459 -0.6604
 1171TIP3    H224929   3.798   4.110  12.516  1.5530 -0.5213 -0.7878
 1172TIP3   OH224930   5.165   4.222  16.474 -0.1174 -0.4881  0.3719
 1172TIP3    H124931   5.158   4.164  16.398  1.5744 -0.0954 -0.1173
 1172TIP3    H224932   5.252   4.261  16.467 -0.8453  1.4208  1.1931
 1173TIP3   OH224933   1.411   1.744   4.532 -0.1924 -0.8857  0.7354
 1173TIP3    H124934   1.326   1.705   4.551 -0.0462 -1.5569  0.0651
 1173TIP3    H224935   1.437   1.705   4.449 -0.6214  1.5669 -0.6772
 1174TIP3   OH224936   4.189   5.194   3.110 -0.4413  0.0770  0.5908
 1174TIP3    H124937   4.226   5.111   3.140  0.0783 -0.2536 -0.8570
 1174TIP3    H224938   4.252   5.260   3.139 -0.5765 -0.0874  1.2742
 1175TIP3   OH224939   4.371   1.846   3.594  0.3879  0.0164 -0.1060
 1175TIP3    H124940   4.464   1.846   3.570  0.2588 -0.8364 -0.6504
 1175TIP3    H224941   4.356   1.932   3.634  0.8032  1.1835 -2.3216
 1176TIP3   OH224942   6.776   2.171   3.379 -0.1457 -0.6963 -0.0972
 1176TIP3    H124943   6.704   2.223   3.415  1.1557  1.7971 -0.8069
 1176TIP3    H224944   6.840   2.166   3.450  0.1206 -0.5251 -0.3232
 1177TIP3   OH224945   3.982   3.038  15.026  1.2130 -0.0268  0.1144
 1177TIP3    H124946   4.039   3.069  15.096  3.0800  0.1602 -1.3979
 1177TIP3    H224947   3.980   2.943  15.037  1.0256  0.0446  0.7416
 1178TIP3   OH224948   6.302   2.271   4.770 -0.4251  0.3933 -0.6109
 1178TIP3    H124949   6.291   2.365   4.783 -0.9775  0.3749 -0.9392
 1178TIP3    H224950   6.219   2.232   4.798  0.7432 -0.2940  2.2927
 1179TIP3   OH224951   5.801   0.100  13.148 -0.0378  0.4309  0.2441
 1179TIP3    H124952   5.884   0.108  13.102  0.1365  0.0555  0.4899
 1179TIP3    H224953   5.822   0.050  13.227 -0.6396 -0.3075 -0.0527
 1180TIP3   OH224954   5.153   4.273   2.439 -0.1233 -0.1389 -0.0235
 1180TIP3    H124955   5.065   4.308   2.453  0.2312  1.1095 -0.7374
 1180TIP3    H224956   5.211   4.345   2.463  0.8250 -1.6048  2.3902
 1181TIP3   OH224957   6.661   0.512   3.833 -0.0199 -0.4602 -0.3541
 1181TIP3    H124958   6.644   0.590   3.781  1.4653 -0.6021 -1.0979
 1181TIP3    H224959   6.756   0.510   3.844 -0.2583 -0.3817  2.4863
 1182TIP3   OH224960   6.075   3.924   1.022  0.0410  0.4431 -0.0577
 1182TIP3    H124961   5.984   3.934   1.052  0.4469  0.8997  1.0512
 1182TIP3    H224962   6.116   4.009   1.039  1.0341 -0.1729  0.7256
 1183TIP3   OH224963   0.640   2.454   3.383  0.2085  0.1791 -0.5306
 1183TIP3    H124964   0.588   2.530   3.358  0.4818  1.3210  2.0193
 1183TIP3    H224965   0.577   2.394   3.423  0.6403  1.3321  2.0680
 1184TIP3   OH224966   6.420   5.880   3.108  0.1473  0.0773  0.8336
 1184TIP3    H124967   6.372   5.833   3.040 -0.9273  2.3294 -0.0483
 1184TIP3    H224968   6.506   5.895   3.071 -0.5238  1.5441 -0.2174
 1185TIP3   OH224969   1.837   1.936  15.201 -0.4897  0.2376  0.0113
 1185TIP3    H124970   1.839   1.951  15.296 -1.7015 -0.3035  0.1454
 1185TIP3    H224971   1.839   2.024  15.163 -1.8792  0.5627  0.6143
 1186TIP3   OH224972   4.091   3.288  16.592 -0.4199  0.0353  0.1041
 1186TIP3    H124973   4.185   3.272  16.599 -0.6099 -0.7459  1.0512
 1186TIP3    H224974   4.075   3.297  16.498  0.8922  2.1162 -0.0022
 1187TIP3   OH224975   2.390   4.694   5.357 -0.0981  0.2704 -0.4164
 1187TIP3    H124976   2.442   4.639   5.298  0.8861 -0.2443  0.8758
 1187TIP3    H224977   2.432   4.682   5.443 -1.3035  1.2267  0.3245
 1188TIP3   OH224978   0.777   2.505  15.270 -0.1269  0.0666 -0.0136
 1188TIP3    H124979   0.725   2.485  15.191  0.4206 -0.8225 -0.1592
 1188TIP3    H224980   0.868   2.493  15.242  0.0796 -0.0411  0.6991
 1189TIP3   OH224981   4.609   6.763  15.529  0.0382 -0.3846 -0.1788
 1189TIP3    H124982   4.532   6.706  15.537 -0.2364 -0.0090 -0.1524
 1189TIP3    H224983   4.609   6.814  15.610 -0.4854  0.6027 -0.7860
 1190TIP3   OH224984   5.548   6.688   0.405 -0.4346 -0.0810  0.4640
 1190TIP3    H124985   5.542   6.655   0.316  0.2199  1.0875 -0.0471
 1190TIP3    H224986   5.461   6.675   0.442 -1.2367  1.0046 -0.9486
 1191TIP3   OH224987   5.740   5.075  12.368 -0.6152 -0.3888 -0.6042
 1191TIP3    H124988   5.719   5.160  12.330  0.4996  0.5254  0.7326
 1191TIP3    H224989   5.799   5.035  12.304 -0.1250  0.3960 -0.6610
 1192TIP3   OH224990   4.993   4.860   2.830  0.0715 -0.3301 -0.2723
 1192TIP3    H124991   4.908   4.904   2.837  0.5975  0.7546 -0.4338
 1192TIP3    H224992   5.043   4.893   2.905 -0.2943 -2.5096  1.0012
 1193TIP3   OH224993   4.344   3.936   1.817 -0.2342  0.1860 -0.4302
 1193TIP3    H124994   4.377   3.865   1.762  1.4865  1.0074 -0.5161
 1193TIP3    H224995   4.297   3.994   1.757  1.2414  0.8432 -0.9894
 1194TIP3   OH224996   5.284   5.522  11.779 -0.7836  0.2832  0.0801
 1194TIP3    H124997   5.339   5.446  11.797  0.7281  1.6724  1.6038
 1194TIP3    H224998   5.316   5.556  11.696  0.0810  0.5774  0.5296
 1195TIP3   OH224999   4.945   1.076   4.467 -0.6010 -0.0892 -0.5316
 1195TIP3    H125000   5.003   1.125   4.408 -0.4362  0.6092  0.1915
 1195TIP3    H225001   4.919   1.140   4.533 -0.8085 -0.8525  0.1311
 1196TIP3   OH225002   6.690   1.296   1.772 -0.0492  0.0018 -0.2565
 1196TIP3    H125003   6.629   1.224   1.788  1.5556 -1.1048  1.2930
 1196TIP3    H225004   6.765   1.255   1.730  0.5178  0.9451 -0.1941
 1197TIP3   OH225005   2.590   5.718  12.375  0.4383  0.4882 -0.2051
 1197TIP3    H125006   2.519   5.694  12.434  1.4605  0.8821  1.2596
 1197TIP3    H225007   2.670   5.692  12.422  1.3612  2.4461 -0.5821
 1198TIP3   OH225008   2.374   0.716  12.884 -0.0155  0.2064  0.0459
 1198TIP3    H125009   2.439   0.650  12.909  0.1815  1.0114  1.8014
 1198TIP3    H225010   2.344   0.689  12.797  0.6574 -1.7157  0.3739
 1199TIP3   OH225011   2.052   4.451   5.166  0.0831  1.0189  0.0454
 1199TIP3    H125012   2.126   4.395   5.190  0.2111  0.1952 -2.0570
 1199TIP3    H225013   1.978   4.391   5.158 -0.2685  1.4749 -0.1958
 1200TIP3   OH225014   0.982   0.373   3.304  0.4585  0.0883  0.1544
 1200TIP3    H125015   0.971   0.391   3.397  0.9464  0.5140  0.1327
 1200TIP3    H225016   1.011   0.456   3.267  1.8647 -0.4844 -0.0986
 1201TIP3   OH225017   3.707   1.763   5.837  0.1595  0.2320  0.3968
 1201TIP3    H125018   3.792   1.768   5.793  0.4017  1.5776  0.9678
 1201TIP3    H225019   3.726   1.784   5.928 -0.5919 -0.8291  0.8194
 1202TIP3   OH225020   3.641   2.407  15.200 -0.0686  0.2753  0.5851
 1202TIP3    H125021   3.599   2.332  15.159  0.5654 -0.1504  0.7059
 1202TIP3    H225022   3.625   2.395  15.294 -3.0992  2.1819  0.4627
 1203TIP3   OH225023   2.639   0.884  14.799 -0.1431 -1.0445  0.5423
 1203TIP3    H125024   2.708   0.854  14.859  0.7820  0.0531  0.0529
 1203TIP3    H225025   2.671   0.967  14.764 -1.3102 -0.9616 -0.4030
 1204TIP3   OH225026   2.512   4.791   6.445  0.7830 -0.1294 -0.1242
 1204TIP3    H125027   2.433   4.807   6.394  0.9083  1.0407  0.0191
 1204TIP3    H225028   2.552   4.878   6.456  2.7419 -0.8076 -1.2438
 1205TIP3   OH225029   1.182   2.126   3.927 -0.0962  0.0743 -0.2708
 1205TIP3    H125030   1.212   2.097   3.841  0.1622  0.0810 -0.1845
 1205TIP3    H225031   1.260   2.164   3.968 -0.2276  0.1067 -0.0492
 1206TIP3   OH225032   2.957   2.873  13.055 -0.1029 -0.2942 -0.2877
 1206TIP3    H125033   2.972   2.892  12.962 -0.3679 -0.2802 -0.3289
 1206TIP3    H225034   3.001   2.789  13.070  0.8156  0.1978 -0.1773
 1207TIP3   OH225035   2.880   2.354   3.737 -0.1615 -0.1433 -0.3307
 1207TIP3    H125036   2.949   2.336   3.673  0.3437 -0.8877  0.4104
 1207TIP3    H225037   2.876   2.449   3.742  0.1490 -0.0813 -1.0778
 1208TIP3   OH225038   3.689   0.238   3.509 -0.3171  0.4761 -0.0478
 1208TIP3    H125039   3.666   0.242   3.416 -0.9429 -1.0718  0.0068
 1208TIP3    H225040   3.779   0.207   3.510 -0.5865 -0.3442 -0.1456
 1209TIP3   OH225041   1.396   1.900  14.593  0.4624  0.1114 -0.0937
 1209TIP3    H125042   1.321   1.953  14.621 -1.0850 -1.7096 -0.5527
 1209TIP3    H225043   1.403   1.832  14.659 -0.3790 -1.6044 -1.6956
 1210TIP3   OH225044   6.174   2.798   3.064  0.5429 -0.1739 -0.0820
 1210TIP3    H125045   6.164   2.893   3.052  0.2501 -0.2090 -0.1059
 1210TIP3    H225046   6.096   2.771   3.111 -0.1329 -0.6471 -1.4271
 1211TIP3   OH225047   4.159   6.477   0.244 -0.2256  0.4803  0.3362
 1211TIP3    H125048   4.254   6.468   0.230 -0.4417 -0.4940 -0.6649
 1211TIP3    H225049   4.141   6.426   0.323  0.0283  0.3419  0.3065
 1212TIP3   OH225050   0.749   3.324  15.155  0.1101  0.0871  0.7549
 1212TIP3    H125051   0.781   3.296  15.069  1.1502  0.0266  1.1464
 1212TIP3    H225052   0.657   3.299  15.156  0.2569 -0.5177 -0.0879
 1213TIP3   OH225053   3.184   4.190   2.483  0.4885 -0.7672 -0.6222
 1213TIP3    H125054   3.206   4.247   2.557 -0.0251 -0.0602 -1.0035
 1213TIP3    H225055   3.239   4.113   2.495  1.0595 -0.2721  0.0075
 1214TIP3   OH225056   2.325   5.671   3.924 -0.0042  0.2910  0.5598
 1214TIP3    H125057   2.408   5.635   3.955 -0.6139 -1.5598  0.1317
 1214TIP3    H225058   2.321   5.758   3.964  1.6778  0.0398  1.3704
 1215TIP3   OH225059   2.771   0.090  12.029 -0.5409  0.3518 -0.4526
 1215TIP3    H125060   2.827   0.060  11.958  2.7514  2.0473  1.2333
 1215TIP3    H225061   2.787   0.029  12.100 -0.5675  1.0544  0.1710
 1216TIP3   OH225062   0.713   4.284   3.920 -0.2958 -0.3821  0.3430
 1216TIP3    H125063   0.664   4.353   3.875 -1.7196 -1.5487  0.0388
 1216TIP3    H225064   0.789   4.329   3.957  0.1873  0.8706 -2.0149
 1217TIP3   OH225065   2.477   4.782  16.757  0.4134 -0.2736  0.3207
 1217TIP3    H125066   2.472   4.693  16.790 -2.6840  0.4125  2.0225
 1217TIP3    H225067   2.555   4.819  16.798  0.6890 -1.6374  1.0679
 1218TIP3   OH225068   4.435   5.016   5.754  0.3516  0.3264 -0.3605
 1218TIP3    H125069   4.429   4.985   5.844 -0.3850 -0.5946 -0.7045
 1218TIP3    H225070   4.394   5.102   5.756 -0.6128 -0.1214  0.0092
 1219TIP3   OH225071   2.614   5.248   1.172 -0.4963  0.1406 -0.8275
 1219TIP3    H125072   2.590   5.275   1.083  1.1647 -1.0008 -1.6884
 1219TIP3    H225073   2.693   5.300   1.191 -2.1871  2.2057  1.0326
 1220TIP3   OH225074   5.275   6.421   5.722 -0.0479  0.6316 -0.5188
 1220TIP3    H125075   5.363   6.445   5.749  0.8628 -2.4992 -0.3747
 1220TIP3    H225076   5.218   6.471   5.780  1.7337 -0.2908  2.2320
 1221TIP3   OH225077   6.070   1.934  14.237  0.2793  0.6429  0.2525
 1221TIP3    H125078   6.018   1.856  14.221 -1.1763  1.6244  0.0613
 1221TIP3    H225079   6.020   2.005  14.197  4.2204  1.0761 -4.9794
 1222TIP3   OH225080   5.323   3.962  12.561 -0.1814  0.9203  0.2644
 1222TIP3    H125081   5.322   4.031  12.495  0.8815  2.0593  1.3776
 1222TIP3    H225082   5.306   4.008  12.644 -1.0852 -0.4077  0.8528
 1223TIP3   OH225083   5.940   2.462  13.795 -0.5344  0.6723 -0.3869
 1223TIP3    H125084   5.987   2.537  13.830 -0.1281  0.7945 -1.1718
 1223TIP3    H225085   6.009   2.402  13.765 -0.8655  0.5539 -0.9304
 1224TIP3   OH225086   0.456   4.030   1.007  0.2209 -0.4655 -0.1265
 1224TIP3    H125087   0.490   4.095   1.069 -0.2992  0.8751 -1.1913
 1224TIP3    H225088   0.503   3.949   1.028  2.3722  0.7305 -0.0494
 1225TIP3   OH225089   5.213   1.609  16.248 -0.0803 -0.3748 -0.1149
 1225TIP3    H125090   5.283   1.638  16.307  1.7159 -0.9786 -1.8311
 1225TIP3    H225091   5.133   1.646  16.285  1.2471  1.0630  1.4664
 1226TIP3   OH225092   4.028   2.777   6.360 -0.1196 -0.1491 -0.3366
 1226TIP3    H125093   4.113   2.819   6.369 -0.5819  0.3189  2.8228
 1226TIP3    H225094   4.043   2.686   6.389 -0.7487  0.0763  0.7615
 1227TIP3   OH225095   1.235   5.304   2.545 -0.8715 -0.4178  0.1037
 1227TIP3    H125096   1.230   5.310   2.640  2.0151  0.9295  0.2743
 1227TIP3    H225097   1.172   5.370   2.514  0.1631  1.1852  1.2175
 1228TIP3   OH225098   4.271   0.054  16.699 -0.1424 -0.3954 -0.1297
 1228TIP3    H125099   4.244   0.125  16.757  0.9563  0.2258 -0.3376
 1228TIP3    H225100   4.286  -0.021  16.757  0.0398 -0.0458  0.2824
 1229TIP3   OH225101   5.379   5.558   4.076  0.3510  0.0872  0.5977
 1229TIP3    H125102   5.472   5.539   4.088  0.3612  0.2458  0.7703
 1229TIP3    H225103   5.377   5.632   4.016  0.3875  0.9841  1.6594
 1230TIP3   OH225104   1.588   4.553  15.521 -0.5003  0.1430 -0.2830
 1230TIP3    H125105   1.612   4.612  15.449 -1.9879  0.6953 -0.3712
 1230TIP3    H225106   1.601   4.465  15.486  0.7897  0.4017 -0.4983
 1231TIP3   OH225107   3.686   1.667  12.931 -0.3749  0.2647 -0.6349
 1231TIP3    H125108   3.777   1.694  12.921 -0.5899  1.0593 -0.5406
 1231TIP3    H225109   3.654   1.660  12.841 -0.3153  0.3334 -0.6618
 1232TIP3   OH225110   5.587   6.135   1.643 -0.4183 -0.4067 -0.1122
 1232TIP3    H125111   5.526   6.171   1.707 -0.6533 -1.5467  0.3454
 1232TIP3    H225112   5.617   6.053   1.683  1.4662  0.1361 -0.2928
 1233TIP3   OH225113   5.690   2.526  13.962 -0.2481 -0.2517 -0.7380
 1233TIP3    H125114   5.774   2.497  13.928 -0.5474 -1.7614 -0.2452
 1233TIP3    H225115   5.633   2.450  13.955 -0.9072  0.0123  1.1433
 1234TIP3   OH225116   6.014   5.701   6.051  0.4009 -0.2407 -0.0092
 1234TIP3    H125117   5.958   5.726   5.978 -0.2026 -1.7950 -0.1225
 1234TIP3    H225118   5.985   5.756   6.123 -0.0794  0.2027 -0.5325
 1235TIP3   OH225119   3.107   3.695  14.784  0.2017  0.1197  0.0939
 1235TIP3    H125120   3.061   3.696  14.700  0.2591  0.2754  0.0636
 1235TIP3    H225121   3.037   3.703  14.849  0.0309 -1.3091  0.1234
 1236TIP3   OH225122   3.060   2.175  11.672 -0.1331  0.8307  0.3771
 1236TIP3    H125123   3.038   2.234  11.744  1.2108  0.6391  0.9643
 1236TIP3    H225124   3.147   2.202  11.643 -0.0367 -0.0389 -0.1994
 1237TIP3   OH225125   1.204   2.819   5.279 -0.0300 -0.5954  0.1030
 1237TIP3    H125126   1.213   2.915   5.283  0.2110 -0.5635 -0.9467
 1237TIP3    H225127   1.291   2.788   5.255  0.1384 -1.1721  1.3581
 1238TIP3   OH225128   1.665   3.916   2.961 -0.1742 -0.2204  0.0741
 1238TIP3    H125129   1.611   3.870   3.024  0.1251  0.5908  0.9494
 1238TIP3    H225130   1.674   4.005   2.997  1.1751 -0.1445 -0.3835
 1239TIP3   OH225131   2.019   2.210  11.296  0.2782  0.5509 -0.3539
 1239TIP3    H125132   1.993   2.155  11.370  0.8834  0.3129 -0.3118
 1239TIP3    H225133   2.102   2.173  11.267 -0.2545  0.2600 -1.5558
 1240TIP3   OH225134   0.586   0.693   0.366 -0.0559  0.3110  0.3547
 1240TIP3    H125135   0.651   0.643   0.415  0.8227  0.0142 -1.0606
 1240TIP3    H225136   0.551   0.632   0.302 -1.0925  0.7268  0.4994
 1241TIP3   OH225137   2.042   5.674   5.008 -0.0123 -0.2590  0.1903
 1241TIP3    H125138   1.976   5.620   4.965  2.2920 -1.4273 -2.1865
 1241TIP3    H225139   2.017   5.764   4.987 -1.7686 -0.5487  0.8735
 1242TIP3   OH225140   3.664   0.955   5.153 -0.0044  0.3485 -0.0905
 1242TIP3    H125141   3.609   0.969   5.075  0.9834  1.8109 -0.5733
 1242TIP3    H225142   3.624   1.011   5.220  1.0549  1.7037 -0.5490
 1243TIP3   OH225143   2.788   2.942  15.978  0.5177 -0.1047 -0.1197
 1243TIP3    H125144   2.730   2.970  16.050  2.0852  1.1748  0.7232
 1243TIP3    H225145   2.743   2.867  15.939 -1.8971  1.0577  0.2097
 1244TIP3   OH225146   6.516   0.453   2.622 -0.3448  0.2100  0.5054
 1244TIP3    H125147   6.543   0.412   2.704  0.4598  0.8692  0.5900
 1244TIP3    H225148   6.598   0.474   2.577 -0.7618  0.4594 -0.1684
 1245TIP3   OH225149   6.628   3.092   2.742 -0.1548 -0.3108  0.3414
 1245TIP3    H125150   6.612   3.004   2.708  0.6961 -0.1672 -0.5118
 1245TIP3    H225151   6.676   3.136   2.671 -0.8142  0.9275  0.6381
 1246TIP3   OH225152   6.600   4.568   0.657  0.1812 -0.2246 -0.2033
 1246TIP3    H125153   6.672   4.526   0.704  0.0548 -0.7796 -0.4996
 1246TIP3    H225154   6.534   4.584   0.724  0.7351  0.6741  0.1554
 1247TIP3   OH225155   2.512   6.662   4.938  0.0185 -0.5583 -0.6470
 1247TIP3    H125156   2.511   6.610   4.858  1.0294 -2.0822  0.2883
 1247TIP3    H225157   2.424   6.700   4.943 -0.0127 -0.2783 -2.5442
 1248TIP3   OH225158   6.345   4.564   1.803  0.1938  0.5456  0.0465
 1248TIP3    H125159   6.379   4.548   1.891  0.7152  0.1799 -0.2080
 1248TIP3    H225160   6.300   4.648   1.808  1.0573  0.9976  0.4331
 1249TIP3   OH225161   2.412   5.085  16.835  0.5333  0.1379 -0.2095
 1249TIP3    H125162   2.444   4.998  16.814 -0.4853 -0.5060  0.8126
 1249TIP3    H225163   2.463   5.144  16.779  3.3895 -0.8070  1.2384
 1250TIP3   OH225164   4.509   2.284   1.880 -0.0547  0.2137  0.1975
 1250TIP3    H125165   4.435   2.225   1.893  0.6024 -0.4178  1.2064
 1250TIP3    H225166   4.469   2.369   1.861 -1.0591  0.0099  1.2843
 1251TIP3   OH225167   5.087   0.379   1.505  0.1345  0.1622 -0.3230
 1251TIP3    H125168   5.171   0.368   1.550  0.3485  1.7838 -0.2548
 1251TIP3    H225169   5.026   0.402   1.575  0.0917  0.9849 -0.6211
 1252TIP3   OH225170   3.949   2.222  13.749 -0.0872 -0.2372  0.6122
 1252TIP3    H125171   3.995   2.173  13.681  1.6491  0.7193  1.0491
 1252TIP3    H225172   4.011   2.228  13.821 -0.9871  0.9057  1.3333
 1253TIP3   OH225173   6.488   0.211   2.099 -0.1628 -0.6296  0.5043
 1253TIP3    H125174   6.470   0.132   2.150  1.1046 -2.4937 -1.7048
 1253TIP3    H225175   6.402   0.242   2.072 -0.7989 -0.0970  2.9567
 1254TIP3   OH225176   1.592   4.531  14.914 -0.6227  0.1467 -0.6711
 1254TIP3    H125177   1.650   4.578  14.854 -0.4539 -0.2921 -0.8575
 1254TIP3    H225178   1.512   4.516  14.863 -0.3559 -0.5140 -0.8964
 1255TIP3   OH225179   2.948   0.647   0.387  0.1562 -0.4928  0.4139
 1255TIP3    H125180   3.004   0.620   0.314  0.4673 -0.9234  0.8042
 1255TIP3    H225181   2.952   0.743   0.386  2.1866 -0.5072  1.3755
 1256TIP3   OH225182   3.306   0.508   1.696  0.0309 -0.2992 -0.1033
 1256TIP3    H125183   3.384   0.536   1.647 -1.3048  1.1235 -1.5886
 1256TIP3    H225184   3.336   0.498   1.786  1.4447  2.8466 -0.0658
 1257TIP3   OH225185   6.436   4.876  11.368  0.0789  0.4023 -0.7028
 1257TIP3    H125186   6.371   4.808  11.388 -1.7387  2.3321  0.2412
 1257TIP3    H225187   6.518   4.828  11.363 -1.1593 -1.9343 -0.4091
 1258TIP3   OH225188   0.475   1.398   2.302  0.0190  0.5340  0.3438
 1258TIP3    H125189   0.415   1.360   2.366 -0.4546  0.2667 -0.2428
 1258TIP3    H225190   0.419   1.424   2.229  0.1848  3.3528  1.1198
 1259TIP3   OH225191   1.777   1.801  15.961  0.2270 -0.5924  0.2420
 1259TIP3    H125192   1.739   1.809  16.049  1.0046 -0.4235  0.5736
 1259TIP3    H225193   1.726   1.731  15.920 -0.3308 -0.4848  0.7252
 1260TIP3   OH225194   0.279   6.346  11.887  0.2511  0.5510 -0.1885
 1260TIP3    H125195   0.297   6.440  11.895  0.0124  0.5024  1.3901
 1260TIP3    H225196   0.246   6.335  11.798  0.2491  1.9710 -0.3902
 1261TIP3   OH225197   2.908   3.198   1.360 -0.1591  0.2131  0.4640
 1261TIP3    H125198   2.926   3.222   1.269 -0.5316  2.0332  0.8290
 1261TIP3    H225199   2.834   3.254   1.385  0.1109 -0.0637  1.9683
 1262TIP3   OH225200   6.777   5.583  12.929  0.1304  1.0780  0.0523
 1262TIP3    H125201   6.798   5.539  12.847 -1.2399  0.0009  0.2313
 1262TIP3    H225202   6.831   5.539  12.995  1.0423  1.7719 -0.2213
 1263TIP3   OH225203   2.115   6.601  14.280 -0.4188  0.1622 -0.3938
 1263TIP3    H125204   2.031   6.556  14.271  0.3588 -1.1880 -1.2036
 1263TIP3    H225205   2.173   6.557  14.219  0.8281  1.2484 -0.0458
 1264TIP3   OH225206   3.499   5.342  13.954  0.1837 -0.1197 -0.0684
 1264TIP3    H125207   3.464   5.396  13.883  1.2444  0.0633 -0.4717
 1264TIP3    H225208   3.594   5.346  13.942  0.4649  0.9479  2.0898
 1265TIP3   OH225209   0.052   2.769  12.541  0.6005  0.8001  0.2312
 1265TIP3    H125210   0.070   2.717  12.619 -1.8471 -0.2631  0.1804
 1265TIP3    H225211   0.022   2.854  12.575 -2.9233 -0.4722  0.6822
 1266TIP3   OH225212   4.720   3.909   5.216 -0.2084 -0.0789  0.0187
 1266TIP3    H125213   4.748   3.944   5.301 -1.6199 -1.8288  1.2653
 1266TIP3    H225214   4.779   3.836   5.200  0.9881  1.1044 -1.2734
 1267TIP3   OH225215   4.256   5.720  13.498  0.1418 -0.5785  0.7996
 1267TIP3    H125216   4.315   5.787  13.462  0.2375 -1.4683 -0.7857
 1267TIP3    H225217   4.175   5.731  13.448  0.3807 -2.0397  0.0434
 1268TIP3   OH225218   3.418   0.040   6.004 -0.0639  0.1704  0.3700
 1268TIP3    H125219   3.361   0.099   6.052 -0.4543  1.1980 -1.2697
 1268TIP3    H225220   3.372   0.023   5.922 -0.2038 -2.8745  0.9598
 1269TIP3   OH225221   0.884   5.707   1.322  0.2497  0.1888 -0.0670
 1269TIP3    H125222   0.833   5.684   1.399  0.7458  0.0482  0.2282
 1269TIP3    H225223   0.975   5.694   1.349  0.4327  0.2198 -0.6494
 1270TIP3   OH225224   1.472   6.038  11.034  0.1652  0.7578  0.7173
 1270TIP3    H125225   1.563   6.062  11.052 -0.0409  1.3868  0.9462
 1270TIP3    H225226   1.465   5.948  11.065  0.6007  0.8428  1.0747
 1271TIP3   OH225227   6.182   2.773   3.431  0.3709  0.3841 -0.1639
 1271TIP3    H125228   6.219   2.809   3.512  1.6354 -0.5846 -0.2856
 1271TIP3    H225229   6.087   2.770   3.447  0.7018 -1.1260  1.8555
 1272TIP3   OH225230   2.749   3.724  11.990  0.0980 -0.5912  0.1134
 1272TIP3    H125231   2.810   3.694  11.922 -0.2863 -1.2952  0.0723
 1272TIP3    H225232   2.779   3.812  12.011 -0.0127 -0.1922 -1.2673
 1273TIP3   OH225233   5.062   3.301   1.529 -0.5205 -0.0412  0.1782
 1273TIP3    H125234   5.142   3.354   1.523 -0.3830 -0.0675  1.5158
 1273TIP3    H225235   4.994   3.358   1.494 -0.0607  0.2987 -0.1875
 1274TIP3   OH225236   0.567   6.670  13.481  0.3128  0.5863  0.5527
 1274TIP3    H125237   0.474   6.690  13.478  0.0622 -0.3533  1.5430
 1274TIP3    H225238   0.593   6.665  13.389 -0.3154  2.1089  0.2700
 1275TIP3   OH225239   2.797   3.104   6.540  0.3654  0.2548  0.6697
 1275TIP3    H125240   2.766   3.162   6.610  0.1066  1.4646 -0.3987
 1275TIP3    H225241   2.736   3.120   6.468 -0.2031 -1.9778  0.5730
 1276TIP3   OH225242   3.561   0.191   4.277 -0.2705 -0.5096 -0.2402
 1276TIP3    H125243   3.481   0.240   4.258 -0.6437  0.0926  2.4372
 1276TIP3    H225244   3.624   0.258   4.302 -0.5301 -1.1929  2.6271
 1277TIP3   OH225245   1.797   5.394   3.584 -0.3504  0.3590 -0.4823
 1277TIP3    H125246   1.867   5.365   3.524  0.0573  2.8283 -1.3000
 1277TIP3    H225247   1.837   5.386   3.671  0.2892  0.0217 -0.7899
 1278TIP3   OH225248   4.521   4.048   6.004  0.4201 -0.2849  0.1240
 1278TIP3    H125249   4.436   4.063   5.961 -0.0350 -0.1921  1.0400
 1278TIP3    H225250   4.583   4.039   5.931 -0.7734 -3.0537 -0.7126
 1279TIP3   OH225251   3.696   2.728  17.099 -0.5252 -0.3913 -0.1163
 1279TIP3    H125252   3.781   2.694  17.126  0.1859  0.3171 -1.3678
 1279TIP3    H225253   3.671   2.674  17.024 -0.8903 -0.1967 -0.1372
 1280TIP3   OH225254   5.194   4.270   3.069  0.3255  0.1302 -0.6042
 1280TIP3    H125255   5.219   4.179   3.080 -2.4796 -0.7402 -0.7417
 1280TIP3    H225256   5.253   4.318   3.128  1.3742 -1.8146  0.0141
 1281TIP3   OH225257   5.847   0.728  11.484 -0.3117 -0.5367 -0.1002
 1281TIP3    H125258   5.936   0.762  11.471 -0.5882  0.4610  0.5763
 1281TIP3    H225259   5.805   0.738  11.398  0.4730 -1.8410 -0.6824
 1282TIP3   OH225260   4.614   6.653   5.044  0.1190 -0.7072  0.1371
 1282TIP3    H125261   4.639   6.599   4.969 -0.2287 -2.8527  1.5004
 1282TIP3    H225262   4.520   6.640   5.055 -0.6602  2.6198 -1.2915
 1283TIP3   OH225263   6.023   1.294   1.757  0.3729 -0.1522  0.0599
 1283TIP3    H125264   6.087   1.311   1.826  2.6429  1.8410 -2.2860
 1283TIP3    H225265   5.943   1.337   1.787  1.1150  0.1752  1.6862
 1284TIP3   OH225266   4.110   2.260   0.489 -0.4007  0.3254  0.3849
 1284TIP3    H125267   4.187   2.216   0.453  0.1627  1.3061  0.3488
 1284TIP3    H225268   4.062   2.290   0.413 -2.0209 -2.1570  0.3069
 1285TIP3   OH225269   5.565   4.549   4.765 -0.3251 -0.4984  0.2281
 1285TIP3    H125270   5.573   4.595   4.681 -0.5652 -1.8515 -0.5721
 1285TIP3    H225271   5.494   4.594   4.810  1.0556  1.4828  0.5741
 1286TIP3   OH225272   3.300   4.640  13.197  0.4159  0.2181  0.0585
 1286TIP3    H125273   3.310   4.656  13.103  1.7576  0.5763  0.2347
 1286TIP3    H225274   3.262   4.552  13.202 -0.0595  0.3624 -0.8216
 1287TIP3   OH225275   1.224   3.749   2.353 -0.2089 -0.5621 -0.1582
 1287TIP3    H125276   1.231   3.680   2.287  0.1758 -2.8045  2.0345
 1287TIP3    H225277   1.175   3.708   2.424 -2.2061  2.3157  0.2944
 1288TIP3   OH225278   4.372   2.476  16.067  0.6719  0.3465 -0.9348
 1288TIP3    H125279   4.460   2.468  16.105  0.3966  2.4642  0.2866
 1288TIP3    H225280   4.328   2.395  16.091  1.7180  0.0348  0.0100
 1289TIP3   OH225281   0.842   5.262   1.102  0.1938 -0.2351 -0.3591
 1289TIP3    H125282   0.762   5.285   1.055 -0.9681 -0.0535  1.5826
 1289TIP3    H225283   0.824   5.287   1.193  3.0684  1.3325 -0.1067
 1290TIP3   OH225284   3.482   3.356   3.466  0.4754  0.4809  0.6497
 1290TIP3    H125285   3.576   3.358   3.483  0.7983  2.8751 -0.9076
 1290TIP3    H225286   3.447   3.430   3.516 -0.4734  0.0212  0.6843
 1291TIP3   OH225287   1.554   3.472  14.524  0.1391 -0.4969  0.4080
 1291TIP3    H125288   1.486   3.511  14.578 -0.3538 -1.3343  0.4034
 1291TIP3    H225289   1.598   3.409  14.582 -0.6292 -1.6698 -0.2447
 1292TIP3   OH225290   3.629   0.458   2.907  0.2453  0.2763 -0.4517
 1292TIP3    H125291   3.557   0.496   2.858 -1.7600 -0.8560  1.4433
 1292TIP3    H225292   3.599   0.370   2.930  2.3318 -0.3141  0.2228
 1293TIP3   OH225293   0.395   5.279  11.529 -0.3923  0.3648 -0.2168
 1293TIP3    H125294   0.384   5.270  11.624 -2.9018  0.5010 -0.4062
 1293TIP3    H225295   0.486   5.256  11.512  0.2247  0.7456  2.2658
 1294TIP3   OH225296   6.784   6.570  12.405 -0.1380 -0.6654  0.3233
 1294TIP3    H125297   6.829   6.511  12.466 -0.7347 -0.0215  1.4252
 1294TIP3    H225298   6.711   6.605  12.456 -0.7162 -0.1808 -0.8132
 1295TIP3   OH225299   4.169   1.191  16.939  0.0083 -1.3156  0.3195
 1295TIP3    H125300   4.152   1.278  16.977 -1.1605 -1.6823  0.6833
 1295TIP3    H225301   4.227   1.149  17.002 -0.5104 -1.2748  0.8442
 1296TIP3   OH225302   1.963   0.180  10.842 -0.4041  0.0830  0.6153
 1296TIP3    H125303   2.014   0.235  10.782 -0.6790 -1.1481 -0.7962
 1296TIP3    H225304   1.872   0.200  10.822 -0.5324 -1.4713 -0.5524
 1297TIP3   OH225305   5.822   5.736   5.836  0.1308  0.1183  0.2958
 1297TIP3    H125306   5.743   5.772   5.877  0.5197  1.4106 -0.0352
 1297TIP3    H225307   5.809   5.641   5.837 -1.0232  0.2684  1.0447
 1298TIP3   OH225308   1.900   1.890  13.974  0.2153  0.8407  0.0314
 1298TIP3    H125309   1.870   1.891  13.883 -0.0218  0.5715  0.1054
 1298TIP3    H225310   1.821   1.904  14.026  0.1877  0.0007  0.2328
 1299TIP3   OH225311   5.372   2.014   1.806  0.1486 -0.5446 -0.4606
 1299TIP3    H125312   5.282   2.045   1.800  0.1927 -0.7290 -2.5269
 1299TIP3    H225313   5.419   2.062   1.738  1.6336 -0.4472  0.5822
 1300TIP3   OH225314   5.619   5.181  16.873  0.8021 -0.0950 -0.8241
 1300TIP3    H125315   5.636   5.246  16.805 -1.0986 -0.2574 -1.5269
 1300TIP3    H225316   5.592   5.232  16.949  0.8241 -0.0024 -0.8786
 1301TIP3   OH225317   3.089   4.068  14.665 -0.1960  0.5073  0.1631
 1301TIP3    H125318   3.006   4.033  14.697  0.1704  0.0231  0.6200
 1301TIP3    H225319   3.136   3.991  14.632  0.8457  0.4473  1.6849
 1302TIP3   OH225320   0.517   5.717   1.174 -0.2166  0.3712 -0.3025
 1302TIP3    H125321   0.492   5.809   1.171  0.1543  0.4554 -1.0326
 1302TIP3    H225322   0.567   5.703   1.093 -1.1599 -0.7204 -0.7233
 1303TIP3   OH225323   5.943   1.399  12.542 -0.3538 -0.0832 -0.1175
 1303TIP3    H125324   5.992   1.438  12.614 -0.7467 -1.2363  0.8081
 1303TIP3    H225325   5.924   1.310  12.571  0.1404 -0.8463 -1.9858
 1304TIP3   OH225326   1.572   5.674   2.955  0.0944 -0.1132  0.5905
 1304TIP3    H125327   1.637   5.604   2.949 -0.9335 -1.3304  2.4785
 1304TIP3    H225328   1.583   5.708   3.044 -1.2351  0.2585  0.6288
 1305TIP3   OH225329   5.109   0.602  10.788  0.0094  0.5683 -0.4253
 1305TIP3    H125330   5.070   0.527  10.743  0.5075 -0.9213  1.5189
 1305TIP3    H225331   5.200   0.602  10.760 -0.1520  0.9124 -0.9753
 1306TIP3   OH225332   1.598   5.759   1.594 -0.2432 -0.1258 -0.1481
 1306TIP3    H125333   1.507   5.770   1.621 -0.0998 -0.2543  0.4046
 1306TIP3    H225334   1.648   5.807   1.660  0.1176 -0.4702 -0.1652
 1307TIP3   OH225335   0.922   0.472  10.571 -0.0854  0.2848  0.4215
 1307TIP3    H125336   0.999   0.448  10.520  0.1435 -0.4808  1.0993
 1307TIP3    H225337   0.848   0.457  10.512  0.2241  0.1138  0.0764
 1308TIP3   OH225338   4.772   6.170   4.522 -0.1738 -0.3310 -0.2937
 1308TIP3    H125339   4.854   6.206   4.488 -1.5268  0.6744 -2.7637
 1308TIP3    H225340   4.785   6.166   4.616  1.5601  2.9302 -0.2480
 1309TIP3   OH225341   1.542   2.289   6.035  0.4175 -0.2219  0.1769
 1309TIP3    H125342   1.536   2.383   6.017 -1.8622 -0.4509 -0.5465
 1309TIP3    H225343   1.549   2.282   6.130  3.4559  0.7032  0.1409
 1310TIP3   OH225344   5.679   3.110   5.392  0.1306  0.6801  0.5415
 1310TIP3    H125345   5.617   3.182   5.380  0.5023  0.8702 -0.3663
 1310TIP3    H225346   5.764   3.149   5.369  0.3319 -0.0413  0.0324
 1311TIP3   OH225347   1.144   6.138   1.035 -0.2656  0.0636 -0.2414
 1311TIP3    H125348   1.203   6.075   0.994  1.5957  1.0541  0.7776
 1311TIP3    H225349   1.096   6.087   1.100 -1.0369 -0.8827 -1.4904
 1312TIP3   OH225350   4.764   6.769  15.310  0.5839 -0.1837  0.3168
 1312TIP3    H125351   4.708   6.766  15.387  0.0542  2.1769  0.0763
 1312TIP3    H225352   4.853   6.781  15.344  0.3782  0.6265  0.5629
 1313TIP3   OH225353   6.380   0.373  15.618  0.2569 -0.8249 -0.5395
 1313TIP3    H125354   6.472   0.391  15.600  0.3314 -0.6681 -0.0298
 1313TIP3    H225355   6.380   0.340  15.708 -0.1793 -0.8854 -0.5609
 1314TIP3   OH225356   5.733   5.074  10.676 -0.5195 -0.1274  0.5473
 1314TIP3    H125357   5.756   5.165  10.659  0.4305 -0.2148  1.2627
 1314TIP3    H225358   5.645   5.077  10.713 -0.8429  0.4180 -0.2450
 1315TIP3   OH225359   0.241   3.095   0.410 -0.2222 -0.3745  0.7110
 1315TIP3    H125360   0.194   3.176   0.388 -1.0348 -1.1633 -0.6062
 1315TIP3    H225361   0.187   3.054   0.477 -1.5955 -1.3343 -0.8761
 1316TIP3   OH225362   2.551   5.547  12.907  0.6688 -0.0597  0.7818
 1316TIP3    H125363   2.637   5.562  12.947  0.1178 -0.4459  2.1849
 1316TIP3    H225364   2.497   5.619  12.939 -0.4281 -1.6672  2.8035
 1317TIP3   OH225365   6.121   4.775   4.608  0.2160 -0.6448 -0.0738
 1317TIP3    H125366   6.027   4.793   4.614  0.3646 -0.0014  0.5211
 1317TIP3    H225367   6.162   4.862   4.611  1.0068 -1.0068  3.2889
 1318TIP3   OH225368   1.255   3.484  13.053  0.2251  0.2956 -0.4108
 1318TIP3    H125369   1.273   3.448  12.966  1.0009 -0.2957 -0.0153
 1318TIP3    H225370   1.303   3.427  13.113  0.0937  0.9933  0.3726
 1319TIP3   OH225371   4.228   5.851  13.745 -0.1343 -0.3576  0.3115
 1319TIP3    H125372   4.319   5.849  13.776  0.1465 -0.9794 -0.5017
 1319TIP3    H225373   4.226   5.787  13.673 -1.2784 -0.5292  0.4778
 1320TIP3   OH225374   0.788   5.723  15.455  0.1265  0.1300  0.1146
 1320TIP3    H125375   0.876   5.759  15.451 -0.8400  3.2103  2.3880
 1320TIP3    H225376   0.770   5.694  15.366  2.2677  2.4842 -1.2110
 1321TIP3   OH225377   2.282   4.983   2.614 -0.3349 -0.3063  0.4799
 1321TIP3    H125378   2.233   5.050   2.566  0.1678 -0.0069  0.3775
 1321TIP3    H225379   2.215   4.930   2.656 -0.7441  0.3244  0.6405
 1322TIP3   OH225380   1.193   0.522  14.513 -0.2037  0.2444 -0.3973
 1322TIP3    H125381   1.202   0.446  14.456 -0.5069 -0.1353  0.0485
 1322TIP3    H225382   1.100   0.524  14.536 -0.0050  0.1185  0.4477
 1323TIP3   OH225383   6.123   4.884  14.257 -0.5000  0.0625  0.2259
 1323TIP3    H125384   6.045   4.839  14.224 -0.4121  0.4982 -0.6103
 1323TIP3    H225385   6.147   4.836  14.336 -1.6104 -0.0827  0.4943
 1324TIP3   OH225386   0.602   0.424   3.251 -0.6351  0.3668 -0.2713
 1324TIP3    H125387   0.585   0.358   3.184  0.3530 -0.5576  0.3627
 1324TIP3    H225388   0.666   0.483   3.210  0.0640 -0.2691 -0.1129
 1325TIP3   OH225389   3.358   2.020  16.492 -0.5859 -0.3354  0.0045
 1325TIP3    H125390   3.393   1.951  16.549  0.7539  1.0515  0.9210
 1325TIP3    H225391   3.354   1.979  16.405 -2.5854 -2.4694  0.9881
 1326TIP3   OH225392   6.158   5.433  15.131  0.5329 -0.0267 -0.2581
 1326TIP3    H125393   6.179   5.340  15.136 -0.1341 -0.1749 -0.1000
 1326TIP3    H225394   6.239   5.475  15.103  1.1831 -0.5121  0.8366
 1327TIP3   OH225395   4.455   1.272   5.640 -0.7028 -0.3512 -0.0215
 1327TIP3    H125396   4.545   1.259   5.611 -0.7329 -2.7606  0.7989
 1327TIP3    H225397   4.460   1.349   5.697  1.0431 -1.0231  0.8103
 1328TIP3   OH225398   4.157   1.198   1.725 -0.1056 -0.2722  0.5406
 1328TIP3    H125399   4.224   1.138   1.690  1.2961  0.3189  2.0576
 1328TIP3    H225400   4.138   1.163   1.812 -1.5709 -0.2353  0.2498
 1329TIP3   OH225401   5.286   6.132  14.632 -0.5903 -0.4683  0.2570
 1329TIP3    H125402   5.295   6.040  14.656  1.2997 -0.5778 -0.6746
 1329TIP3    H225403   5.247   6.131  14.544 -1.4760 -0.3266  0.6401
 1330TIP3   OH225404   3.851   4.164   0.187 -0.8292 -0.4832 -0.4345
 1330TIP3    H125405   3.875   4.232   0.249  0.3353 -0.7414 -0.5862
 1330TIP3    H225406   3.757   4.177   0.172 -1.3729 -1.0514  2.1322
 1331TIP3   OH225407   2.737   6.127   1.299 -0.4225 -0.5859 -0.3306
 1331TIP3    H125408   2.747   6.216   1.335 -0.6784 -0.6038 -0.2181
 1331TIP3    H225409   2.643   6.112   1.298 -0.3225 -1.4597  1.1065
 1332TIP3   OH225410   5.386   6.272  17.177  0.5301  0.0448 -0.4785
 1332TIP3    H125411   5.403   6.337  17.109  3.3374 -0.4005 -0.3271
 1332TIP3    H225412   5.424   6.310  17.256 -0.0202 -0.7417  0.1855
 1333TIP3   OH225413   4.335   0.830   1.623  0.0670  0.1917 -0.2378
 1333TIP3    H125414   4.393   0.778   1.566  0.2778  0.0531  0.0988
 1333TIP3    H225415   4.388   0.907   1.646 -0.1901  0.4848 -0.6104
 1334TIP3   OH225416   1.767   1.070  13.883  0.3737 -0.1633 -0.3045
 1334TIP3    H125417   1.713   0.992  13.875  0.1184 -0.2646  1.8043
 1334TIP3    H225418   1.807   1.063  13.970  2.4502  0.7552 -1.1192
 1335TIP3   OH225419   1.053   1.800   2.011  0.1011 -0.4381 -0.0369
 1335TIP3    H125420   1.062   1.775   2.103 -0.2105 -1.7078 -0.3359
 1335TIP3    H225421   1.054   1.717   1.963 -0.9335  0.1226 -1.0793
 1336TIP3   OH225422   6.465   5.742  12.717 -0.8239  0.5754 -0.1881
 1336TIP3    H125423   6.417   5.806  12.768  1.5493  0.0454  2.9986
 1336TIP3    H225424   6.557   5.757  12.739 -0.0428 -2.8719 -0.4751
 1337TIP3   OH225425   1.469   3.034  14.157  0.9733 -0.2116 -0.2932
 1337TIP3    H125426   1.506   3.024  14.245 -0.3906 -1.6247  0.1739
 1337TIP3    H225427   1.517   2.971  14.103  0.7188 -0.5119 -0.1740
 1338TIP3   OH225428   5.910   4.285   3.137  0.3663  0.2852 -0.3755
 1338TIP3    H125429   5.832   4.279   3.193  0.6037 -0.8164 -0.1281
 1338TIP3    H225430   5.878   4.261   3.050  0.4820 -0.5430 -0.2024
 1339TIP3   OH225431   3.749   1.380  11.871 -0.3680 -0.2768 -0.1754
 1339TIP3    H125432   3.837   1.369  11.834  0.9341  0.9381  2.3211
 1339TIP3    H225433   3.736   1.301  11.923  1.0783  1.1966  2.6876
 1340TIP3   OH225434   1.814   0.858   5.424 -0.7233  0.0731  0.0332
 1340TIP3    H125435   1.853   0.817   5.501 -1.5534  0.6715  0.7832
 1340TIP3    H225436   1.889   0.885   5.371 -0.1245  0.2809  0.9587
 1341TIP3   OH225437   2.653   0.284  16.082 -0.6963  0.0032  0.6141
 1341TIP3    H125438   2.738   0.260  16.046 -1.5180 -2.8345  0.3613
 1341TIP3    H225439   2.641   0.227  16.158 -1.8600  1.2403  1.4133
 1342TIP3   OH225440   4.290   5.071  14.753  0.0332 -0.5987  0.4312
 1342TIP3    H125441   4.237   5.133  14.704  2.3587  0.0732 -1.3794
 1342TIP3    H225442   4.365   5.122  14.784  0.4272 -1.8373  1.6177
 1343TIP3   OH225443   4.039   1.558  14.551  0.3226  0.0948  0.2025
 1343TIP3    H125444   4.036   1.607  14.469  0.8120 -0.8348 -0.3797
 1343TIP3    H225445   3.954   1.573  14.591  0.2617  0.9659 -0.2327
 1344TIP3   OH225446   6.726   6.399  13.286  0.5129 -0.2217  0.3070
 1344TIP3    H125447   6.773   6.438  13.360  0.7750  0.3651 -0.1653
 1344TIP3    H225448   6.641   6.443  13.286  0.4315 -0.3771  0.3876
 1345TIP3   OH225449   5.016   2.551  14.734  0.8279  0.9500 -0.3123
 1345TIP3    H125450   5.022   2.575  14.826  1.6006  0.7206 -0.2908
 1345TIP3    H225451   5.088   2.489  14.721 -1.3209 -1.7483 -0.2391
 1346TIP3   OH225452   4.966   2.056  14.833 -0.1357 -0.5578  0.7836
 1346TIP3    H125453   4.977   2.101  14.749  0.7668 -0.4424  0.9581
 1346TIP3    H225454   4.952   2.126  14.897  1.3043 -0.4879  1.0609
 1347TIP3   OH225455   5.968   2.287   1.544 -0.1775 -0.0601  0.0739
 1347TIP3    H125456   5.885   2.333   1.553  0.1119  0.4818 -0.0309
 1347TIP3    H225457   6.001   2.279   1.634 -1.7546 -2.9596  0.5457
 1348TIP3   OH225458   5.660   2.202  16.944  0.6950  0.3205 -0.1440
 1348TIP3    H125459   5.565   2.192  16.942  0.6960 -0.6294  1.8744
 1348TIP3    H225460   5.688   2.154  17.022  3.1279 -1.7204 -2.0573
 1349TIP3   OH225461   1.503   6.209  16.896 -0.2163  0.1334  0.0665
 1349TIP3    H125462   1.591   6.236  16.869 -0.0253 -0.8214 -0.3293
 1349TIP3    H225463   1.493   6.243  16.985  0.6135  0.1322  0.1667
 1350TIP3   OH225464   5.427   1.733  15.759  0.5987  0.0574 -0.0209
 1350TIP3    H125465   5.510   1.757  15.719  2.1252 -1.4831  1.9657
 1350TIP3    H225466   5.417   1.640  15.739 -1.2973  0.4648 -1.2118
 1351TIP3   OH225467   3.226   6.154   4.754  0.2885 -0.2997  0.1532
 1351TIP3    H125468   3.153   6.213   4.776  0.7822 -0.6262  3.0453
 1351TIP3    H225469   3.190   6.066   4.767  1.2136 -0.4582  1.8544
 1352TIP3   OH225470   4.199   2.061  16.805 -0.3127  0.2718  0.1542
 1352TIP3    H125471   4.290   2.083  16.783 -0.7266 -0.7352 -3.0840
 1352TIP3    H225472   4.206   1.995  16.874  1.2783  1.6310  1.3897
 1353TIP3   OH225473   6.604   1.073  10.677  0.7025  0.3772 -0.2469
 1353TIP3    H125474   6.682   1.085  10.623  0.2987 -1.7121 -1.3885
 1353TIP3    H225475   6.552   1.152  10.661  1.7982  1.0216 -0.7743
 1354TIP3   OH225476   5.811   1.278  12.157 -0.0019 -0.3794  0.1924
 1354TIP3    H125477   5.748   1.350  12.161 -0.1134 -0.2979 -2.1477
 1354TIP3    H225478   5.896   1.319  12.172 -0.2594 -0.1163  0.9760
 1355TIP3   OH225479   1.844   2.958  11.818 -0.0458 -0.1932 -0.1554
 1355TIP3    H125480   1.841   3.026  11.886  0.1810  0.4923 -0.8249
 1355TIP3    H225481   1.903   2.993  11.751  0.2761 -1.1603 -0.3947
 1356TIP3   OH225482   0.547   2.311  12.843  0.0569  0.0632  0.0352
 1356TIP3    H125483   0.561   2.250  12.771 -0.7592  0.2525 -0.2996
 1356TIP3    H225484   0.586   2.268  12.919  0.2352 -0.4922 -0.3676
 1357TIP3   OH225485   0.596   3.684   5.411  0.2574 -0.1473 -0.5120
 1357TIP3    H125486   0.522   3.626   5.430  0.1076 -0.4049 -1.8084
 1357TIP3    H225487   0.672   3.638   5.445 -0.0091 -0.5317 -0.4338
 1358TIP3   OH225488   0.827   1.441  13.320  0.8406 -0.1764 -0.1024
 1358TIP3    H125489   0.848   1.405  13.406 -2.9700 -1.8224  0.3228
 1358TIP3    H225490   0.774   1.519  13.339  0.1019 -0.4623 -0.9177
 1359TIP3   OH225491   6.584   0.593  12.669 -0.5057 -0.4364 -0.1875
 1359TIP3    H125492   6.638   0.636  12.735 -0.3806 -1.6341  0.5186
 1359TIP3    H225493   6.494   0.620  12.689 -0.4647 -0.7806  0.4780
 1360TIP3   OH225494   3.847   1.806  13.380 -0.3023  0.1773 -0.1880
 1360TIP3    H125495   3.868   1.899  13.367 -2.9135  0.6473 -1.7650
 1360TIP3    H225496   3.862   1.792  13.474  3.5154  1.1630 -0.4864
 1361TIP3   OH225497   3.565   2.148   4.754  0.3347 -0.3300 -0.2084
 1361TIP3    H125498   3.547   2.100   4.835  0.5400  0.3649  0.2514
 1361TIP3    H225499   3.644   2.106   4.719 -0.9813 -2.1179 -1.2410
 1362TIP3   OH225500   1.435   0.999  16.480  0.1158  0.1104 -0.8244
 1362TIP3    H125501   1.517   0.949  16.477 -0.8008 -1.9283  2.7831
 1362TIP3    H225502   1.378   0.956  16.417  0.4340 -1.3631 -0.1510
 1363TIP3   OH225503   0.583   1.740   5.301  0.2241 -0.4130  0.2856
 1363TIP3    H125504   0.617   1.779   5.220 -0.3066  0.5743  0.5277
 1363TIP3    H225505   0.607   1.647   5.294  1.6068 -0.0469 -0.2563
 1364TIP3   OH225506   3.481   6.771   3.406  0.4773 -0.5528  0.1936
 1364TIP3    H125507   3.450   6.832   3.473  2.7378 -0.4780  1.2908
 1364TIP3    H225508   3.473   6.685   3.446 -0.9890 -0.8341 -0.6468
 1365TIP3   OH225509   2.353   3.548  14.356  0.0671 -0.1567 -0.8708
 1365TIP3    H125510   2.270   3.553  14.309 -0.3126  2.0488 -0.0959
 1365TIP3    H225511   2.402   3.625  14.327 -0.0937  1.1697  2.0064
 1366TIP3   OH225512   2.563   0.060  11.167 -0.1846 -0.1399 -0.8275
 1366TIP3    H125513   2.508   0.008  11.226 -0.2613 -0.3966 -1.1217
 1366TIP3    H225514   2.598  -0.004  11.105 -1.4194  0.3266 -2.0704
 1367TIP3   OH225515   4.531   4.679   4.840 -0.5242 -0.0154  0.3856
 1367TIP3    H125516   4.596   4.729   4.792 -1.2951  0.6109 -0.0279
 1367TIP3    H225517   4.525   4.722   4.925  0.4238 -0.7752  0.8522
 1368TIP3   OH225518   4.202   3.953   3.768 -0.4718 -0.4267  0.5588
 1368TIP3    H125519   4.267   3.893   3.733  0.3857 -0.2187  1.7243
 1368TIP3    H225520   4.140   3.898   3.815 -1.4411 -0.6726 -0.9322
 1369TIP3   OH225521   1.863   0.188  15.289  0.5520 -0.3563  0.0626
 1369TIP3    H125522   1.935   0.165  15.230  0.5656  0.9099 -0.4497
 1369TIP3    H225523   1.851   0.111  15.344  2.0833 -0.7097 -0.0622
 1370TIP3   OH225524   0.413   6.178  11.268 -0.3637 -0.3250  0.2378
 1370TIP3    H125525   0.505   6.165  11.290 -0.1050 -0.8671 -1.1127
 1370TIP3    H225526   0.392   6.107  11.207 -1.0355  1.0997 -1.2593
 1371TIP3   OH225527   3.253   2.895   1.468 -0.1593 -0.3382  0.7360
 1371TIP3    H125528   3.188   2.841   1.514 -0.1655 -1.1287 -0.1714
 1371TIP3    H225529   3.239   2.875   1.375 -1.5631  2.7406  0.1232
 1372TIP3   OH225530   3.413   6.435  15.174  0.1453  0.1379  0.4182
 1372TIP3    H125531   3.467   6.511  15.153 -0.0474  0.1319 -0.0988
 1372TIP3    H225532   3.418   6.379  15.097  0.1941 -0.3269  0.7529
 1373TIP3   OH225533   6.761   0.585  15.788  0.1835  0.6253  0.3095
 1373TIP3    H125534   6.719   0.606  15.871 -2.3969 -0.3912 -0.6373
 1373TIP3    H225535   6.738   0.494  15.772  2.3816  0.1647 -0.5742
 1374TIP3   OH225536   1.556   5.040  12.304 -1.0177 -0.5885 -0.2953
 1374TIP3    H125537   1.585   4.954  12.333 -2.8059 -1.2718 -0.4072
 1374TIP3    H225538   1.609   5.102  12.354  1.3327 -1.7018 -1.2628
 1375TIP3   OH225539   3.983   2.292   0.961  1.0712 -0.5750  0.1175
 1375TIP3    H125540   3.965   2.337   0.879 -0.0033 -0.7300  0.2634
 1375TIP3    H225541   3.916   2.322   1.021  3.1146  1.2208  1.6413
 1376TIP3   OH225542   3.691   2.804  14.963  0.3723 -0.1876  1.0097
 1376TIP3    H125543   3.680   2.791  15.058  2.0789 -0.5283  1.1956
 1376TIP3    H225544   3.782   2.779  14.946  0.6392  1.5504 -0.4270
 1377TIP3   OH225545   3.873   6.584   4.344 -0.9541 -0.1732  0.5554
 1377TIP3    H125546   3.937   6.552   4.281 -0.6993  2.6428 -0.7612
 1377TIP3    H225547   3.916   6.659   4.386 -3.2019  1.6088 -0.1454
 1378TIP3   OH225548   4.266   4.358  15.712  0.2944  0.7358 -0.0777
 1378TIP3    H125549   4.338   4.414  15.681  1.4927 -1.9093 -2.5192
 1378TIP3    H225550   4.310   4.280  15.746 -1.3371 -1.1179 -1.9579
 1379TIP3   OH225551   0.315   6.333   0.310  0.5376 -0.1797  0.5127
 1379TIP3    H125552   0.393   6.320   0.365 -0.8583 -0.7710  2.4653
 1379TIP3    H225553   0.258   6.389   0.362 -0.2549  0.4653 -1.0020
 1380TIP3   OH225554   2.429   0.524   4.546  0.0627  0.2895  0.5974
 1380TIP3    H125555   2.417   0.605   4.497  0.1451  0.2559  0.5212
 1380TIP3    H225556   2.487   0.471   4.491 -0.1856  0.0819  0.5280
 1381TIP3   OH225557   1.323   1.597  11.167 -0.6862 -0.0370 -0.6078
 1381TIP3    H125558   1.343   1.682  11.206 -0.3191 -0.4819  0.2032
 1381TIP3    H225559   1.398   1.577  11.111  0.0868 -0.6474  0.6223
 1382TIP3   OH225560   0.807   1.734   4.232  0.2940 -0.8860  0.1000
 1382TIP3    H125561   0.850   1.704   4.152  0.9520 -2.0759  0.8560
 1382TIP3    H225562   0.786   1.653   4.279 -1.7485 -0.2856  0.3045
 1383TIP3   OH225563   2.033   1.076  14.518  0.0607  0.2095  0.1033
 1383TIP3    H125564   2.014   1.009  14.583  3.6763 -0.9152  0.2068
 1383TIP3    H225565   2.048   1.028  14.437  2.1128  0.8580  0.0385
 1384TIP3   OH225566   5.251   1.815   3.206  0.3788 -0.1898 -0.0333
 1384TIP3    H125567   5.300   1.849   3.132  0.9177 -1.3837 -0.2475
 1384TIP3    H225568   5.162   1.801   3.173  0.0950  1.1273  0.1103
 1385TIP3   OH225569   4.717   0.406   1.374 -0.5648  0.4563 -0.4281
 1385TIP3    H125570   4.732   0.312   1.364  1.5571  0.5345  1.1207
 1385TIP3    H225571   4.762   0.446   1.299 -1.0858  0.2712 -0.8441
 1386TIP3   OH225572   6.015   6.371   2.189 -0.6023  0.3512 -0.0717
 1386TIP3    H125573   6.009   6.464   2.213 -0.6166  0.4688 -0.5221
 1386TIP3    H225574   6.062   6.331   2.262 -0.4530  0.7403  0.0520
 1387TIP3   OH225575   0.754   4.308  14.639 -0.0957 -0.5184  0.5584
 1387TIP3    H125576   0.839   4.263  14.632 -0.2266 -0.6380 -0.3520
 1387TIP3    H225577   0.765   4.368  14.713  1.1789  0.2806 -0.2292
 1388TIP3   OH225578   0.563   4.193   1.206 -0.0184 -0.2832  0.3008
 1388TIP3    H125579   0.603   4.201   1.292 -0.3699  0.1480  0.4283
 1388TIP3    H225580   0.594   4.269   1.157  1.5792 -1.4282 -0.5461
 1389TIP3   OH225581   3.957   3.093  14.393 -0.1766  0.4213  0.1768
 1389TIP3    H125582   3.892   3.111  14.326 -0.0119  1.8124  0.3554
 1389TIP3    H225583   4.033   3.146  14.368  0.1648  0.3516  1.0259
 1390TIP3   OH225584   6.226   4.194  11.906  0.1851  0.1253  0.2439
 1390TIP3    H125585   6.149   4.165  11.955  0.0332 -0.2434 -0.1977
 1390TIP3    H225586   6.224   4.289  11.910  0.1347  0.0969  0.8851
 1391TIP3   OH225587   2.204   3.965  11.697  0.0442 -0.3797  0.3971
 1391TIP3    H125588   2.113   3.989  11.713  0.6691  5.0157 -1.9267
 1391TIP3    H225589   2.242   3.959  11.784 -2.0643 -0.5161  1.3762
 1392TIP3   OH225590   1.880   5.045  16.600 -0.6951 -0.4217 -0.4324
 1392TIP3    H125591   1.903   4.980  16.534 -3.4003 -0.0223 -1.9109
 1392TIP3    H225592   1.956   5.048  16.658 -0.0403 -4.1542 -0.8420
 1393TIP3   OH225593   5.298   3.822   0.920 -0.6865  0.2347  0.3404
 1393TIP3    H125594   5.340   3.745   0.958 -0.7532  0.5811  1.1204
 1393TIP3    H225595   5.205   3.808   0.933 -0.7265  0.2406  0.0736
 1394TIP3   OH225596   2.491   3.070   4.218  0.3605 -0.0319 -0.7467
 1394TIP3    H125597   2.426   3.086   4.287  0.7344  0.0231 -0.4068
 1394TIP3    H225598   2.455   3.116   4.141  0.6584  1.1565 -0.1956
 1395TIP3   OH225599   5.262   5.552   2.835  0.1697  0.0290  0.4418
 1395TIP3    H125600   5.190   5.571   2.895 -0.4277 -0.1664 -0.2003
 1395TIP3    H225601   5.300   5.637   2.814 -0.1283  0.1713  0.4764
 1396TIP3   OH225602   0.846   6.408   4.494  0.6846  0.0350 -0.6572
 1396TIP3    H125603   0.791   6.473   4.451 -1.4367 -1.2570 -0.0343
 1396TIP3    H225604   0.852   6.438   4.585 -0.7500 -0.8433 -0.2364
 1397TIP3   OH225605   4.107   2.844  13.252 -0.5758  0.4137 -0.3063
 1397TIP3    H125606   4.056   2.769  13.220  1.9707 -2.9445  2.6905
 1397TIP3    H225607   4.041   2.905  13.285 -2.7807 -0.5819 -2.5619
 1398TIP3   OH225608   6.786   0.718  13.614 -0.2985 -0.1825 -0.0686
 1398TIP3    H125609   6.778   0.660  13.539 -1.7330 -1.2148  0.8312
 1398TIP3    H225610   6.870   0.763  13.601  0.5483 -1.9696 -1.1213
 1399TIP3   OH225611   4.311   0.820   1.014  0.3511  0.4415 -0.4189
 1399TIP3    H125612   4.270   0.897   1.053  0.8946  0.8642 -0.6807
 1399TIP3    H225613   4.400   0.847   0.994  0.5321 -0.2382 -0.5638
 1400TIP3   OH225614   3.674   1.675  16.985  0.1698  0.0999 -0.0255
 1400TIP3    H125615   3.765   1.701  16.974 -0.4124  2.0325 -0.6371
 1400TIP3    H225616   3.657   1.615  16.913  0.9164 -0.1642  0.0088
 1401TIP3   OH225617   4.099   2.424  14.172 -0.1031 -0.0047  0.2133
 1401TIP3    H125618   4.162   2.464  14.231 -0.3093  0.2965  0.2311
 1401TIP3    H225619   4.111   2.469  14.089 -1.1477  0.9516  0.5436
 1402TIP3   OH225620   4.657   0.626  16.492  0.4956  0.3505  0.5137
 1402TIP3    H125621   4.588   0.673  16.445  1.2867  0.9755 -0.0570
 1402TIP3    H225622   4.637   0.639  16.584 -2.2492 -2.5757  0.4874
 1403TIP3   OH225623   6.650   6.428  16.651  0.9331 -0.3869  0.3676
 1403TIP3    H125624   6.733   6.466  16.681 -0.1259  0.1033  2.9945
 1403TIP3    H225625   6.618   6.378  16.726 -0.9664 -0.8864 -0.7029
 1404TIP3   OH225626   4.661   3.727   0.960  0.2538  0.3168  0.8083
 1404TIP3    H125627   4.726   3.663   0.931 -0.4304 -0.3382  0.6855
 1404TIP3    H225628   4.577   3.691   0.932 -0.0902  1.6970 -0.0621
 1405TIP3   OH225629   0.122   6.063  13.895  0.0444 -0.0914  0.1405
 1405TIP3    H125630   0.168   6.002  13.838  1.4330  0.9418  0.1246
 1405TIP3    H225631   0.123   6.146  13.848  0.3362  0.5388  1.2270
 1406TIP3   OH225632   0.754   0.613   3.146 -0.1523  0.1987  0.1238
 1406TIP3    H125633   0.689   0.683   3.140 -2.2728 -1.7362 -1.0637
 1406TIP3    H225634   0.783   0.601   3.055 -0.6194 -1.1294  0.1396
 1407TIP3   OH225635   0.137   0.511  11.504  0.6206  0.2093  0.1725
 1407TIP3    H125636   0.128   0.535  11.411 -0.0866 -0.6324  0.0119
 1407TIP3    H225637   0.049   0.486  11.531  0.9563 -0.2129  0.8945
 1408TIP3   OH225638   6.637   3.896  16.929 -0.1609  0.2397 -0.0998
 1408TIP3    H125639   6.616   3.810  16.967 -0.1850  0.3225  0.0729
 1408TIP3    H225640   6.679   3.944  17.000  3.3950 -0.9525 -1.2151
 1409TIP3   OH225641   2.557   2.336   5.314  0.4295 -0.6641  0.3099
 1409TIP3    H125642   2.620   2.348   5.243 -0.0713  0.8995  0.0757
 1409TIP3    H225643   2.536   2.426   5.342 -0.6245 -1.1998  1.3178
 1410TIP3   OH225644   4.378   1.255  15.498  0.1405 -0.2449 -0.2525
 1410TIP3    H125645   4.385   1.160  15.491  3.1883 -0.1840  0.7599
 1410TIP3    H225646   4.408   1.275  15.586  4.1085  1.8894 -1.8570
 1411TIP3   OH225647   0.103   5.776   1.563  0.4076 -0.5825 -0.8047
 1411TIP3    H125648   0.179   5.719   1.577  0.1755 -0.8656 -0.6788
 1411TIP3    H225649   0.046   5.758   1.638  0.7951  0.5795 -0.2048
 1412TIP3   OH225650   0.592   6.382  13.428  0.5211  0.5107 -0.1094
 1412TIP3    H125651   0.497   6.375  13.438  0.6735 -0.2895  1.0166
 1412TIP3    H225652   0.614   6.469  13.462  0.1685  0.8211 -0.6647
 1413TIP3   OH225653   0.583   4.755  14.883 -0.4719  0.2437 -0.5244
 1413TIP3    H125654   0.545   4.726  14.966 -1.5057  0.2401 -0.9972
 1413TIP3    H225655   0.541   4.839  14.865 -0.2756  0.2264 -1.0677
 1414TIP3   OH225656   4.135   3.764   1.582  0.5653 -0.3244 -0.1499
 1414TIP3    H125657   4.146   3.854   1.613 -4.2467  0.6732 -0.4914
 1414TIP3    H225658   4.137   3.712   1.662  2.4882  0.1136  0.1451
 1415TIP3   OH225659   2.750   4.919   0.389 -0.6345 -0.3867 -0.1256
 1415TIP3    H125660   2.812   4.931   0.460 -0.5078 -0.2683 -0.2561
 1415TIP3    H225661   2.779   4.980   0.321 -0.5516 -0.7493 -0.4177
 1416TIP3   OH225662   1.019   4.102   6.766  0.3245  0.6124  0.1555
 1416TIP3    H125663   1.091   4.159   6.737 -0.6654  0.5558 -2.7331
 1416TIP3    H225664   1.004   4.043   6.692 -1.3796 -0.7338  1.4827
 1417TIP3   OH225665   0.676   2.881  12.141 -0.5945  0.2695  0.2390
 1417TIP3    H125666   0.706   2.850  12.056  0.5118 -1.5684  1.2403
 1417TIP3    H225667   0.654   2.973  12.126 -1.1093 -0.1800 -2.1673
 1418TIP3   OH225668   4.621   0.420   3.302 -0.1710 -0.5914 -0.2817
 1418TIP3    H125669   4.714   0.417   3.282  0.6038  0.4397  2.6798
 1418TIP3    H225670   4.607   0.346   3.361 -1.8524 -2.2537 -2.5957
 1419TIP3   OH225671   3.025   5.931   5.320  0.6587  0.0345  0.1660
 1419TIP3    H125672   3.064   5.911   5.235  3.3919  0.5094  1.2082
 1419TIP3    H225673   2.933   5.948   5.301  0.8719 -1.3269 -2.4617
 1420TIP3   OH225674   1.771   4.815   6.106  0.0822  0.3540 -0.2079
 1420TIP3    H125675   1.724   4.888   6.144 -0.7257 -0.7286  0.9284
 1420TIP3    H225676   1.745   4.739   6.158  1.2293 -0.6790 -1.0755
 1421TIP3   OH225677   0.316   2.745  16.683  0.5528 -0.5223 -0.2796
 1421TIP3    H125678   0.408   2.759  16.705  0.1156 -0.4234  1.7432
 1421TIP3    H225679   0.273   2.826  16.709  0.1963  0.4957 -3.6761
 1422TIP3   OH225680   3.580   1.317   1.451  0.5305 -0.5688 -0.1592
 1422TIP3    H125681   3.556   1.226   1.467  0.1772 -0.2817  1.0093
 1422TIP3    H225682   3.659   1.331   1.503 -0.6325  0.3849  1.4464
 1423TIP3   OH225683   1.011   5.573   6.245  0.4528  0.2714 -0.6235
 1423TIP3    H125684   0.935   5.580   6.187  0.8036 -1.0651 -1.2843
 1423TIP3    H225685   1.053   5.659   6.239 -1.0069  1.0345 -0.2231
 1424TIP3   OH225686   5.510   4.799  14.600  0.1697  0.2049 -0.5029
 1424TIP3    H125687   5.504   4.877  14.545  2.2056 -1.1053 -2.7719
 1424TIP3    H225688   5.439   4.743  14.570 -0.5882  0.6865  0.3450
 1425TIP3   OH225689   1.175   6.014   4.644 -0.0847 -0.4095  0.2660
 1425TIP3    H125690   1.090   6.052   4.668  0.3437  0.8779 -0.1620
 1425TIP3    H225691   1.182   6.028   4.550  0.8705  0.0834  0.3988
 1426TIP3   OH225692   1.859   5.693   0.433 -0.7572  0.0876 -0.0208
 1426TIP3    H125693   1.783   5.668   0.485 -1.7566 -0.5509 -1.6939
 1426TIP3    H225694   1.912   5.614   0.429 -0.0755  0.4824  1.0007
 1427TIP3   OH225695   6.557   5.008  13.097 -0.2529  0.1391  0.3356
 1427TIP3    H125696   6.537   4.920  13.129  0.1657  0.0251  0.2900
 1427TIP3    H225697   6.476   5.037  13.054 -0.1703 -0.5159 -0.2913
 1428TIP3   OH225698   2.156   2.422   0.206 -0.5570 -0.9351  0.1789
 1428TIP3    H125699   2.082   2.378   0.246 -0.0435 -1.7343  0.2699
 1428TIP3    H225700   2.124   2.447   0.119 -1.3005 -0.2164  0.6480
 1429TIP3   OH225701   0.690   1.361   0.432  0.5028 -0.4379  0.1792
 1429TIP3    H125702   0.636   1.399   0.501 -3.9048 -2.4672 -1.7884
 1429TIP3    H225703   0.704   1.433   0.370  1.0515  0.3879  1.2335
 1430TIP3   OH225704   2.363   0.405   0.307  0.4218  0.2172  0.5103
 1430TIP3    H125705   2.387   0.315   0.283 -0.4244 -0.1433  0.9820
 1430TIP3    H225706   2.339   0.446   0.224  0.7885  0.0025  0.2948
 1431TIP3   OH225707   6.297   6.517  11.511 -0.2681 -0.1979  0.3273
 1431TIP3    H125708   6.310   6.425  11.486 -0.3304 -0.0352 -0.3228
 1431TIP3    H225709   6.213   6.541  11.471  1.0739  0.9678 -2.0218
 1432TIP3   OH225710   5.579   3.856  12.619 -0.0197  0.3913  0.3323
 1432TIP3    H125711   5.575   3.834  12.712 -1.3489  3.7240  1.1795
 1432TIP3    H225712   5.488   3.863  12.592  0.3228 -1.4369 -1.5591
 1433TIP3   OH225713   0.228   4.422  14.421 -0.1574  0.0012  0.5058
 1433TIP3    H125714   0.240   4.381  14.335 -1.5397  2.2735 -0.8682
 1433TIP3    H225715   0.279   4.503  14.415 -1.8677  1.1499  1.0629
 1434TIP3   OH225716   6.119   1.453   5.062 -0.3132 -0.2052  0.3371
 1434TIP3    H125717   6.138   1.486   4.974  0.9090  0.7238  0.9211
 1434TIP3    H225718   6.025   1.465   5.073 -0.4806 -0.3524 -0.8414
 1435TIP3   OH225719   2.592   2.132  16.407  0.1439 -0.9814 -0.7016
 1435TIP3    H125720   2.533   2.125  16.482  2.1504  0.8177  1.1948
 1435TIP3    H225721   2.657   2.063  16.420  0.8212 -0.3094 -0.4228
 1436TIP3   OH225722   5.871   2.029   2.052  0.4804 -0.7745 -0.0360
 1436TIP3    H125723   5.895   2.109   2.099 -0.4559 -1.2425  1.3178
 1436TIP3    H225724   5.821   2.060   1.976  2.5310  0.0323 -1.1412
 1437TIP3   OH225725   6.784   0.319   3.087  0.2126  0.0219  0.8054
 1437TIP3    H125726   6.706   0.367   3.114  0.9710 -0.2024  3.7164
 1437TIP3    H225727   6.857   0.364   3.129  0.9668 -3.4553  3.7074
 1438TIP3   OH225728   1.812   0.620  16.897 -0.8300 -0.0788 -0.7520
 1438TIP3    H125729   1.762   0.573  16.965  1.2661  0.3891  1.2169
 1438TIP3    H225730   1.765   0.703  16.887  0.1935  0.9473  2.0816
 1439TIP3   OH225731   2.603   6.582  12.988  0.1595  0.4017  0.5054
 1439TIP3    H125732   2.658   6.655  12.962  1.6162 -0.9564 -0.4278
 1439TIP3    H225733   2.616   6.574  13.083 -1.3661  2.3524  0.9442
 1440TIP3   OH225734   0.273   4.884   2.976 -0.1436 -0.6780 -0.3619
 1440TIP3    H125735   0.256   4.960   3.031 -0.1885  0.4314 -1.8584
 1440TIP3    H225736   0.346   4.839   3.019  0.3524  0.5956  0.1842
 1441TIP3   OH225737   3.160   5.424  16.601  0.7183 -0.3521 -0.2343
 1441TIP3    H125738   3.212   5.406  16.523  0.8614 -2.4320  0.2932
 1441TIP3    H225739   3.215   5.482  16.653  2.1384 -1.7068 -0.1435
 1442TIP3   OH225740   1.329   0.579  17.065 -0.4629  0.3991  0.0493
 1442TIP3    H125741   1.380   0.635  17.123  0.2402 -0.8345  0.6657
 1442TIP3    H225742   1.389   0.507  17.043 -1.5489 -0.4473 -0.1990
 1443TIP3   OH225743   4.318   2.526  16.904 -0.1179 -0.6588 -0.2788
 1443TIP3    H125744   4.400   2.483  16.876  1.6395  2.8428 -1.1123
 1443TIP3    H225745   4.342   2.575  16.982 -2.0587 -1.2347  0.7314
 1444TIP3   OH225746   6.368   3.342  15.899 -0.5293 -0.1567 -0.0743
 1444TIP3    H125747   6.410   3.278  15.957  0.8488  1.0557  0.3403
 1444TIP3    H225748   6.435   3.410  15.886 -1.3814  0.4180 -1.7792
 1445TIP3   OH225749   0.605   4.743   1.873  1.1873  0.3686 -0.1154
 1445TIP3    H125750   0.531   4.799   1.849 -0.4970 -1.0898  1.3510
 1445TIP3    H225751   0.626   4.695   1.793 -0.6809 -0.4995 -0.1242
 1446TIP3   OH225752   1.361   2.807   3.568  0.2588 -0.0754  0.0706
 1446TIP3    H125753   1.416   2.744   3.615  2.4668  1.2821 -0.5362
 1446TIP3    H225754   1.410   2.889   3.573 -1.2662  0.9721 -1.4004
 1447TIP3   OH225755   1.702   6.761   1.039 -0.7783 -0.0808 -0.6395
 1447TIP3    H125756   1.713   6.772   0.944 -1.0798  1.0941 -0.5564
 1447TIP3    H225757   1.665   6.674   1.048  0.5079 -0.7500 -1.4990
 1448TIP3   OH225758   0.869   4.044   2.167 -0.7618 -0.2626 -0.2162
 1448TIP3    H125759   0.950   4.088   2.138  0.2883 -1.7888  0.2827
 1448TIP3    H225760   0.880   4.037   2.262 -0.3900 -2.5188 -0.3844
 1449TIP3   OH225761   3.487   5.703   1.070 -0.1178 -0.2549 -0.5733
 1449TIP3    H125762   3.400   5.725   1.104 -0.6677 -1.3111 -1.2257
 1449TIP3    H225763   3.476   5.702   0.975  0.6653 -0.1827 -0.6660
 1450TIP3   OH225764   1.338   0.557   0.396  0.0177 -0.6361  0.9358
 1450TIP3    H125765   1.413   0.588   0.346 -0.7546 -0.4208 -0.1251
 1450TIP3    H225766   1.352   0.463   0.405 -1.4407 -1.3586 -2.6946
 1451TIP3   OH225767   5.684   6.115  13.122  0.3978 -0.0217  0.0337
 1451TIP3    H125768   5.705   6.196  13.077  1.1858 -0.5301 -0.5374
 1451TIP3    H225769   5.596   6.092  13.090  1.5985 -1.2926 -2.7118
 1452TIP3   OH225770   1.123   0.137  13.439 -0.1862 -0.5256  0.3759
 1452TIP3    H125771   1.163   0.155  13.525  0.2771 -1.1066  0.2917
 1452TIP3    H225772   1.187   0.168  13.376 -0.9870  0.8768  0.2210
 1453TIP3   OH225773   1.854   1.902  12.948  0.1538  0.3511  0.4708
 1453TIP3    H125774   1.785   1.891  12.882  1.3153 -3.9434 -0.2721
 1453TIP3    H225775   1.835   1.836  13.014  1.8554  1.2287  1.9178
 1454TIP3   OH225776   0.857   0.109   4.187  0.5246 -0.6131 -0.2123
 1454TIP3    H125777   0.875   0.045   4.118  1.9822 -1.3054  0.7514
 1454TIP3    H225778   0.826   0.057   4.261 -1.0517  0.1236 -0.3044
 1455TIP3   OH225779   3.496   3.017   1.220  0.0526 -0.0384 -0.5829
 1455TIP3    H125780   3.478   2.925   1.238 -0.0399 -0.1755 -1.3325
 1455TIP3    H225781   3.515   3.055   1.306 -0.5814 -0.6022 -0.1820
 1456TIP3   OH225782   3.031   5.766  12.223 -0.0847 -0.6115  0.6092
 1456TIP3    H125783   2.949   5.748  12.177  0.6448 -2.8561  0.0569
 1456TIP3    H225784   3.098   5.761  12.155  0.5424  1.2544  1.0420
 1457TIP3   OH225785   3.795   4.733   3.666  0.2961 -0.0260 -0.3506
 1457TIP3    H125786   3.814   4.653   3.617 -2.4173 -0.8085 -0.2973
 1457TIP3    H225787   3.820   4.804   3.607 -0.5117 -0.9404 -1.8456
 1458TIP3   OH225788   5.835   5.927   6.114 -0.2085 -0.7660 -0.6437
 1458TIP3    H125789   5.921   5.951   6.079  0.5592 -0.6891  1.1910
 1458TIP3    H225790   5.815   5.994   6.179 -0.4585 -2.1495  0.7800
 1459TIP3   OH225791   6.677   0.448   6.027 -0.1411  0.3094  0.1906
 1459TIP3    H125792   6.737   0.520   6.008 -1.5321  1.5644  0.4142
 1459TIP3    H225793   6.721   0.399   6.097  1.2058  0.4081 -0.5348
 1460TIP3   OH225794   0.711   2.480  11.412 -0.3568 -0.3089 -0.1000
 1460TIP3    H125795   0.782   2.545  11.413  0.0796 -0.7287 -1.5429
 1460TIP3    H225796   0.730   2.423  11.487 -0.1989  0.6333  0.6013
 1461TIP3   OH225797   1.882   3.982  11.929  0.3154  0.3965  0.3252
 1461TIP3    H125798   1.859   3.951  11.842 -0.4527 -0.0628  0.6725
 1461TIP3    H225799   1.930   4.064  11.915 -0.1705  0.5451 -0.5095
 1462TIP3   OH225800   3.769   2.545   5.958 -0.1997  0.5402 -0.3360
 1462TIP3    H125801   3.807   2.622   6.001 -0.9496  0.9363 -0.3797
 1462TIP3    H225802   3.834   2.476   5.972  0.3129  1.0857  0.0165
 1463TIP3   OH225803   2.133   6.000  12.811 -0.0872  0.0897  0.4770
 1463TIP3    H125804   2.162   6.089  12.830 -1.5020  0.6476  0.0965
 1463TIP3    H225805   2.174   5.980  12.726  2.4069 -0.6680  1.7592
 1464TIP3   OH225806   0.780   6.248   3.977 -0.3766  0.2485 -0.0366
 1464TIP3    H125807   0.850   6.232   3.913  0.7556  0.1098  1.1837
 1464TIP3    H225808   0.789   6.341   3.999 -0.3567  0.1504  0.3722
 1465TIP3   OH225809   2.185   2.120   3.675  0.0917  0.1598  0.1201
 1465TIP3    H125810   2.215   2.201   3.633  0.0932  0.7368  1.2184
 1465TIP3    H225811   2.228   2.120   3.760 -0.8492 -0.4075  0.5998
 1466TIP3   OH225812   5.351   1.093   2.689  0.0558  0.1028 -0.4460
 1466TIP3    H125813   5.443   1.118   2.683  0.7593 -1.8797  0.8140
 1466TIP3    H225814   5.349   1.003   2.658 -1.1500 -0.4079  0.9706
 1467TIP3   OH225815   5.181   2.154  15.393  0.6406 -0.0040 -0.0140
 1467TIP3    H125816   5.190   2.133  15.486 -0.3648 -0.2193  0.0515
 1467TIP3    H225817   5.109   2.218  15.390  1.2222  0.6452 -0.5678
 1468TIP3   OH225818   4.958   5.827   3.192  0.1399 -0.6286  0.0788
 1468TIP3    H125819   4.956   5.906   3.247  0.9537 -2.7853  3.5600
 1468TIP3    H225820   4.895   5.768   3.233  0.7916 -2.4000 -1.3505
 1469TIP3   OH225821   1.002   0.727  10.718  0.1814  0.0319  0.0954
 1469TIP3    H125822   1.088   0.752  10.751  0.6381  0.1854 -1.1421
 1469TIP3    H225823   1.010   0.734  10.623 -1.5202  1.1012 -0.0112
 1470TIP3   OH225824   6.499   1.027  13.055  0.0663  0.7957  0.1292
 1470TIP3    H125825   6.566   1.016  12.987  0.1589 -1.4365  0.5146
 1470TIP3    H225826   6.539   1.087  13.118 -0.7519  4.6255 -2.5913
 1471TIP3   OH225827   0.578   3.884  16.765  0.4411 -0.4155 -0.0200
 1471TIP3    H125828   0.534   3.824  16.825  1.3634 -0.1122  0.9882
 1471TIP3    H225829   0.561   3.971  16.800  1.9974 -0.3057  0.5238
 1472TIP3   OH225830   6.258   0.781  12.083 -0.9138 -0.1361  0.1019
 1472TIP3    H125831   6.284   0.810  12.171 -1.2557 -1.2222  0.5821
 1472TIP3    H225832   6.229   0.690  12.096  0.5835 -0.8716 -1.4204
 1473TIP3   OH225833   4.037   4.647   1.938 -0.2963  0.4388  0.3581
 1473TIP3    H125834   4.037   4.592   2.016 -1.0149  1.9147  1.4588
 1473TIP3    H225835   4.065   4.733   1.969 -1.8894  1.4120 -0.7253
 1474TIP3   OH225836   2.000   5.195  12.646 -0.0547 -0.0906 -0.0016
 1474TIP3    H125837   1.973   5.176  12.557 -0.3096 -0.6799  0.1956
 1474TIP3    H225838   1.995   5.111  12.692  0.2654  0.1636  0.5169
 1475TIP3   OH225839   5.414   5.018  11.057 -0.1126 -0.1221  0.5854
 1475TIP3    H125840   5.371   4.981  10.980  1.5774  0.3824 -0.6418
 1475TIP3    H225841   5.344   5.064  11.103 -0.5275  3.0285 -2.7547
 1476TIP3   OH225842   1.281   5.576  15.843 -0.5526 -0.6357 -0.3987
 1476TIP3    H125843   1.215   5.581  15.912 -0.2538 -0.6466 -0.1103
 1476TIP3    H225844   1.314   5.486  15.848 -0.4064 -0.5852 -0.4402
 1477TIP3   OH225845   3.350   0.912  10.759 -0.2205  0.5017  0.1794
 1477TIP3    H125846   3.391   0.846  10.704 -1.4761 -1.7633  1.8032
 1477TIP3    H225847   3.262   0.922  10.723 -0.0564  1.2809 -0.0197
 1478TIP3   OH225848   3.180   4.493  16.862 -0.4792  0.3669  0.0427
 1478TIP3    H125849   3.122   4.494  16.939 -0.6885 -0.6408 -0.0942
 1478TIP3    H225850   3.185   4.401  16.837  1.1612  0.4336  0.0243
 1479TIP3   OH225851   6.534   2.770  15.836 -0.3343  0.3006  0.3575
 1479TIP3    H125852   6.451   2.795  15.877 -0.9135 -1.9693  0.6586
 1479TIP3    H225853   6.517   2.684  15.797  1.9022 -0.2546  0.4887
 1480TIP3   OH225854   2.513   3.964  11.371 -0.2113  0.1560 -0.0896
 1480TIP3    H125855   2.537   4.006  11.288  1.4604  3.3329  1.7889
 1480TIP3    H225856   2.585   3.902  11.388  0.6071  1.1038 -0.0158
 1481TIP3   OH225857   4.886   6.089  11.956 -0.1177  0.0274  0.5450
 1481TIP3    H125858   4.907   6.020  11.893  1.5998  0.4575  0.6088
 1481TIP3    H225859   4.799   6.065  11.988 -0.8113 -0.5226 -1.5410
 1482TIP3   OH225860   4.609   1.831  16.563 -0.5082 -0.0360 -0.7173
 1482TIP3    H125861   4.542   1.869  16.506  0.9473  0.0963 -2.4329
 1482TIP3    H225862   4.670   1.903  16.580 -0.2394 -0.4130 -0.0218
 1483TIP3   OH225863   6.107   5.477   4.181 -0.4428  0.0921  0.4288
 1483TIP3    H125864   6.090   5.383   4.172  0.4743 -0.1548  1.0774
 1483TIP3    H225865   6.179   5.482   4.245 -0.3192  1.2206  0.2210
 1484TIP3   OH225866   5.024   2.358  16.995 -0.4552 -0.6417  0.0332
 1484TIP3    H125867   5.051   2.448  16.978  1.4233 -1.1510  0.1586
 1484TIP3    H225868   5.021   2.317  16.908 -2.7172 -0.1589 -0.2007
 1485TIP3   OH225869   0.783   1.270  14.832  0.2025 -0.0179 -0.3810
 1485TIP3    H125870   0.875   1.296  14.828  0.1815 -0.0014 -0.8266
 1485TIP3    H225871   0.786   1.174  14.828  0.2344 -0.0487  0.3312
 1486TIP3   OH225872   3.424   0.411  14.794  0.4538 -0.3906  0.3526
 1486TIP3    H125873   3.445   0.501  14.771  0.5755 -0.4248  0.3271
 1486TIP3    H225874   3.369   0.418  14.872  0.6409 -0.3010  0.4769
 1487TIP3   OH225875   3.903   6.415   5.377 -0.2839  0.5244 -0.6751
 1487TIP3    H125876   3.940   6.337   5.334  2.0062  0.7122  0.7780
 1487TIP3    H225877   3.906   6.395   5.470  1.8778  2.8721 -0.1264
 1488TIP3   OH225878   5.342   3.150   0.869 -0.4286 -0.3890 -0.2593
 1488TIP3    H125879   5.258   3.192   0.852  0.1445  0.6960 -0.4572
 1488TIP3    H225880   5.360   3.098   0.790  0.3831  1.5687 -1.4271
 1489TIP3   OH225881   6.729   6.787  15.593  0.5302 -0.1706 -0.4016
 1489TIP3    H125882   6.815   6.824  15.575 -0.2762  2.0827  0.1575
 1489TIP3    H225883   6.700   6.751  15.508  1.4317  0.2788 -0.9108
 1490TIP3   OH225884   1.539   3.646   1.729  0.4532  0.1125  0.6276
 1490TIP3    H125885   1.562   3.735   1.704 -1.8581  0.9578  1.2474
 1490TIP3    H225886   1.623   3.600   1.735  1.6598  2.0582 -0.2964
 1491TIP3   OH225887   1.652   4.218  13.826 -0.6362 -0.4099 -0.3919
 1491TIP3    H125888   1.595   4.233  13.751 -1.2907 -1.0464 -0.0322
 1491TIP3    H225889   1.725   4.279  13.813 -1.9440  1.2701 -0.2601
 1492TIP3   OH225890   0.593   0.046  14.962 -0.0019  0.4357  0.2419
 1492TIP3    H125891   0.649   0.058  14.885 -0.6833 -0.5666 -0.4444
 1492TIP3    H225892   0.634   0.099  15.030  0.4277  1.6358 -0.9011
 1493TIP3   OH225893   2.780   3.809   2.026 -0.0974  0.1034  0.2776
 1493TIP3    H125894   2.851   3.807   2.091  1.0175 -1.0862 -0.9052
 1493TIP3    H225895   2.741   3.722   2.032  1.1215 -0.6489 -1.7416
 1494TIP3   OH225896   5.529   2.412   6.448 -0.5964 -0.3535  0.0739
 1494TIP3    H125897   5.514   2.380   6.537  0.4109 -1.0559  0.0137
 1494TIP3    H225898   5.622   2.438   6.448 -0.8032  0.4228 -0.5409
 1495TIP3   OH225899   6.150   3.465   2.409  0.1103 -0.1992  0.3785
 1495TIP3    H125900   6.103   3.382   2.410  0.4456 -0.3828  1.7017
 1495TIP3    H225901   6.142   3.500   2.497  1.5833  0.2577  0.3706
 1496TIP3   OH225902   6.096   6.469  11.290 -0.4295  0.1620  0.4035
 1496TIP3    H125903   6.120   6.378  11.308  0.9940  0.5376  0.5353
 1496TIP3    H225904   6.052   6.467  11.205  0.5802 -0.5146 -0.1189
 1497TIP3   OH225905   3.152   4.744  14.316 -0.5186  0.1868 -0.1495
 1497TIP3    H125906   3.197   4.753  14.400 -0.8168  0.7141 -0.0403
 1497TIP3    H225907   3.200   4.675  14.270  0.4241  0.7598 -0.0582
 1498TIP3   OH225908   1.466   3.228   1.725 -0.4637 -0.1883 -0.4089
 1498TIP3    H125909   1.430   3.255   1.809 -1.3823 -2.2736 -0.0604
 1498TIP3    H225910   1.402   3.165   1.691  1.3972 -1.7622 -1.1725
 1499TIP3   OH225911   1.393   2.827  13.574  0.3039  0.4116 -0.8113
 1499TIP3    H125912   1.339   2.750  13.591 -0.9235  1.3370 -0.4238
 1499TIP3    H225913   1.419   2.819  13.482  0.4880 -0.6345 -0.6737
 1500TIP3   OH225914   1.576   2.526   5.492  0.5274 -0.2275 -0.7731
 1500TIP3    H125915   1.638   2.535   5.420  1.5111  3.5089  0.2766
 1500TIP3    H225916   1.518   2.601   5.482 -0.7487 -0.9059  1.0314
 1501TIP3   OH225917   3.966   5.224   3.966  0.0783 -0.2527 -0.3870
 1501TIP3    H125918   4.020   5.273   4.028 -0.1259  0.9293 -1.1161
 1501TIP3    H225919   3.972   5.133   3.996  1.2027  0.0754  0.4621
 1502TIP3   OH225920   4.412   6.482  14.780  0.4907 -0.3854  0.1738
 1502TIP3    H125921   4.420   6.427  14.702  2.2398  0.0257  0.0189
 1502TIP3    H225922   4.373   6.563  14.747 -0.2871 -0.8055  0.0408
 1503TIP3   OH225923   3.038   6.343  12.323 -0.5236  0.4644  0.6233
 1503TIP3    H125924   2.958   6.394  12.332  0.3877  2.2812 -0.6961
 1503TIP3    H225925   3.009   6.256  12.296 -2.0655  0.8217  1.0339
 1504TIP3   OH225926   2.296   4.177   6.208 -0.3248  0.4103 -0.1989
 1504TIP3    H125927   2.232   4.199   6.277 -1.2323 -0.0633 -0.8746
 1504TIP3    H225928   2.338   4.261   6.187 -0.3164  0.6277  0.6478
 1505TIP3   OH225929   3.870   0.815  12.903  0.3328 -0.3558  0.5278
 1505TIP3    H125930   3.927   0.879  12.859 -1.7193  1.5597  0.5466
 1505TIP3    H225931   3.887   0.827  12.996 -1.5368  1.7118  0.6581
 1506TIP3   OH225932   6.455   4.162  11.300 -0.3964 -0.0566 -0.4325
 1506TIP3    H125933   6.362   4.147  11.285 -1.1687 -0.8423  3.8242
 1506TIP3    H225934   6.458   4.241  11.355  1.5515  0.4230 -1.1268
 1507TIP3   OH225935   2.228   2.331   4.357  0.1874 -0.4160  0.1214
 1507TIP3    H125936   2.318   2.313   4.330  0.6083  1.0687  0.4583
 1507TIP3    H225937   2.230   2.420   4.392 -1.5785 -0.0125 -0.6696
 1508TIP3   OH225938   0.013   0.694   0.727 -0.1889  0.8410  0.1812
 1508TIP3    H125939  -0.054   0.638   0.687  1.4724 -1.6742  0.6397
 1508TIP3    H225940   0.018   0.664   0.818 -0.3355  2.9219  0.9195
 1509TIP3   OH225941   6.442   2.296   0.430 -0.4682  0.6689  0.1146
 1509TIP3    H125942   6.437   2.231   0.360 -0.8300  0.7129  0.0975
 1509TIP3    H225943   6.391   2.371   0.398 -1.0783  0.4913  0.6289
 1510TIP3   OH225944   5.593   1.996  14.206  0.3726 -0.0243  0.1258
 1510TIP3    H125945   5.610   1.903  14.225  0.2432  0.3414  2.2885
 1510TIP3    H225946   5.545   1.995  14.123 -2.1520 -2.1339  1.4547
 1511TIP3   OH225947   2.396   1.183  15.619  0.2474 -0.5949  0.5690
 1511TIP3    H125948   2.335   1.232  15.675  0.5258 -1.1646  1.3737
 1511TIP3    H225949   2.385   1.224  15.533  0.8303  1.2357  1.3063
 1512TIP3   OH225950   0.738   3.143   3.206 -0.7618  0.0459 -0.2433
 1512TIP3    H125951   0.646   3.156   3.181 -1.0634 -1.0156  0.2577
 1512TIP3    H225952   0.736   3.069   3.267  0.5651 -0.7732 -1.1438
 1513TIP3   OH225953   0.152   3.876   4.190 -0.3070 -0.1186  0.4136
 1513TIP3    H125954   0.083   3.886   4.125  0.7972 -0.3949 -0.8481
 1513TIP3    H225955   0.228   3.846   4.140  1.2928  1.9608  1.4234
 1514TIP3   OH225956   0.149   4.323  11.525 -0.4086  0.0827 -0.2080
 1514TIP3    H125957   0.077   4.259  11.532  0.0014 -0.3451  0.1770
 1514TIP3    H225958   0.200   4.294  11.450  1.0614 -1.4065  1.2593
 1515TIP3   OH225959   3.393   3.337   0.464  0.2054  0.4397 -0.1564
 1515TIP3    H125960   3.431   3.250   0.468 -1.1772 -0.1709  0.3566
 1515TIP3    H225961   3.449   3.385   0.402  0.7980 -0.8932 -0.6872
 1516TIP3   OH225962   6.501   1.199  16.681  0.1227  0.2311  0.3780
 1516TIP3    H125963   6.551   1.136  16.732  1.3170  1.3611  0.6546
 1516TIP3    H225964   6.410   1.185  16.708  0.7443  1.0831  3.2372
 1517TIP3   OH225965   2.021   2.877   5.343  0.1049  0.6529  0.2821
 1517TIP3    H125966   1.998   2.872   5.435 -2.4706  1.4451 -0.2219
 1517TIP3    H225967   1.987   2.962   5.314 -1.8235 -0.7428 -1.9715
 1518TIP3   OH225968   6.427   1.046  17.221  0.3654 -0.9015 -0.7955
 1518TIP3    H125969   6.508   1.078  17.182 -0.8322  0.5318 -2.2064
 1518TIP3    H225970   6.397   1.117  17.277  0.6992 -1.9270  0.7571
 1519TIP3   OH225971   3.404   2.727  15.322  0.1313 -0.0121 -0.3444
 1519TIP3    H125972   3.386   2.804  15.269  0.3341 -0.6269 -1.3315
 1519TIP3    H225973   3.349   2.658  15.284 -1.5065  0.0745  1.7073
 1520TIP3   OH225974   2.888   3.643   6.095 -0.2031 -0.1635  0.3269
 1520TIP3    H125975   2.968   3.697   6.095  0.1045 -0.6066  0.2067
 1520TIP3    H225976   2.907   3.575   6.030 -1.1605  0.4294 -0.6031
 1521TIP3   OH225977   2.079   0.625   2.866  0.0956 -0.5264 -0.1331
 1521TIP3    H125978   2.059   0.705   2.816 -3.2647 -1.5608 -0.7290
 1521TIP3    H225979   2.135   0.655   2.937 -2.7175  2.8752  0.9491
 1522TIP3   OH225980   6.193   0.261  16.187  0.2312 -0.0503 -0.1794
 1522TIP3    H125981   6.197   0.206  16.265  1.8794  0.7536  0.3586
 1522TIP3    H225982   6.189   0.350  16.221 -0.4681  0.2497 -1.0256
 1523TIP3   OH225983   3.093   6.197   6.296 -0.0158 -0.0595  0.1667
 1523TIP3    H125984   3.173   6.196   6.349  0.6900  1.2695 -0.8277
 1523TIP3    H225985   3.119   6.164   6.211 -1.0320 -1.6771  0.4362
 1524TIP3   OH225986   1.027   3.967   6.503 -0.0848  0.1604  0.3543
 1524TIP3    H125987   1.068   4.050   6.481 -1.0838  0.3531 -0.9210
 1524TIP3    H225988   0.975   3.945   6.425 -0.3127 -1.3510  0.9010
 1525TIP3   OH225989   5.499   2.243   5.507  0.1854 -0.1621 -0.2237
 1525TIP3    H125990   5.563   2.278   5.569  0.6592  0.0022 -0.8013
 1525TIP3    H225991   5.418   2.292   5.525  0.5641  0.5124 -0.3286
 1526TIP3   OH225992   5.575   6.062  12.594  0.1017 -0.0830 -0.4672
 1526TIP3    H125993   5.485   6.055  12.563 -0.4042 -1.0976  1.0882
 1526TIP3    H225994   5.628   6.070  12.515 -1.4522  2.1578 -1.3971
 1527TIP3   OH225995   5.111   1.960   4.212 -0.1968 -0.6028  0.0232
 1527TIP3    H125996   5.066   1.884   4.176  1.1393 -1.3940 -0.0701
 1527TIP3    H225997   5.057   1.988   4.286 -1.9409 -0.1678 -1.3649
 1528TIP3   OH225998   6.353   3.471  13.806  0.7587 -0.8586  0.6837
 1528TIP3    H125999   6.333   3.533  13.736  3.1108  0.7406  1.2934
 1528TIP3    H226000   6.434   3.429  13.778  0.7854 -1.4745  1.6443
 1529TIP3   OH226001   3.246   5.000  14.051  0.3111 -0.1288 -0.3012
 1529TIP3    H126002   3.286   4.927  14.098 -0.1998 -1.0696 -1.2932
 1529TIP3    H226003   3.302   5.075  14.071  0.7644 -0.7534  0.8504
 1530TIP3   OH226004   1.180   0.634   0.903 -0.3389  0.2535  0.5110
 1530TIP3    H126005   1.174   0.698   0.832  0.3362  1.3273  1.3786
 1530TIP3    H226006   1.253   0.666   0.957 -0.4691 -0.8531  1.3682
 1531TIP3   OH226007   3.877   5.635  12.263 -0.5694  0.3474  0.5544
 1531TIP3    H126008   3.930   5.628  12.342 -0.1263  2.1905  0.4769
 1531TIP3    H226009   3.800   5.686  12.290 -1.4934 -0.8683  0.2820
 1532TIP3   OH226010   0.665   3.932  11.369 -0.9529 -0.1813  0.2576
 1532TIP3    H126011   0.643   3.949  11.277 -2.8270  0.9293  0.8555
 1532TIP3    H226012   0.621   3.850  11.389 -1.2435 -0.0080  0.3530
 1533TIP3   OH226013   3.036   5.424  13.528  0.4455  0.2319 -0.0638
 1533TIP3    H126014   3.041   5.520  13.525  0.0873  0.2442 -0.3610
 1533TIP3    H226015   3.042   5.397  13.436  0.3351 -0.0170  0.0003
 1534TIP3   OH226016   5.207   6.764   0.954  0.0689  0.2014  0.8687
 1534TIP3    H126017   5.209   6.848   1.000 -0.9024 -0.2342  1.7356
 1534TIP3    H226018   5.294   6.756   0.915  0.3952  1.2952  1.3392
 1535TIP3   OH226019   2.314   2.564  12.400  0.0334  0.7828 -0.7767
 1535TIP3    H126020   2.289   2.554  12.492  0.5404  0.0298 -0.7037
 1535TIP3    H226021   2.290   2.481  12.359  0.7405  0.7238 -1.0918
 1536TIP3   OH226022   3.443   4.905  14.270 -0.7817  0.1563  0.6211
 1536TIP3    H126023   3.535   4.906  14.240 -1.7645  3.3902 -3.1905
 1536TIP3    H226024   3.446   4.946  14.356  1.3607 -0.6630  1.0290
 1537TIP3   OH226025   1.865   1.600  14.666 -0.0234 -0.0664  0.4494
 1537TIP3    H126026   1.873   1.574  14.757 -0.0058 -0.0105  0.4638
 1537TIP3    H226027   1.887   1.520  14.616 -1.7959 -0.6236  0.5024
 1538TIP3   OH226028   1.942   0.866   2.742  0.5278  0.3055  0.4593
 1538TIP3    H126029   1.868   0.925   2.756  0.5666  0.5921 -0.5089
 1538TIP3    H226030   1.953   0.862   2.647  0.6364 -1.1258  0.5119
 1539TIP3   OH226031   5.959   4.651   4.146 -0.1211 -0.0260 -0.4322
 1539TIP3    H126032   6.052   4.671   4.143 -0.3619  1.0825 -1.5520
 1539TIP3    H226033   5.920   4.709   4.080 -1.5133 -0.9211 -0.4403
 1540TIP3   OH226034   5.059   6.178  16.984 -0.4301  0.2758 -0.2571
 1540TIP3    H126035   5.103   6.217  17.059 -1.4065  0.5734  0.1741
 1540TIP3    H226036   5.008   6.106  17.021  1.3735 -1.5065 -1.0304
 1541TIP3   OH226037   5.770   6.699  15.429  0.1886 -0.0123  0.1523
 1541TIP3    H126038   5.805   6.712  15.341 -0.0791  1.3164  0.2303
 1541TIP3    H226039   5.793   6.779  15.477 -0.2475 -0.4345  1.1073
 1542TIP3   OH226040   1.820   3.358   1.831  0.5988  0.4014  0.4227
 1542TIP3    H126041   1.745   3.395   1.877  0.6658  1.9406 -0.6377
 1542TIP3    H226042   1.832   3.272   1.871 -0.0756  1.1694  2.4453
 1543TIP3   OH226043   4.233   5.153  14.045  0.4008  1.1013 -0.5644
 1543TIP3    H126044   4.137   5.157  14.047  0.3633  0.7500 -1.2873
 1543TIP3    H226045   4.261   5.227  14.098 -0.2694  0.8711  0.1463
 1544TIP3   OH226046   0.524   6.774  14.073 -0.3845 -0.2505 -0.5119
 1544TIP3    H126047   0.470   6.700  14.101 -0.8350  0.0223 -0.6620
 1544TIP3    H226048   0.521   6.770  13.977  0.4818 -0.6881 -0.5335
 1545TIP3   OH226049   2.368   2.119  15.672  0.6091  0.5432  0.6089
 1545TIP3    H126050   2.374   2.150  15.763  1.2189  0.2616  0.6670
 1545TIP3    H226051   2.420   2.038  15.671 -3.6973 -2.6238  1.3597
 1546TIP3   OH226052   5.876   3.045  16.080 -0.0320 -0.0842  0.5832
 1546TIP3    H126053   5.927   3.029  16.000 -1.0446  3.0122 -0.8062
 1546TIP3    H226054   5.823   2.965  16.090  0.2127 -0.6185 -1.7701
 1547TIP3   OH226055   4.852   1.206  11.832 -0.1588 -0.4076 -0.6726
 1547TIP3    H126056   4.817   1.183  11.919  1.6507  0.1611  0.2550
 1547TIP3    H226057   4.816   1.292  11.813  0.3450 -0.0297  0.0552
 1548TIP3   OH226058   1.628   6.529  11.927  0.0027  0.0029 -0.2822
 1548TIP3    H126059   1.593   6.493  11.846  0.5972 -0.6523 -0.2548
 1548TIP3    H226060   1.622   6.624  11.916  0.3720 -0.0762 -1.2293
 1549TIP3   OH226061   1.162   4.527  16.656 -0.4184  0.4176  0.0933
 1549TIP3    H126062   1.070   4.528  16.682 -1.0068 -0.0335 -1.8239
 1549TIP3    H226063   1.183   4.434  16.645 -0.1751  0.5893 -0.9477
 1550TIP3   OH226064   0.603   0.925  13.435 -0.4248  0.2869  0.0080
 1550TIP3    H126065   0.529   0.928  13.375 -0.4542  0.6004  0.0576
 1550TIP3    H226066   0.636   1.015  13.437  1.0607 -0.1655 -1.3855
 1551TIP3   OH226067   6.551   1.541  16.390  0.2789 -0.1225 -0.5156
 1551TIP3    H126068   6.639   1.573  16.370 -0.3005  0.9262 -1.4769
 1551TIP3    H226069   6.555   1.517  16.482  1.5343  0.0390 -0.5055
 1552TIP3   OH226070   6.558   6.597  17.201  0.3764  0.0462 -0.7000
 1552TIP3    H126071   6.646   6.618  17.169  0.4958  1.3531  0.3643
 1552TIP3    H226072   6.501   6.603  17.125  1.2587 -1.3395 -1.5130
 1553TIP3   OH226073   5.860   1.355   0.547 -0.2679  0.0238 -0.2871
 1553TIP3    H126074   5.870   1.437   0.595  1.4984 -0.0641 -0.4528
 1553TIP3    H226075   5.766   1.337   0.551 -0.4923  1.2823  1.0023
 1554TIP3   OH226076   6.444   2.681   3.848 -1.0367 -0.3773 -0.2465
 1554TIP3    H126077   6.497   2.748   3.891  0.2266 -0.5779 -1.3890
 1554TIP3    H226078   6.399   2.635   3.919 -0.2592  0.3103  0.7114
 1555TIP3   OH226079   1.158   3.601   3.117  0.1405 -0.0209 -0.7316
 1555TIP3    H126080   1.224   3.532   3.108  0.5192  0.2269  0.0198
 1555TIP3    H226081   1.187   3.651   3.194 -0.8099  0.2235 -0.5246
 1556TIP3   OH226082   3.613   0.382  16.575 -0.4835 -0.3946  0.0318
 1556TIP3    H126083   3.625   0.477  16.568 -0.5642 -0.3815  0.0744
 1556TIP3    H226084   3.594   0.354  16.485 -0.0834 -0.4236 -0.0465
 1557TIP3   OH226085   4.472   3.911   5.527  0.3365  0.1816 -0.2852
 1557TIP3    H126086   4.459   3.880   5.437 -1.2126  1.5849 -0.5797
 1557TIP3    H226087   4.404   3.866   5.577  0.1341  0.6741 -0.1200
 1558TIP3   OH226088   6.054   3.595  16.107 -0.1034  0.6242 -0.3304
 1558TIP3    H126089   6.059   3.590  16.012  0.8195 -0.3602 -0.2519
 1558TIP3    H226090   5.995   3.524  16.132 -1.6118  1.8565 -0.2343
 1559TIP3   OH226091   3.643   3.384   4.932 -0.5075  0.3223  0.0337
 1559TIP3    H126092   3.713   3.327   4.966  0.7408  0.7262 -1.7292
 1559TIP3    H226093   3.565   3.327   4.931  0.0936 -0.5565  0.7394
 1560TIP3   OH226094   3.214   1.234   4.109  0.2321  0.9947 -0.3387
 1560TIP3    H126095   3.261   1.162   4.151  0.2715  0.7239 -0.8490
 1560TIP3    H226096   3.271   1.309   4.119  0.0186  1.0556  0.5516
 1561TIP3   OH226097   1.143   6.583  11.970  0.6712  0.7576  0.5112
 1561TIP3    H126098   1.214   6.534  11.928 -0.8959 -0.7844 -0.4186
 1561TIP3    H226099   1.113   6.645  11.903  0.5158  0.7651  0.5876
 1562TIP3   OH226100   3.342   6.041  15.281  0.8314 -0.0745 -0.0386
 1562TIP3    H126101   3.248   6.026  15.292  0.6633  0.6281 -0.4466
 1562TIP3    H226102   3.383   5.959  15.308  0.1594 -0.0700  1.0840
 1563TIP3   OH226103   2.384   1.168  14.618  0.1258  0.7634  0.4267
 1563TIP3    H126104   2.312   1.227  14.596  0.9346  2.2951  1.6321
 1563TIP3    H226105   2.438   1.165  14.539  0.5430  2.4107  0.6150
 1564TIP3   OH226106   1.988   2.187   2.982 -0.4920  0.2583 -0.1044
 1564TIP3    H126107   2.071   2.215   2.942 -0.4922  0.3759 -0.0229
 1564TIP3    H226108   1.930   2.173   2.908 -0.9122  1.7815 -0.1048
 1565TIP3   OH226109   4.840   6.608   0.135  0.1939  0.1160  0.3531
 1565TIP3    H126110   4.787   6.678   0.097  0.7745  0.3524 -0.0442
 1565TIP3    H226111   4.799   6.528   0.103 -0.1703  0.2857  0.3883
 1566TIP3   OH226112   2.631   6.255   3.707 -0.3023  0.0860 -0.2332
 1566TIP3    H126113   2.708   6.206   3.676 -0.5378 -0.1957 -0.3805
 1566TIP3    H226114   2.639   6.341   3.665 -0.5807 -0.2669 -1.0370
 1567TIP3   OH226115   4.860   2.138  11.277 -0.0245 -0.3581 -0.1498
 1567TIP3    H126116   4.870   2.109  11.186  0.5551  0.7014 -0.4417
 1567TIP3    H226117   4.869   2.058  11.329 -1.8437 -1.2201 -1.0756
 1568TIP3   OH226118   3.169   1.250   3.756  0.3765  0.7238 -0.5427
 1568TIP3    H126119   3.230   1.317   3.788  1.5632 -0.7772  0.4707
 1568TIP3    H226120   3.224   1.175   3.734 -0.9794 -0.2155 -0.8977
 1569TIP3   OH226121   6.569   5.015   2.841  0.6484  0.2172 -0.4030
 1569TIP3    H126122   6.550   4.976   2.755 -0.5459 -2.0626  0.8009
 1569TIP3    H226123   6.657   5.053   2.831  0.4143  0.3084 -2.6947
 1570TIP3   OH226124   5.105   6.597  14.657  0.4915 -1.1660  0.4053
 1570TIP3    H126125   5.070   6.624  14.742  1.9535 -0.5402  0.8425
 1570TIP3    H226126   5.089   6.672  14.599  1.6877 -0.5756  0.7951
 1571TIP3   OH226127   0.868   5.607  12.902  0.1167 -0.1533  0.0915
 1571TIP3    H126128   0.856   5.571  12.990 -0.0733  0.6909  0.4160
 1571TIP3    H226129   0.952   5.653  12.906 -0.1089  0.2724 -0.0378
 1572TIP3   OH226130   1.250   0.961  13.839 -0.2860  0.1085 -0.1508
 1572TIP3    H126131   1.211   1.016  13.771 -1.3598  0.0814  0.4165
 1572TIP3    H226132   1.315   1.017  13.880  2.3810 -0.7176 -2.9120
 1573TIP3   OH226133   3.192   6.311  10.806  0.1146 -0.3225 -0.0229
 1573TIP3    H126134   3.259   6.377  10.790  0.5777 -1.1415 -1.7164
 1573TIP3    H226135   3.110   6.355  10.785 -0.1774  1.1578  3.4553
 1574TIP3   OH226136   3.228   5.411  15.096 -0.0032 -0.0966 -0.2193
 1574TIP3    H126137   3.311   5.458  15.096  0.7727 -1.4087 -0.3582
 1574TIP3    H226138   3.211   5.392  15.004  0.9140 -2.0701 -0.0462
 1575TIP3   OH226139   6.291   5.541   4.792 -0.2239 -0.3429  0.2541
 1575TIP3    H126140   6.202   5.567   4.766 -0.3655 -1.4993 -0.5182
 1575TIP3    H226141   6.284   5.523   4.885 -0.3464  1.3363  0.6075
 1576TIP3   OH226142   6.509   3.770   3.184 -0.0511  0.2671  0.2628
 1576TIP3    H126143   6.421   3.795   3.210 -1.4157 -3.0439 -0.5974
 1576TIP3    H226144   6.497   3.715   3.107  2.7712 -0.3311  0.1307
 1577TIP3   OH226145   1.944   1.414   2.010  0.6316  0.5871  0.3946
 1577TIP3    H126146   1.976   1.336   1.964  1.0603 -0.2237  1.9920
 1577TIP3    H226147   1.849   1.403   2.013  0.2099  2.1334 -2.8138
 1578TIP3   OH226148   3.503   4.689   3.323  0.5488 -0.4826 -0.2785
 1578TIP3    H126149   3.454   4.709   3.243 -0.1671  1.1336  0.5048
 1578TIP3    H226150   3.456   4.736   3.392  1.3526 -1.5504  1.0463
 1579TIP3   OH226151   0.749   1.847   3.435  0.2899  0.2876 -0.3612
 1579TIP3    H126152   0.838   1.820   3.456 -0.5931 -1.8231  0.9699
 1579TIP3    H226153   0.703   1.843   3.519 -1.8048 -1.8674 -1.5105
 1580TIP3   OH226154   1.267   6.439  15.784  0.2588 -0.7196  0.0018
 1580TIP3    H126155   1.190   6.384  15.796 -0.2455 -0.0266 -0.0168
 1580TIP3    H226156   1.277   6.485  15.867 -0.6510  0.8131 -0.7088
 1581TIP3   OH226157   6.399   3.564  15.530 -0.3840 -0.5073  0.5161
 1581TIP3    H126158   6.478   3.592  15.484 -0.5057 -1.1440 -0.1135
 1581TIP3    H226159   6.404   3.468  15.530 -0.6317 -0.5289  1.4130
 1582TIP3   OH226160   5.986   5.194  13.367 -0.2786 -0.2641 -0.3536
 1582TIP3    H126161   6.042   5.153  13.302  0.9077  2.2975 -1.0818
 1582TIP3    H226162   5.921   5.242  13.315 -0.1811  0.6666  0.3608
 1583TIP3   OH226163   0.420   2.931  15.670  0.7860  0.0135  0.0415
 1583TIP3    H126164   0.333   2.933  15.709 -0.1817 -0.1866 -1.9849
 1583TIP3    H226165   0.437   3.022  15.646 -0.0940 -0.2980 -1.9972
 1584TIP3   OH226166   6.735   1.190  13.727 -0.1224  0.0247  0.0513
 1584TIP3    H126167   6.678   1.118  13.755 -0.4096 -1.0465 -2.9571
 1584TIP3    H226168   6.679   1.243  13.671  0.6426  1.5812  0.7007
 1585TIP3   OH226169   1.408   3.125   4.978  0.0764  0.0836  0.1669
 1585TIP3    H126170   1.355   3.093   5.052  0.5066 -1.6688 -0.2276
 1585TIP3    H226171   1.345   3.141   4.908 -0.0550 -1.3009 -0.0680
 1586TIP3   OH226172   5.038   2.826   1.996 -0.0138 -0.4954 -0.0431
 1586TIP3    H126173   5.014   2.850   1.906 -1.4861 -1.2218  0.1304
 1586TIP3    H226174   5.122   2.871   2.010 -1.2836  2.3209 -0.6640
 1587TIP3   OH226175   4.675   1.668   4.963  0.5331 -0.3809  0.1675
 1587TIP3    H126176   4.741   1.681   4.895  0.3897  0.0056  0.0973
 1587TIP3    H226177   4.611   1.738   4.947  1.9094  1.5524  2.4507
 1588TIP3   OH226178   5.129   6.318  10.522 -0.6083 -0.1016 -0.6141
 1588TIP3    H126179   5.131   6.406  10.486  1.6972  1.4301  2.6947
 1588TIP3    H226180   5.066   6.323  10.594 -0.7060 -1.2666 -0.5997
 1589TIP3   OH226181   1.341   5.766   1.682  0.1779 -0.5932  0.2245
 1589TIP3    H126182   1.335   5.845   1.627 -2.2080 -1.8776 -1.5045
 1589TIP3    H226183   1.297   5.790   1.763 -1.3994 -0.4043 -0.6593
 1590TIP3   OH226184   4.776   1.672   0.706 -0.3919 -0.0990  0.6772
 1590TIP3    H126185   4.850   1.680   0.645  0.1621 -2.1665  0.9784
 1590TIP3    H226186   4.817   1.673   0.792 -1.0103  1.1927  0.9756
 1591TIP3   OH226187   4.005   6.018  13.790  0.0515 -0.3034 -0.2564
 1591TIP3    H126188   4.069   5.955  13.758  0.5460 -1.5863  2.9131
 1591TIP3    H226189   3.927   6.002  13.737  0.5017 -2.8763 -0.2786
 1592TIP3   OH226190   4.899   5.278  14.457  0.3530 -0.8488  0.1882
 1592TIP3    H126191   4.859   5.352  14.410 -0.7296 -1.7276 -0.3274
 1592TIP3    H226192   4.879   5.202  14.402  1.7786 -1.4830  0.5199
 1593TIP3   OH226193   4.254   2.520  14.862 -0.6363 -0.7766 -0.5362
 1593TIP3    H126194   4.189   2.470  14.813 -0.0367 -1.0516 -1.0574
 1593TIP3    H226195   4.338   2.478  14.843  0.1546  1.4014 -2.4012
 1594TIP3   OH226196   4.254   2.133   1.942 -0.5388 -0.4773 -0.3532
 1594TIP3    H126197   4.191   2.205   1.950  0.9928  0.8369  0.4166
 1594TIP3    H226198   4.200   2.056   1.925 -2.3292  0.6415 -0.0246
 1595TIP3   OH226199   6.483   3.892  13.062 -0.3678 -0.0872  0.4472
 1595TIP3    H126200   6.556   3.938  13.020  0.1891 -0.7654  0.6536
 1595TIP3    H226201   6.442   3.958  13.118 -0.2361  0.4365 -0.0565
 1596TIP3   OH226202   4.438   1.832  14.469  0.1354  0.2351  0.4357
 1596TIP3    H126203   4.418   1.749  14.427  0.3648  0.7792 -0.7776
 1596TIP3    H226204   4.534   1.837  14.470  0.1170  0.8450 -0.2434
 1597TIP3   OH226205   5.610   1.980  12.294  0.0149 -0.0904  0.0675
 1597TIP3    H126206   5.609   2.010  12.203 -0.1303  2.2952  0.7886
 1597TIP3    H226207   5.683   2.027  12.334 -1.3204  0.6723  1.7059
 1598TIP3   OH226208   6.607   5.880  14.902  0.4695  0.3125 -0.1695
 1598TIP3    H126209   6.581   5.846  14.988  2.9999 -0.2531  0.4670
 1598TIP3    H226210   6.633   5.971  14.919 -1.6983  1.1462 -0.9506
 1599TIP3   OH226211   2.777   5.960   4.402  0.3786 -0.1439  0.3040
 1599TIP3    H126212   2.748   6.047   4.375  0.0907 -0.5747 -0.8288
 1599TIP3    H226213   2.823   5.926   4.325 -0.3704 -1.3706  0.3759
 1600TIP3   OH226214   3.613   3.490   2.868 -0.3423  0.3219 -0.1033
 1600TIP3    H126215   3.525   3.473   2.833 -0.4528  0.8927 -0.1057
 1600TIP3    H226216   3.655   3.404   2.867 -1.0738 -0.0588  0.3859
 1601TIP3   OH226217   1.058   6.544   3.786  0.4949  0.5212  0.0778
 1601TIP3    H126218   1.150   6.535   3.759 -0.0209 -2.2888 -1.0789
 1601TIP3    H226219   1.029   6.626   3.745  3.1369  3.1591  2.9001
 1602TIP3   OH226220   3.571   5.006   3.527  0.1344  0.2515 -0.1878
 1602TIP3    H126221   3.593   5.054   3.607 -1.1139  0.9854 -0.2515
 1602TIP3    H226222   3.654   4.969   3.497  0.7779  0.7216  0.9485
 1603TIP3   OH226223   6.682   2.692  12.256  0.2760 -0.0509 -0.2556
 1603TIP3    H126224   6.689   2.735  12.342 -0.7488 -0.2822 -0.0525
 1603TIP3    H226225   6.733   2.611  12.266  1.2136  0.5165 -0.2708
 1604TIP3   OH226226   4.842   5.072   4.330 -0.5002 -0.4818  0.5208
 1604TIP3    H126227   4.857   5.138   4.397 -0.0973  0.7408 -0.7252
 1604TIP3    H226228   4.930   5.049   4.299 -0.7409  0.4705 -0.9626
 1605TIP3   OH226229   5.868   1.899  13.029 -0.2645 -0.1972  0.2380
 1605TIP3    H126230   5.905   1.811  13.032  3.3304  1.0257 -2.4297
 1605TIP3    H226231   5.813   1.900  12.951 -3.0176 -0.7982  1.9884
 1606TIP3   OH226232   1.595   3.114  14.401  0.2840 -0.4298 -0.0736
 1606TIP3    H126233   1.673   3.165  14.380 -0.2265  0.4105  0.0356
 1606TIP3    H226234   1.629   3.035  14.442  1.0412  0.6245  1.4311
 1607TIP3   OH226235   0.363   2.040   0.630 -0.0877  0.4740 -0.1888
 1607TIP3    H126236   0.354   2.059   0.723  1.0529  1.6396 -0.2952
 1607TIP3    H226237   0.275   2.013   0.603  0.1605 -2.9331  1.8116
 1608TIP3   OH226238   1.926   1.739   3.929 -0.0176 -0.1306  0.0730
 1608TIP3    H126239   1.916   1.834   3.926 -1.4346 -0.2230  0.9917
 1608TIP3    H226240   1.963   1.716   3.843  2.3536  1.4201  0.5825
 1609TIP3   OH226241   2.818   4.315   5.005  0.1870 -0.7729  0.6353
 1609TIP3    H126242   2.726   4.300   4.983  0.8186 -1.7099 -1.6065
 1609TIP3    H226243   2.864   4.238   4.974  2.0372  0.6985 -0.5241
 1610TIP3   OH226244   1.861   0.187   1.130 -0.5540  0.6803  0.0470
 1610TIP3    H126245   1.890   0.178   1.221  1.2107  1.7767 -0.3441
 1610TIP3    H226246   1.798   0.116   1.117  2.7896 -2.7781  0.7231
 1611TIP3   OH226247   3.172   0.375  14.002 -0.0806 -0.3964 -0.4432
 1611TIP3    H126248   3.222   0.294  14.000  0.4204 -0.0720 -2.1104
 1611TIP3    H226249   3.218   0.431  14.065  0.7028 -0.6989 -0.7436
 1612TIP3   OH226250   1.813   5.830  12.379 -0.1809  0.0161 -0.1743
 1612TIP3    H126251   1.812   5.843  12.474  0.5069  0.0263 -0.1653
 1612TIP3    H226252   1.770   5.746  12.366  0.1858 -0.2304  0.1934
 1613TIP3   OH226253   2.384   4.178  11.856 -0.4780  0.1161  0.0003
 1613TIP3    H126254   2.475   4.151  11.847 -0.5616 -0.2246  0.1924
 1613TIP3    H226255   2.338   4.100  11.886 -0.6657  0.5409  0.8661
 1614TIP3   OH226256   4.495   3.258  11.724  0.0169  0.2853  0.0136
 1614TIP3    H126257   4.570   3.206  11.755  0.6380 -0.4037 -2.3810
 1614TIP3    H226258   4.452   3.201  11.660  0.4036  2.4566 -2.3495
 1615TIP3   OH226259   0.079   4.627  16.521 -0.5786 -0.5440  0.2547
 1615TIP3    H126260   0.067   4.541  16.480 -2.4467  0.4099 -1.3863
 1615TIP3    H226261   0.017   4.626  16.595 -0.6950 -0.5687  0.1580
 1616TIP3   OH226262   5.038   6.310  11.244  0.0388 -0.3267 -0.2124
 1616TIP3    H126263   5.133   6.311  11.227  0.0722  1.4495 -0.0492
 1616TIP3    H226264   5.031   6.318  11.339 -0.2819 -0.5643 -0.2144
 1617TIP3   OH226265   4.079   0.389   2.553 -0.2840 -0.6062 -0.5487
 1617TIP3    H126266   4.003   0.422   2.506 -0.4607 -1.4399 -0.8698
 1617TIP3    H226267   4.147   0.379   2.486 -0.4870 -1.6478 -0.6178
 1618TIP3   OH226268   4.051   4.470   5.981 -0.1296 -0.0856  0.3348
 1618TIP3    H126269   3.980   4.479   5.918  0.0699  0.0955  0.1340
 1618TIP3    H226270   4.052   4.377   6.003 -0.3440 -0.1100  0.2395
 1619TIP3   OH226271   0.056   0.887   0.345 -0.0847  0.1123 -0.0985
 1619TIP3    H126272   0.118   0.816   0.365  0.6810  0.4753 -1.0894
 1619TIP3    H226273   0.027   0.918   0.431 -0.3754 -1.3348  0.3637
 1620TIP3   OH226274   4.699   6.282  12.155  0.0671 -0.1297  0.3161
 1620TIP3    H126275   4.702   6.374  12.129 -2.8374  0.5858  2.1303
 1620TIP3    H226276   4.775   6.271  12.212  0.3754  1.1860  0.1843
 1621TIP3   OH226277   5.442   4.851   5.052  0.1787  0.1889  0.0677
 1621TIP3    H126278   5.395   4.792   4.992  0.8268  0.2505 -0.5124
 1621TIP3    H226279   5.463   4.927   4.998  1.1576  0.0593  0.2450
 1622TIP3   OH226280   0.061   0.980  17.199  0.2545  0.3055  0.0818
 1622TIP3    H126281   0.073   1.053  17.260 -0.1432 -0.8578  1.6346
 1622TIP3    H226282   0.000   1.013  17.133  0.7448  1.6364  0.2705
 1623TIP3   OH226283   5.269   5.486  16.784  0.1333  0.0668  0.0035
 1623TIP3    H126284   5.266   5.399  16.825  0.2742  0.6116  1.2238
 1623TIP3    H226285   5.353   5.523  16.811 -0.0868  0.7292 -0.1872
 1624TIP3   OH226286   6.429   0.421  11.791  0.0110 -0.1268  0.0846
 1624TIP3    H126287   6.381   0.448  11.869  0.3925  0.8902 -0.0082
 1624TIP3    H226288   6.363   0.386  11.731 -0.8170  2.1502 -0.4421
 1625TIP3   OH226289   4.447   1.545  13.421  0.5366 -0.3804  0.1635
 1625TIP3    H126290   4.375   1.502  13.467  0.2619  0.9480  1.0422
 1625TIP3    H226291   4.433   1.638  13.437  1.4963  0.0134 -1.0965
 1626TIP3   OH226292   2.377   0.367   3.320  0.1984 -0.0387 -0.0998
 1626TIP3    H126293   2.398   0.445   3.269 -1.0982 -0.2480 -0.9964
 1626TIP3    H226294   2.452   0.309   3.305  0.1113  0.1277 -1.3446
 1627TIP3   OH226295   2.924   1.706   0.934  0.2874 -0.5787 -0.1041
 1627TIP3    H126296   2.969   1.653   1.000  0.9949  0.5880  0.3784
 1627TIP3    H226297   2.980   1.782   0.922 -1.2329  0.6107  0.0222
 1628TIP3   OH226298   2.417   1.375   4.238 -0.5032  0.2708  0.1842
 1628TIP3    H126299   2.434   1.290   4.280  0.3190  0.5128  0.3611
 1628TIP3    H226300   2.328   1.368   4.205 -0.2769 -0.8385 -0.2178
 1629TIP3   OH226301   2.932   5.429   5.685  0.3955  0.3739  0.2661
 1629TIP3    H126302   2.912   5.515   5.649  1.2329  1.0401  1.3094
 1629TIP3    H226303   2.898   5.367   5.621 -2.7536  1.3971  0.7693
 1630TIP3   OH226304   4.452   5.060   0.441 -0.7268 -0.2725  0.0623
 1630TIP3    H126305   4.389   4.988   0.447  0.8171 -1.8308 -1.3205
 1630TIP3    H226306   4.454   5.097   0.529 -1.7088 -1.8004  0.7785
 1631TIP3   OH226307   0.771   1.210  16.106  0.1001  0.1562 -0.3893
 1631TIP3    H126308   0.689   1.259  16.099  0.0201  0.0665 -0.0721
 1631TIP3    H226309   0.792   1.186  16.015 -0.4376 -0.1772 -0.4272
 1632TIP3   OH226310   2.676   2.212  10.795  0.2337 -0.1442 -0.4152
 1632TIP3    H126311   2.762   2.246  10.767 -0.1645  1.5772  0.3081
 1632TIP3    H226312   2.632   2.191  10.713  0.1960  2.0020 -1.0311
 1633TIP3   OH226313   5.103   3.323   0.854  0.1771 -0.0314 -0.2068
 1633TIP3    H126314   5.076   3.327   0.762 -1.0537  1.0963  0.1647
 1633TIP3    H226315   5.021   3.306   0.901  0.7078 -0.0761  0.7096
 1634TIP3   OH226316   4.701   2.011   6.497 -0.3842  0.1370  0.0761
 1634TIP3    H126317   4.723   1.957   6.421 -0.4285 -0.3665  0.4103
 1634TIP3    H226318   4.634   1.960   6.544  0.7644 -0.3160  1.2903
 1635TIP3   OH226319   0.432   5.105   4.834  0.1674  0.5674 -0.0727
 1635TIP3    H126320   0.520   5.100   4.871 -0.6630 -0.9824  1.8340
 1635TIP3    H226321   0.426   5.031   4.775  0.5199  1.3979 -1.1905
 1636TIP3   OH226322   3.018   4.671   3.461 -0.1395  0.3887 -0.7226
 1636TIP3    H126323   3.104   4.634   3.483 -1.0098  0.0665  2.6792
 1636TIP3    H226324   2.969   4.598   3.424  0.2559 -0.1314 -0.2443
 1637TIP3   OH226325   0.957   3.128   1.548  0.3994 -0.1473  0.1856
 1637TIP3    H126326   0.863   3.140   1.531  0.0978 -1.0991  1.0748
 1637TIP3    H226327   0.968   3.034   1.554  1.4700 -0.0493 -0.1701
 1638TIP3   OH226328   6.348   1.274   4.851 -0.3876 -0.4989  0.5208
 1638TIP3    H126329   6.282   1.235   4.909 -0.8313 -0.0135  0.3525
 1638TIP3    H226330   6.356   1.212   4.778  0.8487 -1.5826  1.5162
 1639TIP3   OH226331   6.441   1.513  12.003  0.3439 -0.4760 -0.1644
 1639TIP3    H126332   6.457   1.585  12.065  0.5214 -0.3624 -0.3424
 1639TIP3    H226333   6.519   1.511  11.948  0.8127 -1.4949  0.5173
 1640TIP3   OH226334   0.717   2.783  16.524 -0.1661 -1.2746 -0.5784
 1640TIP3    H126335   0.682   2.711  16.577  0.9273 -0.9098  0.6865
 1640TIP3    H226336   0.775   2.830  16.583  1.0125 -0.7697 -2.0763
 1641TIP3   OH226337   3.173   1.997   5.003 -0.3182  0.1787  0.3024
 1641TIP3    H126338   3.186   2.085   4.969 -1.1463 -0.0654 -0.7062
 1641TIP3    H226339   3.117   1.954   4.938  1.9669 -1.8567 -0.4803
 1642TIP3   OH226340   3.525   2.729   1.993  0.1402  0.6376  0.0653
 1642TIP3    H126341   3.541   2.761   2.082  2.0839 -1.4982  0.5785
 1642TIP3    H226342   3.597   2.765   1.942 -0.5472  1.2367 -0.4866
 1643TIP3   OH226343   2.766   5.960   6.351  0.4332  0.1717  0.2192
 1643TIP3    H126344   2.843   5.935   6.403 -1.2165  0.4603  2.9856
 1643TIP3    H226345   2.765   6.056   6.353  0.0209  0.1718  0.1466
 1644TIP3   OH226346   4.542   5.180  12.088  0.0288 -0.2487 -0.1798
 1644TIP3    H126347   4.584   5.240  12.150  1.7201  1.4685 -2.7744
 1644TIP3    H226348   4.488   5.237  12.033 -2.3936 -1.8792  0.3647
 1645TIP3   OH226349   5.114   1.393  14.695 -0.4727  1.0230 -0.2431
 1645TIP3    H126350   5.071   1.391  14.781 -0.1325 -0.3657 -0.0755
 1645TIP3    H226351   5.164   1.475  14.695  0.4029  0.5255  1.3371
 1646TIP3   OH226352   1.243   6.563   0.203  0.0421 -0.1980  0.3393
 1646TIP3    H126353   1.300   6.575   0.279  1.6406  0.2203 -0.8713
 1646TIP3    H226354   1.212   6.651   0.182 -0.5773 -0.3435  0.6244
 1647TIP3   OH226355   4.427   3.707   0.639 -0.0719  0.6317 -0.4061
 1647TIP3    H126356   4.477   3.762   0.579  0.0660  0.5362 -0.3784
 1647TIP3    H226357   4.381   3.646   0.582 -2.3260  2.4285 -0.6669
 1648TIP3   OH226358   4.083   4.911   1.405  0.3544 -0.0098  0.6846
 1648TIP3    H126359   3.992   4.880   1.395  0.6583 -0.1521 -3.9679
 1648TIP3    H226360   4.135   4.845   1.359  2.4628  1.5766  0.6587
 1649TIP3   OH226361   5.169   6.106  12.664  0.6754 -0.7351  0.2015
 1649TIP3    H126362   5.097   6.168  12.673  1.1709 -0.0325 -0.5271
 1649TIP3    H226363   5.168   6.081  12.571  1.7605 -0.2079  0.0321
 1650TIP3   OH226364   4.427   1.742  11.544  0.3196 -0.6318  0.6949
 1650TIP3    H126365   4.497   1.789  11.589  0.1746  3.2605 -2.5795
 1650TIP3    H226366   4.457   1.737  11.453 -2.9521 -0.2012 -0.5252
 1651TIP3   OH226367   1.990   0.328   1.902  0.6861  0.1668 -0.0969
 1651TIP3    H126368   1.896   0.346   1.904 -0.0337 -2.9185 -0.1416
 1651TIP3    H226369   2.014   0.313   1.994  1.4208  1.9833  0.0374
 1652TIP3   OH226370   4.521   0.489   0.373  1.0308 -0.6149  0.0676
 1652TIP3    H126371   4.577   0.418   0.406  1.8166  0.7147  1.7751
 1652TIP3    H226372   4.552   0.505   0.284  0.3660 -2.8569 -0.6140
 1653TIP3   OH226373   6.081   3.934   3.748 -0.1226  0.1191  0.3827
 1653TIP3    H126374   6.046   3.853   3.713  1.3199 -0.0225 -0.8146
 1653TIP3    H226375   6.072   3.997   3.677  1.1031  0.3197  0.3763
 1654TIP3   OH226376   5.163   3.622  11.270 -0.0617  0.2004  0.0848
 1654TIP3    H126377   5.212   3.591  11.346 -0.4979 -1.0975 -0.1387
 1654TIP3    H226378   5.073   3.595  11.287 -0.5630  1.7378  0.0500
 1655TIP3   OH226379   4.651   4.947  15.148  0.0694 -0.6444  0.2426
 1655TIP3    H126380   4.603   4.864  15.155  0.9125 -1.3265 -1.6473
 1655TIP3    H226381   4.636   4.975  15.058 -1.5035  2.1175  1.2556
 1656TIP3   OH226382   6.542   4.170  12.184 -0.1316 -0.2612  0.5369
 1656TIP3    H126383   6.456   4.127  12.186 -0.0265 -0.4260  2.0689
 1656TIP3    H226384   6.558   4.197  12.274  1.5258 -0.4001  0.3093
 1657TIP3   OH226385   4.311   4.230   4.138  0.0375  0.3220  0.0263
 1657TIP3    H126386   4.303   4.210   4.231 -1.7525  0.9507  0.0508
 1657TIP3    H226387   4.387   4.179   4.108 -0.3763 -1.2010  1.4508
 1658TIP3   OH226388   3.260   1.188  14.047 -0.4353 -0.4555 -0.0434
 1658TIP3    H126389   3.179   1.220  14.088 -0.3793  2.5312 -1.9164
 1658TIP3    H226390   3.288   1.115  14.102 -3.3718 -0.3677  1.7753
 1659TIP3   OH226391   5.381   4.112   4.892  0.7588 -0.2175  0.0257
 1659TIP3    H126392   5.443   4.174   4.853 -0.0425 -0.7880 -2.3208
 1659TIP3    H226393   5.429   4.029   4.892  0.0979 -0.6448 -1.7271
 1660TIP3   OH226394   2.608   5.912   4.768 -0.2428  0.4522  0.0173
 1660TIP3    H126395   2.568   5.832   4.734  0.9326 -0.0556 -0.2234
 1660TIP3    H226396   2.692   5.918   4.722 -0.2852  1.8016  0.0695
 1661TIP3   OH226397   5.381   1.245   4.251 -0.1012 -1.0650 -0.4449
 1661TIP3    H126398   5.414   1.271   4.337  0.9250  0.9011 -1.3789
 1661TIP3    H226399   5.453   1.196   4.212  0.1573 -0.3523 -0.8809
 1662TIP3   OH226400   4.489   2.988  16.343 -0.3327 -0.3287  0.0658
 1662TIP3    H126401   4.535   3.041  16.278  0.8798 -0.3161  0.9052
 1662TIP3    H226402   4.490   2.899  16.308  1.6421 -0.6015  0.7106
 1663TIP3   OH226403   0.522   5.716   0.864 -0.2640 -0.4780  0.1953
 1663TIP3    H126404   0.577   5.757   0.797 -1.2537 -0.0508 -0.3877
 1663TIP3    H226405   0.433   5.739   0.838 -0.8661 -2.9046 -0.1008
 1664TIP3   OH226406   2.800   1.695   4.268  0.2748 -0.2444  0.4738
 1664TIP3    H126407   2.887   1.710   4.231  0.3901  1.0946  1.2094
 1664TIP3    H226408   2.817   1.656   4.354  0.2499  1.3490  1.2413
 1665TIP3   OH226409   6.095   1.559  14.454  0.4743  0.6551 -0.4240
 1665TIP3    H126410   6.123   1.565  14.545  0.8168  1.4654 -0.5780
 1665TIP3    H226411   6.043   1.639  14.440  1.8166  1.3824 -1.4096
 1666TIP3   OH226412   1.652   3.738  11.750 -0.1573  0.2497  0.5737
 1666TIP3    H126413   1.734   3.690  11.762 -0.0965 -0.3143 -1.5291
 1666TIP3    H226414   1.602   3.684  11.688 -1.3460  1.4604  0.4305
 1667TIP3   OH226415   3.567   4.901  17.082  0.6765  0.3683  0.2886
 1667TIP3    H126416   3.632   4.889  17.151  1.3634  1.3975 -0.1628
 1667TIP3    H226417   3.597   4.977  17.032  0.1955 -0.3392 -1.1486
 1668TIP3   OH226418   6.135   4.062  13.399  0.3682  0.2416 -0.3304
 1668TIP3    H126419   6.064   4.090  13.341  1.3594 -1.2030 -2.3571
 1668TIP3    H226420   6.131   3.967  13.398  1.6243  0.1572  0.4365
 1669TIP3   OH226421   4.367   4.201  14.177 -0.6232  0.3518  0.1578
 1669TIP3    H126422   4.276   4.186  14.151  0.0135 -1.4198 -1.2599
 1669TIP3    H226423   4.361   4.258  14.253 -2.9996 -0.8257  0.9585
 1670TIP3   OH226424   3.150   5.553   0.534 -0.0144 -0.3021 -0.5392
 1670TIP3    H126425   3.064   5.586   0.511 -0.4585 -0.9926  0.0569
 1670TIP3    H226426   3.199   5.551   0.452 -0.3656  0.6594 -0.7770
 1671TIP3   OH226427   6.003   2.777  12.323 -0.3149 -0.3036  0.1828
 1671TIP3    H126428   6.070   2.811  12.264 -2.0070 -0.2901 -1.8345
 1671TIP3    H226429   5.933   2.842  12.321 -0.6629 -0.5779  1.8162
 1672TIP3   OH226430   5.962   5.267  14.167  0.7886 -0.4024 -0.5411
 1672TIP3    H126431   6.031   5.237  14.108  1.7228 -2.3750  1.4443
 1672TIP3    H226432   6.008   5.302  14.243 -0.3986  0.8155 -0.3414
 1673TIP3   OH226433   1.870   2.916   2.073 -0.2057  0.0403  0.2079
 1673TIP3    H126434   1.815   2.837   2.078  0.4246 -0.4282 -0.0157
 1673TIP3    H226435   1.836   2.964   1.999 -0.1098 -0.4199 -0.1432
 1674TIP3   OH226436   2.684   4.279  16.215  0.4274  0.3988 -0.6257
 1674TIP3    H126437   2.758   4.227  16.245 -0.2635 -0.3236 -0.1296
 1674TIP3    H226438   2.612   4.257  16.275 -0.2540  0.9055 -1.2274
 1675TIP3   OH226439   3.225   1.434   4.371 -0.4668  0.3162 -0.5080
 1675TIP3    H126440   3.187   1.418   4.284 -0.0913 -1.7473 -0.3481
 1675TIP3    H226441   3.149   1.442   4.429 -0.7148  1.4636 -0.9655
 1676TIP3   OH226442   1.558   5.549   1.805  0.2851 -0.2271 -0.1405
 1676TIP3    H126443   1.501   5.576   1.877 -1.6522 -2.0708 -0.8603
 1676TIP3    H226444   1.547   5.617   1.739 -1.0273 -0.4496 -0.1943
 1677TIP3   OH226445   0.187   4.769   1.722 -0.2800 -0.2213  0.1176
 1677TIP3    H126446   0.115   4.831   1.713 -0.0561  0.1604  0.8563
 1677TIP3    H226447   0.259   4.808   1.671 -0.2429 -0.0375  0.3102
 1678TIP3   OH226448   0.944   5.346   3.025  0.3340 -0.0719 -0.2189
 1678TIP3    H126449   0.855   5.313   3.038 -0.2210  1.8703  1.4614
 1678TIP3    H226450   0.994   5.306   3.096  1.1897 -2.1535 -1.8796
 1679TIP3   OH226451   1.994   0.144  11.280  0.5794  0.3033 -0.4461
 1679TIP3    H126452   2.033   0.218  11.326 -1.9055  0.0499  2.3743
 1679TIP3    H226453   1.900   0.165  11.277 -0.4086 -3.0728  1.4298
 1680TIP3   OH226454   2.081   3.348  11.771 -0.2200  0.2030 -0.1832
 1680TIP3    H126455   2.154   3.354  11.832 -0.6520  0.1824  0.3356
 1680TIP3    H226456   2.072   3.255  11.753  1.1497  0.3250 -1.8029
 1681TIP3   OH226457   6.781   0.971   2.739 -0.2679  0.0175  0.4936
 1681TIP3    H126458   6.841   0.950   2.811  0.6411 -0.1864 -0.3066
 1681TIP3    H226459   6.838   0.985   2.664 -1.1278  1.3156  0.0468
 1682TIP3   OH226460   6.671   2.235   3.070  0.1917  0.5352  0.3553
 1682TIP3    H126461   6.704   2.293   3.138  0.5008  1.9119 -0.9071
 1682TIP3    H226462   6.578   2.224   3.089  0.1205  1.4983  0.6048
 1683TIP3   OH226463   4.384   5.441   0.507  0.2754  0.4345  0.2646
 1683TIP3    H126464   4.301   5.409   0.541  0.8588  1.2505  2.6553
 1683TIP3    H226465   4.362   5.482   0.423 -1.6221  0.1255  0.5847
 1684TIP3   OH226466   5.202   6.634   2.249  0.1785  0.3454 -0.2592
 1684TIP3    H126467   5.120   6.594   2.220  0.7759 -0.7312 -0.5256
 1684TIP3    H226468   5.176   6.718   2.287 -0.9424  0.4536 -1.2054
 1685TIP3   OH226469   3.313   2.170  14.075 -0.1701  0.3580  0.0420
 1685TIP3    H126470   3.276   2.249  14.034 -0.7548  0.2783  0.3965
 1685TIP3    H226471   3.302   2.185  14.169 -1.8015 -0.8424  0.0797
 1686TIP3   OH226472   1.423   0.306   0.388  0.8207  0.9085  0.0333
 1686TIP3    H126473   1.422   0.274   0.478  0.9188  1.9797  0.4232
 1686TIP3    H226474   1.362   0.249   0.341  2.2193 -0.9341  0.3141
 1687TIP3   OH226475   0.358   0.531   2.060 -0.1854 -0.2016  0.6663
 1687TIP3    H126476   0.414   0.458   2.087  1.6358  0.5805 -0.7616
 1687TIP3    H226477   0.385   0.604   2.115  0.6187  0.3180 -0.3821
 1688TIP3   OH226478   0.685   6.706   3.541 -0.2107  0.2706 -0.1628
 1688TIP3    H126479   0.750   6.635   3.544 -0.8127 -0.3480 -1.1214
 1688TIP3    H226480   0.720   6.767   3.476  0.7102  1.2945  1.2426
 1689TIP3   OH226481   0.363   3.982  12.378  0.1582  0.0861 -0.1962
 1689TIP3    H126482   0.410   3.967  12.460 -0.1523 -1.1645 -0.2291
 1689TIP3    H226483   0.431   4.004  12.315  0.6802 -1.2024 -0.1231
 1690TIP3   OH226484   6.738   0.309  13.994 -0.7906  0.1943  0.0827
 1690TIP3    H126485   6.741   0.371  14.067 -1.2403  0.5134 -0.1703
 1690TIP3    H226486   6.776   0.229  14.030 -1.0509  0.3357  0.6852
 1691TIP3   OH226487   2.752   4.988   6.165  0.1421  0.2275 -0.0249
 1691TIP3    H126488   2.666   5.024   6.147 -0.0779 -0.2161  0.1325
 1691TIP3    H226489   2.778   5.026   6.249 -0.6572 -0.9790  0.8013
 1692TIP3   OH226490   3.072   3.667  14.514 -0.1463 -0.2456 -0.7130
 1692TIP3    H126491   2.996   3.611  14.501  0.4014 -1.0175 -0.6649
 1692TIP3    H226492   3.111   3.675  14.427  0.2300 -0.6145 -0.5828
 1693TIP3   OH226493   0.784   0.883   3.388  0.3856 -0.0089  0.1679
 1693TIP3    H126494   0.784   0.857   3.480 -0.9091  0.6423  0.3797
 1693TIP3    H226495   0.718   0.952   3.383 -1.6552 -1.9357 -1.7470
 1694TIP3   OH226496   6.491   1.221   5.223 -0.0940 -0.5114  0.4937
 1694TIP3    H126497   6.563   1.160   5.209  0.0130 -0.7831  2.0655
 1694TIP3    H226498   6.515   1.270   5.302 -0.0570  1.7649 -0.8300
 1695TIP3   OH226499   2.400   3.301  16.598  0.1584 -0.0955 -0.1887
 1695TIP3    H126500   2.450   3.365  16.547  1.2465 -1.7650 -1.3316
 1695TIP3    H226501   2.464   3.235  16.624 -1.4256 -2.6575 -2.2274
 1696TIP3   OH226502   2.824   0.631  16.873  0.4974  0.2700 -0.2501
 1696TIP3    H126503   2.893   0.663  16.816  0.7907  0.5094  0.2323
 1696TIP3    H226504   2.848   0.664  16.960 -0.1983  0.3143 -0.0744
 1697TIP3   OH226505   4.085   3.368  14.916  0.3935 -0.3517 -0.4035
 1697TIP3    H126506   4.006   3.313  14.911  0.6984 -0.9000  0.6385
 1697TIP3    H226507   4.084   3.404  15.005 -0.1976  1.9753 -1.2745
 1698TIP3   OH226508   5.840   4.040   5.200 -0.1498  0.3401  0.0642
 1698TIP3    H126509   5.909   4.105   5.187 -0.9087  1.1981  0.1868
 1698TIP3    H226510   5.875   3.981   5.266  0.6489  0.4950 -0.2150
 1699TIP3   OH226511   4.063   2.895  11.385 -0.4721 -0.0575 -0.5099
 1699TIP3    H126512   4.116   2.944  11.449 -0.1056 -0.2316 -0.6741
 1699TIP3    H226513   3.976   2.891  11.423 -0.2502 -0.1750 -0.0093
 1700TIP3   OH226514   3.232   3.405   5.762 -0.4704  0.0973 -0.0694
 1700TIP3    H126515   3.248   3.495   5.788 -0.7634  0.3798 -0.8285
 1700TIP3    H226516   3.307   3.382   5.707  0.2354 -0.5523  1.1205
 1701TIP3   OH226517   0.827   2.080  16.282 -0.5831  0.2356 -0.4580
 1701TIP3    H126518   0.904   2.117  16.239 -0.8214  2.3342  0.7999
 1701TIP3    H226519   0.860   2.040  16.362 -0.7595  0.8209 -0.0941
 1702TIP3   OH226520   2.527   6.726  16.776  0.8386  0.4377  0.2368
 1702TIP3    H126521   2.461   6.669  16.815 -0.9237  1.9824 -0.3531
 1702TIP3    H226522   2.596   6.666  16.747 -0.9100 -1.4115 -0.3613
 1703TIP3   OH226523   4.816   4.175  11.162  0.1207  0.5596  0.6688
 1703TIP3    H126524   4.894   4.223  11.132 -0.6844  1.0605 -0.7156
 1703TIP3    H226525   4.840   4.083  11.152  1.1909  0.6565  2.0473
 1704TIP3   OH226526   4.265   6.335  13.916  0.3734 -0.2804 -0.1022
 1704TIP3    H126527   4.299   6.385  13.990  0.9622 -1.3278  0.3726
 1704TIP3    H226528   4.328   6.263  13.905 -0.9310 -1.4642 -0.1118
 1705TIP3   OH226529   4.026   5.440  14.686 -0.0225 -0.3800  0.3944
 1705TIP3    H126530   4.002   5.530  14.710  0.1808 -1.2281  4.5990
 1705TIP3    H226531   3.943   5.392  14.690  0.3678 -0.9789  1.8731
 1706TIP3   OH226532   5.291   0.026  17.121 -0.0283  0.6819  0.4053
 1706TIP3    H126533   5.280   0.110  17.075 -1.4230 -0.1755 -0.9011
 1706TIP3    H226534   5.202   0.001  17.147  0.1363 -1.1681 -0.6733
 1707TIP3   OH226535   5.442   0.630   1.968 -0.1776 -0.0980  0.1422
 1707TIP3    H126536   5.414   0.714   2.003 -2.4514 -1.0063  0.7353
 1707TIP3    H226537   5.380   0.567   2.006 -0.8650 -1.5677 -3.0274
 1708TIP3   OH226538   3.249   2.753  17.250 -0.5117  0.0283 -0.7224
 1708TIP3    H126539   3.336   2.721  17.225 -0.7809  1.3553 -3.7306
 1708TIP3    H226540   3.248   2.746  17.346  3.1074  0.4496 -0.5185
 1709TIP3   OH226541   6.445   4.526  15.727 -0.4583  0.3410  0.0021
 1709TIP3    H126542   6.535   4.494  15.727 -0.9026 -1.0064  0.9983
 1709TIP3    H226543   6.393   4.450  15.698 -1.4642  0.4426  1.4547
 1710TIP3   OH226544   0.600   1.584   5.671  0.3048  0.3125 -0.3979
 1710TIP3    H126545   0.580   1.678   5.670  0.2474  0.4182  2.3871
 1710TIP3    H226546   0.568   1.554   5.756 -0.6900 -2.5144 -1.6445
 1711TIP3   OH226547   1.717   6.529  12.808  0.8214  0.4457  0.6094
 1711TIP3    H126548   1.639   6.539  12.863  0.4928  0.1711  0.2016
 1711TIP3    H226549   1.751   6.618  12.797  1.0385  0.4818  1.4563
 1712TIP3   OH226550   3.516   6.433   2.586 -0.1895 -0.4728 -0.6357
 1712TIP3    H126551   3.425   6.443   2.559  0.5000  1.8108 -2.3958
 1712TIP3    H226552   3.511   6.411   2.679 -2.5412  2.0962 -0.0150
 1713TIP3   OH226553   2.374   4.271   0.730 -0.3495 -0.3499 -0.2883
 1713TIP3    H126554   2.369   4.329   0.654 -0.5579 -1.4210 -1.1091
 1713TIP3    H226555   2.449   4.304   0.781 -0.4382  0.5993 -0.7546
 1714TIP3   OH226556   0.462   5.593   3.801 -0.0909 -0.4717  0.1450
 1714TIP3    H126557   0.395   5.592   3.870  0.1780 -0.2201  0.4155
 1714TIP3    H226558   0.544   5.577   3.848  0.0320 -0.8356 -0.1920
 1715TIP3   OH226559   2.675   0.152  16.882 -0.6566  0.1036  0.0759
 1715TIP3    H126560   2.693   0.214  16.811 -0.4075 -0.4258 -0.3218
 1715TIP3    H226561   2.613   0.090  16.844 -1.5840  0.5882  0.7368
 1716TIP3   OH226562   3.514   0.057   5.066 -0.9082  0.4756 -0.3108
 1716TIP3    H126563   3.419   0.047   5.075 -0.7862  0.8289  2.1706
 1716TIP3    H226564   3.549   0.013   5.144  0.9497  0.5967 -1.0447
 1717TIP3   OH226565   0.788   2.316  11.631  0.0220 -0.1623  0.3704
 1717TIP3    H126566   0.811   2.388  11.690 -0.5963  0.2588  0.1111
 1717TIP3    H226567   0.872   2.279  11.604  0.3987  1.2901 -0.5150
 1718TIP3   OH226568   6.255   3.269   3.477  0.1163  0.2592 -0.4152
 1718TIP3    H126569   6.319   3.305   3.538  1.7727 -1.6450 -0.9347
 1718TIP3    H226570   6.222   3.190   3.520  0.5485 -0.5493 -1.5230
 1719TIP3   OH226571   4.097   3.024  10.269 -0.2800 -0.2283  0.3929
 1719TIP3    H126572   4.151   2.947  10.284  0.2292  0.0810  0.1832
 1719TIP3    H226573   4.097   3.036  10.174  0.1130  0.3513  0.4616
 1720TIP3   OH226574   0.038   2.816  13.250  0.6096 -0.1612 -0.3659
 1720TIP3    H126575   0.057   2.723  13.240  1.1522 -0.0491 -0.3771
 1720TIP3    H226576   0.113   2.860  13.211 -0.3112  0.2938 -1.6981
 1721TIP3   OH226577   6.522   4.688   0.914  0.3861  0.0175  0.3439
 1721TIP3    H126578   6.560   4.758   0.862  0.5196  0.4199  0.9762
 1721TIP3    H226579   6.594   4.655   0.967  0.1450 -0.0545  0.6335
 1722TIP3   OH226580   5.094   1.735  13.770  0.1028  0.0847 -0.0221
 1722TIP3    H126581   5.119   1.645  13.754  0.9093  0.3396 -0.2161
 1722TIP3    H226582   5.136   1.758  13.852 -0.1515  0.2691  0.0591
 1723TIP3   OH226583   0.862   2.170  12.116  0.0635  0.4456 -0.2266
 1723TIP3    H126584   0.944   2.188  12.070 -1.0723  0.2415 -2.4551
 1723TIP3    H226585   0.887   2.111  12.187  1.9780  1.1943 -0.2294
 1724TIP3   OH226586   3.269   4.319   3.161  0.2649 -0.0019  0.8228
 1724TIP3    H126587   3.336   4.345   3.225  1.0468  0.5387 -0.1895
 1724TIP3    H226588   3.187   4.318   3.211  0.4487  2.7423  1.3619
 1725TIP3   OH226589   6.485   3.133   0.733 -0.2249 -0.1477  0.0224
 1725TIP3    H126590   6.405   3.146   0.785  0.8066  0.9418  1.3844
 1725TIP3    H226591   6.452   3.121   0.643 -1.9886 -1.0590  0.7303
 1726TIP3   OH226592   2.776   5.054   1.807  0.1091  0.1302  0.7623
 1726TIP3    H126593   2.748   5.128   1.753  1.9564  1.1053  1.0400
 1726TIP3    H226594   2.750   5.078   1.896 -1.0474 -0.4952  0.6069
 1727TIP3   OH226595   2.709   1.460   5.798 -0.2607 -0.3838  0.2334
 1727TIP3    H126596   2.649   1.507   5.855 -1.1915 -0.8687 -0.3258
 1727TIP3    H226597   2.796   1.478   5.834 -0.8163 -0.6768  1.7955
 1728TIP3   OH226598   3.855   2.417  13.947 -0.7762 -0.1039  0.0673
 1728TIP3    H126599   3.937   2.453  13.981 -1.8237  1.0739  1.4984
 1728TIP3    H226600   3.880   2.369  13.869  1.2750  0.2235  0.4747
 1729TIP3   OH226601   5.534   4.279   4.736 -0.0308  0.2030  0.1488
 1729TIP3    H126602   5.504   4.268   4.645 -1.0020  0.1556  0.4677
 1729TIP3    H226603   5.552   4.372   4.744 -0.7865  0.3543  0.1554
 1730TIP3   OH226604   3.293   0.494   6.016  0.0597 -0.2479 -0.0102
 1730TIP3    H126605   3.361   0.528   5.957 -1.2030  0.2270 -1.2345
 1730TIP3    H226606   3.321   0.523   6.103  1.1944  0.3146 -0.5311
 1731TIP3   OH226607   2.455   0.595  14.171  0.0577  0.1008 -0.0271
 1731TIP3    H126608   2.475   0.682  14.136 -0.5342  0.4960  0.5945
 1731TIP3    H226609   2.499   0.535  14.111  1.1549  0.8497 -0.0208
 1732TIP3   OH226610   4.565   0.316   3.559  0.4097  0.2896  0.5605
 1732TIP3    H126611   4.491   0.262   3.588  0.1228 -0.0811 -0.7825
 1732TIP3    H226612   4.579   0.378   3.631 -0.7967 -0.0423  1.1097
 1733TIP3   OH226613   2.974   4.572  11.587  0.4114  0.1733  0.2104
 1733TIP3    H126614   2.978   4.476  11.584 -0.0052  0.1702 -0.8211
 1733TIP3    H226615   2.886   4.593  11.556  0.5436  0.8962  0.3043
 1734TIP3   OH226616   3.390   1.145  11.338 -0.3474 -0.9103  0.4637
 1734TIP3    H126617   3.443   1.088  11.394  0.2553  1.0074  1.9238
 1734TIP3    H226618   3.425   1.132  11.250 -0.3471 -2.8913  0.7043
 1735TIP3   OH226619   3.149   3.835  12.799 -0.4514  0.6061  0.3913
 1735TIP3    H126620   3.242   3.817  12.816 -0.5003  1.3110  1.5570
 1735TIP3    H226621   3.113   3.751  12.772  0.0061 -0.3205  2.4532
 1736TIP3   OH226622   3.915   6.256   3.633  0.4514 -0.5211 -0.1634
 1736TIP3    H126623   3.831   6.213   3.648  0.8292 -0.7729  1.4526
 1736TIP3    H226624   3.899   6.317   3.562 -1.8989  1.5166  1.9490
 1737TIP3   OH226625   3.795   6.145  16.995 -0.1723  0.0121 -0.1200
 1737TIP3    H126626   3.784   6.238  17.018 -3.5513 -0.6458  1.5615
 1737TIP3    H226627   3.842   6.108  17.070  0.9395  0.2401 -0.6711
 1738TIP3   OH226628   0.412   1.428   5.010 -0.2192  0.3896 -0.1542
 1738TIP3    H126629   0.366   1.391   4.935  1.7388  0.5568 -1.5417
 1738TIP3    H226630   0.360   1.403   5.086 -2.3992  0.3749 -1.5610
 1739TIP3   OH226631   2.128   1.489  11.992  0.3215 -0.0546  0.2949
 1739TIP3    H126632   2.171   1.438  12.060  0.1732 -0.8048 -0.1700
 1739TIP3    H226633   2.152   1.446  11.910 -3.0434 -1.9189  0.0945
 1740TIP3   OH226634   2.893   0.657   2.258  0.0875 -0.0040 -0.1845
 1740TIP3    H126635   2.875   0.611   2.176  0.0938  0.1082 -0.2485
 1740TIP3    H226636   2.835   0.615   2.322  0.8262 -0.7924 -0.0137
 1741TIP3   OH226637   3.734   1.409   0.363 -0.1296  0.0064  0.0873
 1741TIP3    H126638   3.821   1.426   0.398 -0.0604  0.2021 -0.1770
 1741TIP3    H226639   3.693   1.496   0.358 -0.1698 -0.0311 -0.2384
 1742TIP3   OH226640   3.131   0.350   0.633  0.0749  0.2418  0.0272
 1742TIP3    H126641   3.223   0.376   0.635  0.2408 -0.3177 -0.0216
 1742TIP3    H226642   3.116   0.313   0.720 -0.1180  0.3883  0.0546
 1743TIP3   OH226643   0.678   1.944   4.321 -0.3634  0.2198 -0.1237
 1743TIP3    H126644   0.720   1.981   4.399 -1.2194 -2.4902  1.7838
 1743TIP3    H226645   0.739   1.877   4.291 -0.8306  0.0745 -0.7573
 1744TIP3   OH226646   1.726   3.370   5.844 -0.8822  0.0934 -0.4937
 1744TIP3    H126647   1.749   3.294   5.898 -1.4071  0.5779  0.4402
 1744TIP3    H226648   1.638   3.350   5.813 -0.7857  0.0520 -0.7391
 1745TIP3   OH226649   4.941   3.522   4.212  0.6694 -0.1957 -0.0620
 1745TIP3    H126650   4.954   3.554   4.301  0.7601 -0.1964 -0.0749
 1745TIP3    H226651   4.851   3.489   4.211  0.6430 -0.1273  0.0082
 1746TIP3   OH226652   4.249   4.669  11.354 -0.5999 -0.5624 -0.3557
 1746TIP3    H126653   4.320   4.671  11.419 -1.6596  0.4047  0.8192
 1746TIP3    H226654   4.294   4.659  11.270  0.9095 -0.3260  0.3832
 1747TIP3   OH226655   0.174   1.605  15.021  0.3004 -0.5996  0.7173
 1747TIP3    H126656   0.095   1.638  15.062  0.0343 -1.9499  1.3299
 1747TIP3    H226657   0.204   1.534  15.078 -0.0995 -2.5633 -1.3752
 1748TIP3   OH226658   2.462   5.460   2.077 -0.0340  0.3477  0.0134
 1748TIP3    H126659   2.554   5.458   2.101 -0.1748 -0.7307  0.5296
 1748TIP3    H226660   2.424   5.530   2.131  0.5026  0.9035 -0.3239
 1749TIP3   OH226661   0.314   0.110   0.034  0.2659  0.5042 -0.2413
 1749TIP3    H126662   0.404   0.135   0.053  0.1694  0.9031 -0.2810
 1749TIP3    H226663   0.320   0.057  -0.045  0.5065  0.1800 -0.0062
 1750TIP3   OH226664   4.842   3.537   0.880  0.0714 -0.1980  0.1359
 1750TIP3    H126665   4.825   3.516   0.788  0.6770 -0.2413  0.0334
 1750TIP3    H226666   4.836   3.453   0.926  0.3602 -0.2675  0.0467
 1751TIP3   OH226667   4.330   6.483   2.193  0.0523 -0.6409 -0.4528
 1751TIP3    H126668   4.275   6.490   2.115 -0.3924 -1.8899 -0.2712
 1751TIP3    H226669   4.385   6.406   2.176  0.5428 -0.4243  0.1163
 1752TIP3   OH226670   2.621   0.621   0.394 -0.3551 -0.3559  0.0943
 1752TIP3    H126671   2.547   0.560   0.390 -0.0327 -0.8419  1.1974
 1752TIP3    H226672   2.697   0.566   0.378 -0.2226  0.1919 -1.3232
 1753TIP3   OH226673   4.215   5.631  11.373  0.2832  0.3608  0.5458
 1753TIP3    H126674   4.310   5.645  11.369  0.1987  0.7582 -0.1277
 1753TIP3    H226675   4.186   5.633  11.282 -0.3357 -0.0350  0.7293
 1754TIP3   OH226676   2.599   1.946  12.712 -0.4841 -0.3555  0.1991
 1754TIP3    H126677   2.686   1.960  12.750  0.7310 -0.5949 -2.3095
 1754TIP3    H226678   2.551   2.026  12.734  1.4311  1.2334 -1.0073
 1755TIP3   OH226679   2.524   4.993   2.190 -0.6139  0.8904 -0.6391
 1755TIP3    H126680   2.558   5.005   2.279 -0.0669  1.0821 -0.8700
 1755TIP3    H226681   2.479   4.908   2.192 -2.0008  1.5949  0.2455
 1756TIP3   OH226682   2.640   4.356   0.294  0.0315 -0.0798  0.0068
 1756TIP3    H126683   2.553   4.316   0.290  0.3022 -0.5873 -2.3383
 1756TIP3    H226684   2.632   4.436   0.241  0.3719  1.2778  1.9004
 1757TIP3   OH226685   5.763   4.630   1.706  0.1089  0.0617  1.0129
 1757TIP3    H126686   5.745   4.559   1.645  1.0030  1.6032 -1.1487
 1757TIP3    H226687   5.749   4.591   1.793  2.9263 -3.4796  0.1221
 1758TIP3   OH226688   1.433   0.290   5.901 -0.5639 -0.6487 -0.6372
 1758TIP3    H126689   1.372   0.314   5.832 -1.0764 -1.1503 -0.3752
 1758TIP3    H226690   1.418   0.355   5.970 -1.5590 -1.3633 -0.1506
 1759TIP3   OH226691   2.682   2.191   1.283  0.6068  0.4016  0.8159
 1759TIP3    H126692   2.681   2.192   1.378 -1.4578 -0.8295  0.8703
 1759TIP3    H226693   2.590   2.204   1.258  0.9062 -0.5837 -0.9478
 1760TIP3   OH226694   6.163   1.960   1.337 -0.0317  0.4627 -0.4488
 1760TIP3    H126695   6.217   2.039   1.347  0.3316  0.2067 -0.3661
 1760TIP3    H226696   6.090   1.988   1.282  0.4262  0.7019 -0.9499
 1761TIP3   OH226697   0.256   0.500  10.423 -0.0543 -0.4989  0.0236
 1761TIP3    H126698   0.212   0.551  10.356 -2.2328 -0.4806  1.3829
 1761TIP3    H226699   0.259   0.558  10.499  0.6393 -1.1842  0.5399
 1762TIP3   OH226700   4.186   5.446  12.777 -0.1884 -0.5320  0.0386
 1762TIP3    H126701   4.237   5.372  12.745 -0.5554 -0.7290 -0.0983
 1762TIP3    H226702   4.101   5.408  12.799 -0.2385 -0.2295  0.3755
 1763TIP3   OH226703   4.308   5.911   0.176  0.7363 -0.0440 -0.4797
 1763TIP3    H126704   4.335   5.998   0.148  0.1995  0.3271  0.1172
 1763TIP3    H226705   4.227   5.926   0.226  0.7605 -0.8567 -0.1802
 1764TIP3   OH226706   4.991   2.008  13.232  0.0205  0.3753  0.6638
 1764TIP3    H126707   4.970   1.988  13.141 -0.9798  0.0561  0.9491
 1764TIP3    H226708   4.984   1.925  13.278  0.4758  0.5415  1.0439
 1765TIP3   OH226709   2.778   1.814  14.766  0.1723 -0.3121 -0.0708
 1765TIP3    H126710   2.770   1.776  14.853 -1.8191 -0.3347 -0.2308
 1765TIP3    H226711   2.796   1.740  14.708 -0.2604 -0.5469  0.0900
 1766TIP3   OH226712   3.852   4.298  16.131  0.1591  0.2081  0.0450
 1766TIP3    H126713   3.802   4.340  16.061 -1.7180  0.5521  1.4909
 1766TIP3    H226714   3.943   4.305  16.104 -0.0549  4.5085 -0.2401
 1767TIP3   OH226715   4.515   1.809   6.647 -0.1033  0.3381 -0.0644
 1767TIP3    H126716   4.419   1.802   6.647 -0.0426 -1.2271  1.4293
 1767TIP3    H226717   4.545   1.725   6.682  1.9153  0.0442 -2.2411
 1768TIP3   OH226718   1.129   0.590  14.160  0.5622 -0.1757 -0.1826
 1768TIP3    H126719   1.190   0.535  14.208 -0.1991 -0.9741 -0.1016
 1768TIP3    H226720   1.053   0.598  14.218  0.7342  1.1115 -0.1181
 1769TIP3   OH226721   6.108   1.692   6.743 -0.2217 -0.5252 -0.2940
 1769TIP3    H126722   6.069   1.742   6.671 -1.3846 -1.0949 -0.0885
 1769TIP3    H226723   6.202   1.703   6.731 -0.4227  1.0887 -0.6861
 1770TIP3   OH226724   1.899   1.049  12.170 -0.0322  0.1332 -0.4285
 1770TIP3    H126725   1.883   1.143  12.176  0.2154  0.1317  0.4173
 1770TIP3    H226726   1.977   1.034  12.224 -0.6951 -0.7010  0.3301
 1771TIP3   OH226727   1.714   3.503   0.494  0.4586  0.6983 -0.1194
 1771TIP3    H126728   1.808   3.510   0.476  0.1500  0.3590 -2.0848
 1771TIP3    H226729   1.672   3.554   0.424 -0.8091  1.9861  1.4912
 1772TIP3   OH226730   4.354   5.507  13.841  0.2091 -0.7285  0.2228
 1772TIP3    H126731   4.375   5.589  13.798 -0.2223 -1.3428 -1.1990
 1772TIP3    H226732   4.297   5.532  13.914 -0.8035  0.1467 -0.8323
 1773TIP3   OH226733   1.922   4.524   5.699  0.2108  0.1865 -0.0679
 1773TIP3    H126734   1.988   4.594   5.693 -2.7822  3.1884 -0.9515
 1773TIP3    H226735   1.912   4.492   5.609  1.3103 -1.2329  0.2777
 1774TIP3   OH226736   4.018   6.309  13.858  0.4820 -0.3667  0.1180
 1774TIP3    H126737   4.109   6.316  13.887  0.4749 -1.5462  0.4996
 1774TIP3    H226738   4.004   6.215  13.845 -0.3015 -0.1027 -1.2152
 1775TIP3   OH226739   3.333   3.137   3.402  0.8196  0.5290 -0.2380
 1775TIP3    H126740   3.357   3.086   3.478  1.6003 -0.4616 -1.1184
 1775TIP3    H226741   3.379   3.220   3.413  2.5764 -0.3576 -0.5943
 1776TIP3   OH226742   5.307   0.659   6.205  0.1010 -0.7159 -0.4907
 1776TIP3    H126743   5.391   0.670   6.160 -0.6518 -0.3745 -1.8707
 1776TIP3    H226744   5.312   0.572   6.243 -0.1456 -2.1055 -3.3726
 1777TIP3   OH226745   5.276   0.740   0.487 -0.5091  0.0390  0.2096
 1777TIP3    H126746   5.256   0.748   0.581  0.2979 -0.9289  0.4838
 1777TIP3    H226747   5.255   0.650   0.465  0.2657 -0.0260 -0.2995
 1778TIP3   OH226748   2.830   3.487  14.014  0.3464 -0.4447 -0.6136
 1778TIP3    H126749   2.767   3.502  14.084 -0.2027 -0.8509 -1.0098
 1778TIP3    H226750   2.816   3.395  13.989  1.7300 -0.8279 -0.0832
 1779TIP3   OH226751   6.757   0.638   1.416  0.1545  0.4207 -0.0073
 1779TIP3    H126752   6.790   0.660   1.329  0.7629  2.3890  0.6678
 1779TIP3    H226753   6.830   0.592   1.458 -0.2658 -0.8481 -0.6288
 1780TIP3   OH226754   4.670   5.182  11.570 -0.4758 -0.0386 -0.2669
 1780TIP3    H126755   4.623   5.239  11.509 -2.6573  0.1606  1.4853
 1780TIP3    H226756   4.748   5.233  11.595 -0.1095  0.3139 -2.0028
 1781TIP3   OH226757   6.635   1.781   2.680 -0.2448  0.8369 -0.3640
 1781TIP3    H126758   6.666   1.780   2.590 -1.6662 -2.0695 -0.9663
 1781TIP3    H226759   6.679   1.707   2.721 -1.5447  0.5304  0.5492
 1782TIP3   OH226760   6.029   6.526   4.958  1.1711 -0.4537  0.8801
 1782TIP3    H126761   6.025   6.436   4.925  0.1841 -0.0355 -0.1830
 1782TIP3    H226762   6.082   6.573   4.894  0.9441 -0.0714  0.9740
 1783TIP3   OH226763   1.705   6.254   0.479  0.1670  0.3824 -0.2138
 1783TIP3    H126764   1.629   6.263   0.421  0.0051  1.5805  0.1472
 1783TIP3    H226765   1.748   6.340   0.475  1.0325 -0.0148  0.2431
 1784TIP3   OH226766   6.630   6.106  13.319 -0.3194 -0.0730  0.1300
 1784TIP3    H126767   6.666   6.188  13.285  1.8048 -0.8024  0.5266
 1784TIP3    H226768   6.585   6.067  13.244 -0.2040  0.8176 -0.4144
 1785TIP3   OH226769   5.480   3.390   1.011  0.3604  0.7907  0.1480
 1785TIP3    H126770   5.559   3.369   1.061 -0.5655  1.1840  1.8313
 1785TIP3    H226771   5.431   3.308   1.007  0.9092  0.5004 -1.0570
 1786TIP3   OH226772   2.069   2.684   2.747 -0.0962 -0.2611  0.3421
 1786TIP3    H126773   2.131   2.755   2.727 -1.7479  1.6205  1.4927
 1786TIP3    H226774   2.119   2.624   2.802  0.7931  1.1082  1.0911
 1787TIP3   OH226775   3.549   0.965  12.065 -0.7674 -0.0327 -0.1180
 1787TIP3    H126776   3.490   0.955  12.140 -1.0643 -0.6652 -0.4228
 1787TIP3    H226777   3.571   0.875  12.041 -0.4784  0.1760 -0.6352
 1788TIP3   OH226778   2.659   3.593  15.523  0.3228 -0.4490 -0.1681
 1788TIP3    H126779   2.728   3.612  15.587 -0.2127 -0.3483  0.3891
 1788TIP3    H226780   2.698   3.616  15.439  1.0334 -0.5654  0.1177
 1789TIP3   OH226781   5.030   6.714   3.091  0.0200 -0.3788 -0.2686
 1789TIP3    H126782   5.025   6.748   3.002  0.4607 -0.0740 -0.1803
 1789TIP3    H226783   5.048   6.620   3.081 -0.6912 -0.4910 -0.5070
 1790TIP3   OH226784   6.640   1.046  11.249  0.2615  0.0708 -0.2721
 1790TIP3    H126785   6.574   1.107  11.216  1.6392  0.7628 -1.9036
 1790TIP3    H226786   6.594   0.962  11.257 -1.2934  0.9723  0.5899
 1791TIP3   OH226787   1.957   6.008  10.396 -0.4375 -0.2319  0.0000
 1791TIP3    H126788   2.037   5.960  10.412  0.4369  1.3897  0.7777
 1791TIP3    H226789   1.974   6.057  10.315 -1.0472 -0.6999 -0.4150
 1792TIP3   OH226790   1.183   3.477  14.245 -0.0819  0.4206  0.0843
 1792TIP3    H126791   1.210   3.398  14.200 -0.6616 -0.5069  1.3170
 1792TIP3    H226792   1.247   3.489  14.314  0.0672  1.1064 -0.1627
 1793TIP3   OH226793   5.114   3.649   5.848  0.1327  0.0942 -0.4429
 1793TIP3    H126794   5.046   3.618   5.908 -0.6631  1.8122 -0.3995
 1793TIP3    H226795   5.159   3.719   5.897  0.5752  0.3732 -1.2289
 1794TIP3   OH226796   4.590   2.333  15.277 -0.6719  0.0251 -0.0437
 1794TIP3    H126797   4.517   2.375  15.231  0.4986  0.2457 -1.7658
 1794TIP3    H226798   4.660   2.398  15.274  0.1446 -0.8390  0.1113
 1795TIP3   OH226799   5.285   0.645  14.369 -0.0982 -0.0096  0.0795
 1795TIP3    H126800   5.205   0.621  14.322 -0.0533  1.2111 -0.6585
 1795TIP3    H226801   5.342   0.568  14.361 -0.3140 -0.0429 -1.3786
 1796TIP3   OH226802   2.498   3.830   1.049 -0.2499  0.0239 -0.4685
 1796TIP3    H126803   2.487   3.736   1.066  0.2350  0.1348  0.5527
 1796TIP3    H226804   2.588   3.838   1.019  0.2768  0.3527  1.1113
 1797TIP3   OH226805   1.787   4.678   0.788 -0.2200 -0.2497  0.5860
 1797TIP3    H126806   1.727   4.675   0.714 -0.3998  0.5989  0.6859
 1797TIP3    H226807   1.743   4.629   0.857 -0.5444 -0.1146  0.4764
 1798TIP3   OH226808   1.765   6.203   3.804  0.1536  0.2852  0.4759
 1798TIP3    H126809   1.739   6.165   3.888  0.1251  0.2183  0.4368
 1798TIP3    H226810   1.807   6.286   3.827 -1.5514  1.2111  0.4584
 1799TIP3   OH226811   4.837   4.081  15.977 -0.2794  0.2525 -0.2836
 1799TIP3    H126812   4.825   4.157  16.033 -0.9032  0.3799 -0.5773
 1799TIP3    H226813   4.906   4.106  15.915 -1.7575  1.3000 -1.5877
 1800TIP3   OH226814   1.024   3.479  15.593  0.5475 -0.4619 -0.4384
 1800TIP3    H126815   1.030   3.553  15.533 -0.4906 -0.3513 -0.4162
 1800TIP3    H226816   0.959   3.505  15.658  2.5143 -0.0793  1.5057
 1801TIP3   OH226817   6.127   2.644   1.927  0.5779 -0.2361 -0.0018
 1801TIP3    H126818   6.153   2.659   1.836 -1.4500  1.1044 -0.4350
 1801TIP3    H226819   6.134   2.730   1.968 -1.8463 -0.0425  0.1390
 1802TIP3   OH226820   4.493   6.150  10.822  0.5101 -0.0136  0.3961
 1802TIP3    H126821   4.550   6.217  10.786  1.0235  0.0149  1.2276
 1802TIP3    H226822   4.547   6.105  10.888  0.1666 -1.2285 -0.1286
 1803TIP3   OH226823   3.252   3.661   5.866 -0.5530 -0.8060  0.0019
 1803TIP3    H126824   3.189   3.680   5.935  0.0877 -0.1617  0.4227
 1803TIP3    H226825   3.327   3.622   5.912  0.1633  0.2579 -0.2249
 1804TIP3   OH226826   6.747   0.702  12.844  0.0235  0.0598  0.0846
 1804TIP3    H126827   6.826   0.701  12.790 -0.2997 -0.2476 -0.3826
 1804TIP3    H226828   6.777   0.736  12.929  1.1243 -2.1417  0.6429
 1805TIP3   OH226829   3.527   2.804   0.506 -0.7524  0.2135 -0.7384
 1805TIP3    H126830   3.537   2.714   0.539 -0.8801  0.0495 -1.1454
 1805TIP3    H226831   3.574   2.804   0.423 -0.8912  0.4795 -0.8167
 1806TIP3   OH226832   3.362   1.705  14.104  0.4986 -0.0040  0.2568
 1806TIP3    H126833   3.327   1.734  14.188 -1.6285 -1.1534 -0.1486
 1806TIP3    H226834   3.377   1.785  14.054  0.4605  0.6230  1.2352
 1807TIP3   OH226835   1.780   4.414  17.249  0.3031  0.1231  0.6762
 1807TIP3    H126836   1.723   4.420  17.326 -0.9787  0.5400 -0.2666
 1807TIP3    H226837   1.813   4.504  17.237  0.9234 -0.0492  1.0254
 1808TIP3   OH226838   6.518   5.936  13.869  0.4789 -0.3263  0.0687
 1808TIP3    H126839   6.586   5.934  13.801  1.4575  1.5692  0.9036
 1808TIP3    H226840   6.549   6.002  13.931 -1.7199 -0.0337  0.9352
 1809TIP3   OH226841   2.703   1.792   0.030 -0.1363  0.2620 -0.4016
 1809TIP3    H126842   2.644   1.730  -0.013 -0.8752  1.6937 -1.5463
 1809TIP3    H226843   2.786   1.746   0.036 -0.6318 -0.7910 -1.3448
 1810TIP3   OH226844   0.845   2.111   4.521 -0.1482  0.4204 -0.6260
 1810TIP3    H126845   0.897   2.063   4.586 -0.2359  0.1186 -0.7775
 1810TIP3    H226846   0.766   2.137   4.568  0.3560  1.3261 -0.2473
 1811TIP3   OH226847   3.627   1.766   0.551 -0.5484  0.5043 -0.2800
 1811TIP3    H126848   3.675   1.849   0.551  0.0256  0.1723 -0.3755
 1811TIP3    H226849   3.586   1.762   0.637  0.2317  0.4201  0.0958
 1812TIP3   OH226850   3.110   2.766  15.626 -0.2926 -0.6816 -0.1701
 1812TIP3    H126851   3.041   2.731  15.569 -0.0118 -1.8464  0.1922
 1812TIP3    H226852   3.062   2.811  15.696 -0.6663 -0.6501 -0.4416
 1813TIP3   OH226853   2.616   0.999  13.566  0.4583 -0.1238 -0.1512
 1813TIP3    H126854   2.671   1.026  13.492 -1.4654 -0.0552 -1.6615
 1813TIP3    H226855   2.533   1.044  13.551  0.0121 -0.0783  2.1280
 1814TIP3   OH226856   2.144   5.276  11.214 -0.2174  0.7010 -0.5096
 1814TIP3    H126857   2.224   5.244  11.171 -0.2912  0.7106 -0.6519
 1814TIP3    H226858   2.073   5.251  11.155 -0.7481 -2.5964  1.2487
 1815TIP3   OH226859   4.867   1.645  13.099  0.0031  0.1521 -0.1258
 1815TIP3    H126860   4.942   1.697  13.070  0.5420 -0.8850 -0.6479
 1815TIP3    H226861   4.793   1.681  13.050  0.1786  1.0502  0.2415
 1816TIP3   OH226862   6.722   3.613   4.359  0.1744 -0.0272  0.3992
 1816TIP3    H126863   6.812   3.642   4.377  0.5276 -1.0232  0.3054
 1816TIP3    H226864   6.671   3.694   4.354  0.9729  0.5219  0.9657
 1817TIP3   OH226865   2.334   4.634  14.239  0.2176  0.4176 -0.0699
 1817TIP3    H126866   2.376   4.580  14.305  1.4030 -0.6930 -1.6482
 1817TIP3    H226867   2.302   4.711  14.287  0.7183 -0.4905  1.8090
 1818TIP3   OH226868   0.731   0.597  12.600  0.3330  0.0232  0.1732
 1818TIP3    H126869   0.825   0.614  12.599  0.2924  0.2828  0.5262
 1818TIP3    H226870   0.721   0.517  12.652  0.4829 -0.8738 -1.1103
 1819TIP3   OH226871   2.559   2.249   5.871  0.1775 -0.2629 -0.5715
 1819TIP3    H126872   2.549   2.176   5.932 -1.8555  2.3814  2.6740
 1819TIP3    H226873   2.488   2.238   5.807 -0.8100 -0.6189  0.5513
 1820TIP3   OH226874   6.492   6.177   4.714  0.2391  0.0133 -0.3987
 1820TIP3    H126875   6.438   6.119   4.660  0.2031  0.3519 -0.7285
 1820TIP3    H226876   6.519   6.248   4.655 -0.0190  0.5277  0.0896
 1821TIP3   OH226877   5.463   4.376   2.558  0.1781 -0.2166  0.0499
 1821TIP3    H126878   5.417   4.372   2.641  1.4471 -1.2188  0.7467
 1821TIP3    H226879   5.464   4.286   2.526  0.1332  0.0806 -0.8107
 1822TIP3   OH226880   1.355   5.140   4.570  0.5773 -0.1437 -0.1364
 1822TIP3    H126881   1.268   5.168   4.543 -0.7394 -1.4558  2.4255
 1822TIP3    H226882   1.415   5.192   4.516 -1.7070 -0.5708 -3.3643
 1823TIP3   OH226883   0.929   5.543  14.200 -0.0916  0.2102  0.0193
 1823TIP3    H126884   0.962   5.459  14.169  0.6759  0.9056 -1.0907
 1823TIP3    H226885   0.835   5.540  14.182 -0.2628 -0.7824  0.9139
 1824TIP3   OH226886   1.415   1.035  12.589  0.2072 -0.3476  0.2113
 1824TIP3    H126887   1.331   1.055  12.630  0.4362  1.4484 -0.1008
 1824TIP3    H226888   1.480   1.074  12.648  0.5324  2.6980 -1.8726
 1825TIP3   OH226889   5.289   6.211  16.292 -0.1850 -0.4340 -0.0061
 1825TIP3    H126890   5.318   6.141  16.351 -0.2860  0.3776  1.0212
 1825TIP3    H226891   5.196   6.220  16.310 -0.5435 -1.1521 -1.3404
 1826TIP3   OH226892   3.779   1.702  11.685  0.0521  0.5701 -0.0319
 1826TIP3    H126893   3.700   1.649  11.673 -0.6400  1.5653  0.0774
 1826TIP3    H226894   3.790   1.708  11.780  0.8839 -0.4598 -0.0455
 1827TIP3   OH226895   0.166   2.769  14.661 -0.1436  0.0517 -0.5796
 1827TIP3    H126896   0.124   2.747  14.744  0.3314  0.2791 -0.2729
 1827TIP3    H226897   0.094   2.792  14.602 -0.5056 -0.4224 -0.3278
 1828TIP3   OH226898   1.710   0.655  16.621 -0.9532 -0.2877  1.1585
 1828TIP3    H126899   1.763   0.727  16.654  0.3754 -0.8870  0.4051
 1828TIP3    H226900   1.737   0.579  16.674 -0.2414 -0.8248  0.0585
 1829TIP3   OH226901   0.833   5.056   4.741  0.2326  0.1343  0.6460
 1829TIP3    H126902   0.774   5.017   4.805 -0.5141 -0.3742 -0.3223
 1829TIP3    H226903   0.786   5.049   4.658  2.1201 -1.4137 -0.3730
 1830TIP3   OH226904   0.821   3.953   1.491 -0.4336 -0.2856  1.0625
 1830TIP3    H126905   0.913   3.970   1.508 -0.3753 -0.1710  0.6260
 1830TIP3    H226906   0.781   3.950   1.578  0.5387 -3.7126  1.5349
 1831TIP3   OH226907   2.269   3.468   1.740  0.0804 -0.9176 -0.0535
 1831TIP3    H126908   2.309   3.421   1.667 -0.1942 -2.8246  0.9768
 1831TIP3    H226909   2.309   3.430   1.818  0.5197  1.2225  0.8363
 1832TIP3   OH226910   5.689   0.642  17.141  0.6735 -0.3542  0.1475
 1832TIP3    H126911   5.741   0.713  17.105  0.1000 -0.6174 -1.2464
 1832TIP3    H226912   5.613   0.636  17.083  1.0519 -2.5463 -0.1959
 1833TIP3   OH226913   5.941   5.705   3.343 -0.0758 -0.3969  0.2383
 1833TIP3    H126914   5.983   5.784   3.376  1.0621 -1.7510  2.2821
 1833TIP3    H226915   5.851   5.710   3.375 -0.6354  0.9943 -1.4167
 1834TIP3   OH226916   1.865   5.323  16.484 -0.2050 -0.4427 -0.4782
 1834TIP3    H126917   1.898   5.308  16.396 -0.8982  0.2664 -0.8767
 1834TIP3    H226918   1.935   5.294  16.542  0.2701 -0.8799 -1.2630
 1835TIP3   OH226919   4.293   4.026   4.356  0.2538  0.3645 -0.0464
 1835TIP3    H126920   4.281   4.009   4.262  0.1750  0.2916 -0.0232
 1835TIP3    H226921   4.208   4.007   4.395  0.4833 -0.3357  0.1424
 1836TIP3   OH226922   6.057   5.359  14.399  0.0315  0.0066 -0.0488
 1836TIP3    H126923   6.045   5.447  14.436 -1.9291 -0.6996  1.1993
 1836TIP3    H226924   6.149   5.339  14.413  0.2044  1.3349  0.9173
 1837TIP3   OH226925   0.261   1.806   5.741 -0.4109 -0.1363  0.2778
 1837TIP3    H126926   0.175   1.847   5.755  0.8174  2.6469  0.2119
 1837TIP3    H226927   0.277   1.758   5.822 -1.5451  0.2350  0.7558
 1838TIP3   OH226928   2.151   2.653  16.455  0.2009 -0.0288 -0.0239
 1838TIP3    H126929   2.087   2.630  16.388  1.3128 -0.7649 -0.8823
 1838TIP3    H226930   2.198   2.572  16.473  1.9484  0.7784 -0.6098
 1839TIP3   OH226931   5.926   6.579   0.152 -0.2051 -0.1669  0.3031
 1839TIP3    H126932   5.846   6.614   0.113  0.3669 -0.2392 -0.9603
 1839TIP3    H226933   5.939   6.495   0.108  0.6238 -0.1070  0.4280
 1840TIP3   OH226934   6.422   1.230   4.227 -0.4152 -0.5620  0.0493
 1840TIP3    H126935   6.397   1.280   4.149 -0.8060 -0.2982  0.3383
 1840TIP3    H226936   6.428   1.295   4.297 -1.9933 -1.0406  0.6779
 1841TIP3   OH226937   4.621   5.019   4.452  0.0986  0.1974 -0.2250
 1841TIP3    H126938   4.676   5.027   4.374 -0.4421 -1.9010 -0.8736
 1841TIP3    H226939   4.542   4.974   4.422 -0.3714 -0.1593  1.4238
 1842TIP3   OH226940   3.098   5.553  15.605 -0.5256 -0.0704  0.0847
 1842TIP3    H126941   3.093   5.645  15.631  0.8154  0.1252 -0.2483
 1842TIP3    H226942   3.143   5.510  15.678 -0.7735 -0.3808  0.0571
 1843TIP3   OH226943   1.087   0.175   2.195  0.0563  0.3032  0.4409
 1843TIP3    H126944   1.055   0.245   2.139 -2.0824 -0.8347  0.1175
 1843TIP3    H226945   1.180   0.193   2.206 -0.1295  2.3339 -0.8321
 1844TIP3   OH226946   0.578   5.148  12.427 -0.1633  0.4636  0.4756
 1844TIP3    H126947   0.627   5.190  12.356  0.1229  1.0578  1.0071
 1844TIP3    H226948   0.605   5.196  12.506 -0.7866  0.0889  0.9265
 1845TIP3   OH226949   4.233   4.089   1.632  0.0735 -0.3884 -0.4055
 1845TIP3    H126950   4.184   4.171   1.630  1.4988  0.6153  1.8778
 1845TIP3    H226951   4.297   4.099   1.561 -0.3350  0.0968 -0.7151
 1846TIP3   OH226952   2.877   2.966  11.726  0.2288  0.1443  0.5458
 1846TIP3    H126953   2.817   2.919  11.668  0.4244  1.4732 -0.7995
 1846TIP3    H226954   2.932   3.018  11.667  2.3234 -0.5418  1.7645
 1847TIP3   OH226955   0.205   1.184  14.845  0.0003 -0.0806 -0.3401
 1847TIP3    H126956   0.183   1.094  14.821  0.7648 -0.9966  2.0601
 1847TIP3    H226957   0.252   1.218  14.769 -2.6177 -0.7189 -2.3810
 1848TIP3   OH226958   6.058   2.122   4.477  0.0074  0.0540 -0.1672
 1848TIP3    H126959   6.018   2.205   4.451  0.8865  1.2177  1.9599
 1848TIP3    H226960   5.994   2.056   4.452 -1.0298  1.4090 -1.2838
 1849TIP3   OH226961   1.975   6.677  14.834  0.0565 -0.5787  0.1716
 1849TIP3    H126962   1.897   6.623  14.848 -2.2912  2.6019  0.3426
 1849TIP3    H226963   2.036   6.648  14.901 -1.4864 -2.2410  0.9663
 1850TIP3   OH226964   2.440   1.752   4.023 -0.0837 -0.4585 -0.1666
 1850TIP3    H126965   2.464   1.775   4.113 -1.5873  2.1823 -0.3676
 1850TIP3    H226966   2.369   1.688   4.033  0.6756 -1.2345  0.4669
 1851TIP3   OH226967   0.839   3.243   5.536 -0.0899 -0.3172 -0.0578
 1851TIP3    H126968   0.782   3.206   5.469 -0.6560  1.4605 -0.5933
 1851TIP3    H226969   0.926   3.211   5.514 -0.3022  0.0587 -1.5083
 1852TIP3   OH226970   6.740   5.454   3.112  0.4605  0.3051 -0.6794
 1852TIP3    H126971   6.689   5.422   3.037  0.9340 -0.4184 -0.6945
 1852TIP3    H226972   6.738   5.382   3.175 -0.4777  1.1325  0.2987
 1853TIP3   OH226973   0.093   6.616  15.078  0.1220 -0.0931 -0.1840
 1853TIP3    H126974   0.024   6.619  15.011  0.5497  0.7236 -0.6044
 1853TIP3    H226975   0.172   6.643  15.032  0.2759  1.2806  0.8261
 1854TIP3   OH226976   3.609   2.954  16.973  0.0364  0.0685  0.4460
 1854TIP3    H126977   3.637   3.025  17.031  3.2611 -0.3010 -0.4628
 1854TIP3    H226978   3.634   2.874  17.019  0.8589 -0.2821 -0.5754
 1855TIP3   OH226979   2.987   0.133  12.264  0.8102  0.1081  0.1771
 1855TIP3    H126980   2.947   0.161  12.181 -1.3086  1.9702  1.6762
 1855TIP3    H226981   2.999   0.039  12.255 -0.8396  0.0106 -1.6847
 1856TIP3   OH226982   5.020   2.232  13.777 -0.0500 -0.2906 -0.0521
 1856TIP3    H126983   5.037   2.150  13.823  0.0349 -1.5096 -2.1308
 1856TIP3    H226984   4.947   2.212  13.717  0.8320  0.7230 -1.5451
 1857TIP3   OH226985   0.088   1.729   1.940  0.2034 -0.2823  0.1174
 1857TIP3    H126986   0.110   1.647   1.896  0.4633 -0.0029 -0.2908
 1857TIP3    H226987   0.052   1.784   1.871 -2.9896 -1.1090  0.9815
 1858TIP3   OH226988   4.610   2.781  12.410 -0.1958 -0.0946 -0.0123
 1858TIP3    H126989   4.593   2.698  12.454 -2.0947  0.5307  0.5538
 1858TIP3    H226990   4.540   2.787  12.344  0.6316  0.5174 -0.8549
 1859TIP3   OH226991   3.960   3.943  15.138 -0.4150  0.3684 -0.6171
 1859TIP3    H126992   3.995   4.007  15.200  1.2506 -0.4690 -0.6211
 1859TIP3    H226993   3.952   3.862  15.189  0.6712 -0.2470 -1.3672
 1860TIP3   OH226994   0.500   4.222   2.898  0.1436 -0.5920 -0.1851
 1860TIP3    H126995   0.503   4.293   2.833  3.0384  1.0396  1.4973
 1860TIP3    H226996   0.586   4.181   2.892 -0.5126 -2.1842  0.8019
 1861TIP3   OH226997   5.230   1.956  16.615 -0.3294  0.1390  0.2960
 1861TIP3    H126998   5.310   1.926  16.572 -1.0494 -0.2880 -0.7877
 1861TIP3    H226999   5.227   1.907  16.697  0.1008 -0.4345 -0.0203
 1862TIP3   OH227000   5.475   4.827   4.220 -0.8393 -0.4645  0.4159
 1862TIP3    H127001   5.526   4.842   4.140 -1.0925 -1.4320  0.0664
 1862TIP3    H227002   5.531   4.771   4.273 -0.8103 -0.0911  0.7797
 1863TIP3   OH227003   1.546   3.535  15.471 -0.1188  0.2458 -0.1488
 1863TIP3    H127004   1.538   3.630  15.472 -1.7759  0.1707  2.6721
 1863TIP3    H227005   1.483   3.506  15.404 -0.0645  1.0888 -0.5718
 1864TIP3   OH227006   0.692   3.569  11.559 -0.2750  0.1245 -0.8226
 1864TIP3    H127007   0.769   3.589  11.505  0.2546 -1.1439 -0.5971
 1864TIP3    H227008   0.725   3.570  11.648 -0.2241 -1.4827 -0.7850
 1865TIP3   OH227009   6.513   3.736   0.502  0.4417 -0.5577 -0.0211
 1865TIP3    H127010   6.489   3.825   0.475 -1.6454 -1.1829 -0.3802
 1865TIP3    H227011   6.508   3.684   0.422 -0.0434 -1.3215  0.4950
 1866TIP3   OH227012   3.929   6.113   5.798 -0.2405 -0.6894 -0.3836
 1866TIP3    H127013   3.891   6.035   5.757 -1.8005  0.5209 -1.3556
 1866TIP3    H227014   3.871   6.133   5.872 -0.4061  0.0765 -0.7086
 1867TIP3   OH227015   4.705   6.437   4.137 -0.8397  0.3805 -0.3340
 1867TIP3    H127016   4.769   6.509   4.141 -0.5712  0.0931  1.1308
 1867TIP3    H227017   4.694   6.410   4.228 -1.8210 -0.6770 -0.7443
 1868TIP3   OH227018   1.843   6.107  16.502  0.2653 -0.1435  0.0146
 1868TIP3    H127019   1.828   6.196  16.470  1.4515 -0.0550 -0.3557
 1868TIP3    H227020   1.757   6.065  16.497 -0.5327  1.2613  1.1593
 1869TIP3   OH227021   3.775   4.853   5.613 -0.6425 -0.4810  0.0535
 1869TIP3    H127022   3.753   4.764   5.641  2.0708 -1.3792 -0.3252
 1869TIP3    H227023   3.786   4.847   5.518  1.0621 -0.1752  0.1894
 1870TIP3   OH227024   4.012   1.920  16.425 -0.3906  0.7351  0.3693
 1870TIP3    H127025   4.046   1.831  16.421  2.5510  1.6341  2.2689
 1870TIP3    H227026   3.951   1.920  16.499 -0.0945  0.3838  0.6140
 1871TIP3   OH227027   5.196   0.213   2.873  0.2927  0.3279  0.4212
 1871TIP3    H127028   5.126   0.150   2.855  0.5341  0.6368 -1.9851
 1871TIP3    H227029   5.268   0.160   2.906  0.5125 -0.7614 -1.6148
 1872TIP3   OH227030   6.597   4.073   4.787 -0.5639 -0.0393  0.3601
 1872TIP3    H127031   6.502   4.085   4.788 -0.3444  2.2982 -0.4837
 1872TIP3    H227032   6.617   4.046   4.697 -0.3984 -0.1310  0.4236
 1873TIP3   OH227033   2.841   5.312  14.744 -0.0484 -0.2099  0.2435
 1873TIP3    H127034   2.799   5.314  14.658  0.6492 -0.9137 -0.1334
 1873TIP3    H227035   2.768   5.311  14.806 -0.5631  0.0721 -0.3451
 1874TIP3   OH227036   2.418   4.794   3.569  0.4550  0.7530 -0.3692
 1874TIP3    H127037   2.476   4.826   3.638  0.7582 -0.5208 -0.0061
 1874TIP3    H227038   2.361   4.869   3.549  0.8575  1.3821  0.7247
 1875TIP3   OH227039   0.733   2.121  14.446 -0.4218 -0.4158 -0.0949
 1875TIP3    H127040   0.716   2.200  14.497 -1.1360 -1.9576  2.1942
 1875TIP3    H227041   0.818   2.091  14.477  0.3137 -0.0971 -1.6622
 1876TIP3   OH227042   2.982   3.894  15.815  0.0272  0.7100  0.0504
 1876TIP3    H127043   2.905   3.927  15.769 -2.1928 -2.0215  1.4690
 1876TIP3    H227044   3.014   3.968  15.867 -0.9864  2.1832 -1.3356
 1877TIP3   OH227045   2.698   4.615   1.382  0.3295  0.3877  0.2106
 1877TIP3    H127046   2.759   4.607   1.455  0.6433  3.3192  0.3781
 1877TIP3    H227047   2.626   4.667   1.416 -0.4670  0.1335 -1.0323
 1878TIP3   OH227048   6.331   5.330  16.080 -0.1045  0.1495  0.4937
 1878TIP3    H127049   6.254   5.338  16.135 -0.0894  1.2970  0.3706
 1878TIP3    H227050   6.356   5.420  16.060  0.2688 -0.2305 -0.8550
 1879TIP3   OH227051   2.734   5.563   5.031 -0.3327 -0.2586  0.2435
 1879TIP3    H127052   2.691   5.647   5.043 -1.0189 -0.4391 -0.8039
 1879TIP3    H227053   2.702   5.532   4.946  1.3527 -0.7150 -0.2603
 1880TIP3   OH227054   2.490   6.380  12.139  0.5687  0.1565  0.2174
 1880TIP3    H127055   2.475   6.430  12.220 -2.8701 -0.5392  0.1912
 1880TIP3    H227056   2.413   6.323  12.133  1.2507 -0.5782 -3.0062
 1881TIP3   OH227057   1.288   3.317  15.437 -0.4309 -0.0253  0.8708
 1881TIP3    H127058   1.363   3.263  15.411 -0.3799 -0.9769  2.7755
 1881TIP3    H227059   1.230   3.317  15.361  0.2723 -1.5288  0.2958
 1882TIP3   OH227060   4.447   0.031   2.857 -0.6032  0.4166  0.2326
 1882TIP3    H127061   4.467  -0.054   2.818  0.1407  0.0912  1.2851
 1882TIP3    H227062   4.531   0.063   2.890 -0.9639  1.3316  0.3044
 1883TIP3   OH227063   2.533   5.473  14.246 -0.3762 -0.2844  0.9766
 1883TIP3    H127064   2.527   5.507  14.336  2.2203  0.9438  0.7624
 1883TIP3    H227065   2.626   5.476  14.225 -1.0008  0.6429 -2.2024
 1884TIP3   OH227066   2.827   2.034   4.303 -0.3273 -0.5282  0.4170
 1884TIP3    H127067   2.835   2.088   4.381 -3.2910  1.2263 -0.3277
 1884TIP3    H227068   2.740   1.993   4.311  0.2215 -2.0804 -0.9218
 1885TIP3   OH227069   1.739   1.274  16.720 -0.7453  0.1060 -0.1546
 1885TIP3    H127070   1.713   1.330  16.792  0.8534 -1.0164  1.3863
 1885TIP3    H227071   1.684   1.301  16.647 -0.1002  3.6319  0.4860
 1886TIP3   OH227072   5.266   2.675  16.714 -0.2468  0.0655  0.7578
 1886TIP3    H127073   5.211   2.598  16.706 -0.1701 -0.1030  1.7345
 1886TIP3    H227074   5.260   2.700  16.806  1.8562 -0.3725  1.0625
 1887TIP3   OH227075   6.337   4.837   5.307  0.1878 -0.0408 -0.0103
 1887TIP3    H127076   6.284   4.916   5.318 -0.4625 -0.5796  0.7966
 1887TIP3    H227077   6.412   4.850   5.364 -1.1425 -1.0395  2.0958
 1888TIP3   OH227078   1.767   2.287  11.012  0.1375  0.4969  0.2956
 1888TIP3    H127079   1.847   2.248  10.977 -1.1966 -0.8615 -1.4168
 1888TIP3    H227080   1.760   2.371  10.968  1.3404  1.2897  1.5516
 1889TIP3   OH227081   1.825   6.063  11.410  0.1668  0.0232 -0.1257
 1889TIP3    H127082   1.740   6.063  11.366 -0.1498 -0.1700  0.4627
 1889TIP3    H227083   1.875   5.994  11.367 -0.4228 -0.7082  0.3415
 1890TIP3   OH227084   5.094   6.294  11.515  0.3572  0.3460 -0.3563
 1890TIP3    H127085   5.086   6.288  11.611  0.1062  2.4316 -0.2027
 1890TIP3    H227086   5.134   6.212  11.490 -1.4224 -1.1517  1.3184
 1891TIP3   OH227087   4.956   6.276  12.704  0.0777 -1.1329  0.3097
 1891TIP3    H127088   4.951   6.307  12.795 -0.8943 -1.3052  0.3280
 1891TIP3    H227089   4.866   6.280  12.673  0.3874 -1.1855 -0.6207
 1892TIP3   OH227090   3.207   2.923   3.275 -0.5097 -0.3364  0.4094
 1892TIP3    H127091   3.251   2.999   3.313 -1.0797 -0.1335  0.6758
 1892TIP3    H227092   3.116   2.951   3.264 -0.4963 -0.6235 -0.4839
 1893TIP3   OH227093   1.003   6.250  13.161  0.3711 -0.2682  0.2083
 1893TIP3    H127094   1.030   6.307  13.233  1.1845 -0.5754  0.1586
 1893TIP3    H227095   0.944   6.304  13.108 -0.6847 -0.2100  1.3857
 1894TIP3   OH227096   1.805   0.018   2.301 -0.0211  0.8117  0.3367
 1894TIP3    H127097   1.831   0.007   2.393  1.0662 -0.8808 -0.1309
 1894TIP3    H227098   1.854   0.095   2.272  0.0492  1.0325  1.0161
 1895TIP3   OH227099   6.480   3.147  13.914  0.2595  0.0236 -0.1634
 1895TIP3    H127100   6.482   3.242  13.923  1.3513  0.1947 -1.7440
 1895TIP3    H227101   6.572   3.121  13.912 -0.0064 -1.3376  2.2912
 1896TIP3   OH227102   2.227   2.495  13.636 -0.1108 -0.1200  0.4111
 1896TIP3    H127103   2.147   2.452  13.666 -0.2144  0.3038  0.7659
 1896TIP3    H227104   2.219   2.498  13.541 -0.8571  0.5667  0.4873
 1897TIP3   OH227105   2.406   1.919   1.683 -0.2055 -0.1283 -0.3449
 1897TIP3    H127106   2.365   1.902   1.598  0.7468  0.1020 -0.8699
 1897TIP3    H227107   2.389   1.840   1.735  0.1329 -0.7290 -1.1285
 1898TIP3   OH227108   4.602   5.215   5.037 -0.2146  0.7647 -0.2381
 1898TIP3    H127109   4.619   5.122   5.023 -0.6599  0.8342 -1.3272
 1898TIP3    H227110   4.681   5.247   5.081 -0.3716 -0.2685  0.8566
 1899TIP3   OH227111   1.333   2.361   5.452  0.1009 -0.1420  0.2266
 1899TIP3    H127112   1.408   2.407   5.491  0.3154 -0.6591  0.4277
 1899TIP3    H227113   1.370   2.279   5.420 -0.3993 -0.4298  0.3873
 1900TIP3   OH227114   5.332   2.051  14.825 -0.6545 -0.6961 -0.0114
 1900TIP3    H127115   5.410   1.998  14.844 -1.0005 -0.7532  1.3968
 1900TIP3    H227116   5.263   1.987  14.811 -0.6971 -0.6399 -0.0548
 1901TIP3   OH227117   4.434   2.490   0.940 -0.4636 -0.1567 -0.4038
 1901TIP3    H127118   4.450   2.408   0.987 -0.4919  0.7249  1.2264
 1901TIP3    H227119   4.394   2.463   0.858 -2.2682 -1.6890  0.9044
 1902TIP3   OH227120   5.203   3.085  15.816 -0.1269 -0.2355 -0.0935
 1902TIP3    H127121   5.165   3.065  15.901  0.8158 -1.3594  0.0893
 1902TIP3    H227122   5.248   3.004  15.790  3.4551  1.4225  0.4108
 1903TIP3   OH227123   6.226   2.814   3.694 -0.1976  0.3086 -0.5250
 1903TIP3    H127124   6.144   2.766   3.706  0.0435  0.3118  1.6140
 1903TIP3    H227125   6.294   2.753   3.722  0.5988  0.2450 -2.4503
 1904TIP3   OH227126   5.824   2.126  14.166 -0.5602  0.4459  0.6976
 1904TIP3    H127127   5.743   2.075  14.165 -1.0036  1.1518 -0.6030
 1904TIP3    H227128   5.796   2.215  14.186 -0.1758  0.7899 -0.2409
 1905TIP3   OH227129   1.374   2.812   4.898 -0.1390 -0.4789 -0.5244
 1905TIP3    H127130   1.307   2.845   4.959  1.1047  0.0916  0.5920
 1905TIP3    H227131   1.341   2.836   4.812 -0.3505  1.7971  0.1154
 1906TIP3   OH227132   5.420   6.460  16.757  0.3871  0.3625  0.3721
 1906TIP3    H127133   5.470   6.395  16.806  0.9599 -1.8988 -2.9039
 1906TIP3    H227134   5.482   6.531  16.741  0.6307  0.4314  1.5625
 1907TIP3   OH227135   6.048   3.283  15.060 -0.6247 -0.0256  0.4711
 1907TIP3    H127136   6.112   3.346  15.028  0.2265 -1.4721 -0.8167
 1907TIP3    H227137   6.099   3.205  15.082 -1.9098 -1.2615 -0.7034
 1908TIP3   OH227138   2.043   6.028   3.340 -0.0874  0.6649 -0.2753
 1908TIP3    H127139   1.987   6.095   3.381  1.0337  0.3372  1.9748
 1908TIP3    H227140   1.997   5.946   3.355 -0.0285  0.6267 -0.3040
 1909TIP3   OH227141   6.748   5.979   5.881 -0.2290  0.2865 -0.6252
 1909TIP3    H127142   6.655   5.965   5.900 -0.2874  2.0385  0.6872
 1909TIP3    H227143   6.789   5.985   5.968  1.2189 -0.9939 -1.1833
 1910TIP3   OH227144   5.545   2.276  14.784 -0.6965 -0.1713 -0.0987
 1910TIP3    H127145   5.531   2.182  14.800  1.0632 -0.4494  0.0977
 1910TIP3    H227146   5.604   2.303  14.855 -0.7000  0.9319 -0.5081
 1911TIP3   OH227147   3.949   0.868  15.248 -0.0093 -0.5335  0.1476
 1911TIP3    H127148   4.042   0.866  15.271 -0.0382 -1.5122  0.2324
 1911TIP3    H227149   3.945   0.833  15.159 -0.3780 -1.4516  0.5053
 1912TIP3   OH227150   1.147   4.612   1.883  0.2366  0.5735  0.5656
 1912TIP3    H127151   1.151   4.705   1.859  0.3817  0.5959  0.6761
 1912TIP3    H227152   1.054   4.593   1.891  0.2005  0.6663  0.3679
 1913TIP3   OH227153   0.096   1.361  16.385 -0.3816  0.1490 -0.1008
 1913TIP3    H127154   0.101   1.385  16.292 -3.0267  3.9031  0.5060
 1913TIP3    H227155   0.179   1.393  16.422  0.4713 -0.9065 -1.0191
 1914TIP3   OH227156   4.726   0.414   2.621 -0.1483  0.0164 -0.1480
 1914TIP3    H127157   4.650   0.357   2.634 -0.9137  1.1621  0.5957
 1914TIP3    H227158   4.782   0.397   2.697 -1.7058  2.2095  1.6416
 1915TIP3   OH227159   3.088   0.426  13.285  0.7619  0.3558 -0.0365
 1915TIP3    H127160   3.141   0.504  13.267 -0.1333  0.8448 -0.6277
 1915TIP3    H227161   3.021   0.427  13.217  0.7654 -0.9689 -0.0747
 1916TIP3   OH227162   5.586   4.679  10.837  0.0558 -0.0793 -0.0844
 1916TIP3    H127163   5.495   4.649  10.828 -0.3277  0.9202  0.2983
 1916TIP3    H227164   5.604   4.728  10.757 -0.0562  0.4920  0.2335
 1917TIP3   OH227165   2.983   1.261  15.255  0.2271  0.6144 -0.1182
 1917TIP3    H127166   2.902   1.218  15.280  1.1515 -0.7803  0.5725
 1917TIP3    H227167   2.962   1.355  15.256 -1.0735  0.3300  1.0606
 1918TIP3   OH227168   5.793   5.343  13.228  0.2722 -0.9432  0.4242
 1918TIP3    H127169   5.839   5.427  13.219  0.7676 -1.2963 -0.4609
 1918TIP3    H227170   5.758   5.325  13.141 -0.1688 -1.4660  0.7050
 1919TIP3   OH227171   3.003   5.646  11.557 -0.0465 -0.7971 -0.0393
 1919TIP3    H127172   2.990   5.554  11.580  0.3304 -1.2238 -1.4645
 1919TIP3    H227173   3.013   5.646  11.462 -1.8641  0.9134 -0.3076
 1920TIP3   OH227174   0.812   4.415  15.768  0.2184 -0.0551  0.3599
 1920TIP3    H127175   0.880   4.471  15.806 -0.4490  1.1016 -0.1031
 1920TIP3    H227176   0.822   4.426  15.673 -0.5453  0.0522  0.2860
 1921TIP3   OH227177   5.940   2.692  16.106  0.4926  0.0808 -0.2379
 1921TIP3    H127178   5.853   2.730  16.116  0.8917  0.7279  0.8618
 1921TIP3    H227179   5.924   2.599  16.089 -0.3940 -0.2943  2.2694
 1922TIP3   OH227180   6.740   2.484  15.690 -0.2061 -0.0545 -0.2619
 1922TIP3    H127181   6.765   2.532  15.769  1.0334 -0.6879 -0.2581
 1922TIP3    H227182   6.785   2.400  15.697 -0.8304 -0.4828 -1.1978
 1923TIP3   OH227183   0.812   2.081  12.624  0.5543  0.9761  0.1203
 1923TIP3    H127184   0.717   2.079  12.632  0.4153 -0.4736 -1.5217
 1923TIP3    H227185   0.829   2.146  12.555  0.7016  0.5724 -0.2225
 1924TIP3   OH227186   0.321   0.409   1.087  0.2060  0.1245 -0.3454
 1924TIP3    H127187   0.378   0.484   1.070 -0.5434  0.7249 -0.2774
 1924TIP3    H227188   0.264   0.405   1.011  0.6988 -0.8283 -0.6813
 1925TIP3   OH227189   2.868   2.056  14.609  0.3965 -0.1398 -0.0040
 1925TIP3    H127190   2.960   2.077  14.621  0.6549 -0.3243 -1.5383
 1925TIP3    H227191   2.856   1.973  14.655  1.3851 -0.9248 -1.0981
 1926TIP3   OH227192   0.307   5.482   1.329  0.8482  0.0840  0.1880
 1926TIP3    H127193   0.253   5.408   1.299  0.2640  0.6044 -0.0661
 1926TIP3    H227194   0.350   5.514   1.250  1.3783 -0.1931  0.3554
 1927TIP3   OH227195   2.521   4.141   4.491  0.0310  0.4389  0.1275
 1927TIP3    H127196   2.602   4.101   4.458  0.3852 -0.0071  1.4648
 1927TIP3    H227197   2.542   4.167   4.581 -1.2261  0.5959  0.3966
 1928TIP3   OH227198   2.524   4.088  16.032 -0.4551 -0.2460 -0.5657
 1928TIP3    H127199   2.535   4.181  16.051 -0.1163 -0.4190  0.1105
 1928TIP3    H227200   2.597   4.046  16.077 -0.0802 -0.7529 -1.6289
 1929TIP3   OH227201   1.388   6.711   4.597  0.0298  0.5712  0.3896
 1929TIP3    H127202   1.462   6.651   4.613 -1.1795 -0.9318  0.6070
 1929TIP3    H227203   1.426   6.782   4.546  1.6616 -0.1042  0.5883
 1930TIP3   OH227204   1.409   1.886  11.768  0.2325  0.1936  0.2605
 1930TIP3    H127205   1.463   1.829  11.823 -2.0837  0.0093  2.5026
 1930TIP3    H227206   1.458   1.968  11.763  1.5636 -0.5458  0.6799
 1931TIP3   OH227207   0.024   3.703  17.187 -0.0953 -0.2225 -0.2135
 1931TIP3    H127208  -0.022   3.668  17.111 -0.2284 -0.2763 -0.1074
 1931TIP3    H227209   0.099   3.750  17.150 -1.0866  1.2123 -0.4979
 1932TIP3   OH227210   4.335   5.005   5.227 -0.4096 -0.1029 -0.4545
 1932TIP3    H127211   4.278   5.066   5.180 -1.4894 -0.6333  0.1283
 1932TIP3    H227212   4.284   4.924   5.233  0.3787 -0.5767  0.1493
 1933TIP3   OH227213   3.176   6.630  10.813 -0.5425 -0.0685  0.0571
 1933TIP3    H127214   3.268   6.614  10.792 -0.9375 -0.1251 -1.8187
 1933TIP3    H227215   3.143   6.679  10.738 -1.9585  0.3061  0.8881
 1934TIP3   OH227216   4.088   3.836  13.765 -0.1564 -0.1927 -0.0891
 1934TIP3    H127217   4.060   3.922  13.733  0.9487 -0.7092 -2.6769
 1934TIP3    H227218   4.006   3.795  13.794 -0.5710  2.0799  2.4337
 1935TIP3   OH227219   2.172   5.404  12.674  0.0889 -0.0305 -0.4171
 1935TIP3    H127220   2.109   5.335  12.656  0.3441 -0.8144  1.4349
 1935TIP3    H227221   2.257   5.366  12.651  0.2656 -0.4999  0.9431
 1936TIP3   OH227222   3.005   4.543   0.183 -0.0643 -0.1484 -0.4283
 1936TIP3    H127223   3.091   4.534   0.140 -0.1457  1.0031 -0.8924
 1936TIP3    H227224   2.959   4.607   0.128 -0.9773 -0.2710  0.1904
 1937TIP3   OH227225   0.768   0.893   5.656 -0.4715 -0.6120  0.2647
 1937TIP3    H127226   0.692   0.835   5.656 -0.3169 -0.8185 -0.1562
 1937TIP3    H227227   0.843   0.835   5.668 -0.2180 -0.6533 -1.3039
 1938TIP3   OH227228   5.628   0.356  16.979 -0.2669  0.2464  0.3722
 1938TIP3    H127229   5.562   0.365  17.047  0.3840 -2.2123  1.4429
 1938TIP3    H227230   5.710   0.378  17.023 -0.0669  0.7480 -0.2361
 1939TIP3   OH227231   3.047   5.692  13.559  0.1588 -0.2473  0.2775
 1939TIP3    H127232   3.087   5.700  13.646 -0.6985 -0.3826  0.6911
 1939TIP3    H227233   2.974   5.753  13.560 -0.3189 -0.7994 -0.0779
 1940TIP3   OH227234   1.451   3.580   4.731 -0.0958 -0.3247 -0.5090
 1940TIP3    H127235   1.465   3.509   4.794 -3.1696 -1.1374 -0.5648
 1940TIP3    H227236   1.476   3.542   4.646 -1.2017 -1.2411 -0.4624
 1941TIP3   OH227237   1.075   3.332  16.939  0.3016  0.2684 -0.1757
 1941TIP3    H127238   1.141   3.325  17.008  0.1297  1.8240  0.1683
 1941TIP3    H227239   0.992   3.311  16.982  0.2241  1.0218  0.0584
 1942TIP3   OH227240   6.302   2.831  15.940 -0.1734 -0.1093  0.1213
 1942TIP3    H127241   6.276   2.764  16.002  0.4109 -0.3460  0.1163
 1942TIP3    H227242   6.284   2.914  15.985 -0.8470 -0.2591  0.1437
 1943TIP3   OH227243   2.754   5.729  16.973 -0.2097 -0.3452 -0.0818
 1943TIP3    H127244   2.704   5.784  17.033  0.7440  1.3283 -0.7401
 1943TIP3    H227245   2.703   5.730  16.892 -0.9574 -1.7237  0.3485
 1944TIP3   OH227246   5.870   2.650   4.702  0.4354 -0.2979 -0.2891
 1944TIP3    H127247   5.941   2.625   4.761 -0.4177  2.8078  2.3562
 1944TIP3    H227248   5.796   2.595   4.729  0.7919 -0.8659 -0.4442
 1945TIP3   OH227249   3.660   3.907  13.134 -0.4100  0.3439 -0.5078
 1945TIP3    H127250   3.579   3.948  13.104 -0.7760 -0.7168 -0.9970
 1945TIP3    H227251   3.720   3.980  13.145 -1.6129  1.2394  0.4943
 1946TIP3   OH227252   1.080   5.493   0.939  0.3568  0.5893  0.1563
 1946TIP3    H127253   1.007   5.507   0.879 -0.5527  0.5312  1.2058
 1946TIP3    H227254   1.088   5.575   0.988  1.1751  0.6866 -0.1197
 1947TIP3   OH227255   2.553   2.086  13.852  0.2982 -0.0866 -0.5035
 1947TIP3    H127256   2.491   2.014  13.859  1.1608 -0.6927  1.6997
 1947TIP3    H227257   2.603   2.083  13.933  0.1980  3.1618 -0.1741
 1948TIP3   OH227258   0.967   2.165   3.478 -0.0322  0.1184 -0.1507
 1948TIP3    H127259   0.897   2.158   3.543  2.2788 -0.4300  2.4298
 1948TIP3    H227260   0.946   2.098   3.413 -1.8635 -0.0349  0.5327
 1949TIP3   OH227261   5.864   0.007   5.812  0.5668  0.1510  0.1060
 1949TIP3    H127262   5.808   0.059   5.870 -1.8892 -0.7901 -1.2740
 1949TIP3    H227263   5.903  -0.059   5.870  1.5413  1.7281  1.3556
 1950TIP3   OH227264   0.206   3.493  13.316 -0.0796 -0.5000 -0.1065
 1950TIP3    H127265   0.201   3.402  13.285  0.9687 -0.4361 -0.5035
 1950TIP3    H227266   0.146   3.541  13.259 -1.3524 -1.0868  0.7081
 1951TIP3   OH227267   1.970   2.059   4.675  0.8283  0.0350  0.0509
 1951TIP3    H127268   2.012   2.069   4.589 -1.8447  0.8370 -1.2575
 1951TIP3    H227269   1.944   2.148   4.699 -0.5827 -0.4801  0.5195
 1952TIP3   OH227270   3.641   6.410   0.390 -0.2410 -0.3745  0.2277
 1952TIP3    H127271   3.688   6.492   0.408 -1.2270  0.3858 -0.5577
 1952TIP3    H227272   3.710   6.345   0.379  0.7084  0.8208 -1.4541
 1953TIP3   OH227273   5.527   2.140  13.708  0.1527 -0.2598 -0.5298
 1953TIP3    H127274   5.592   2.195  13.664  1.8625 -1.2373  0.6643
 1953TIP3    H227275   5.443   2.168  13.670  1.3204  0.2797 -2.9502
 1954TIP3   OH227276   4.472   2.978  13.605  0.1128  0.4370  0.2358
 1954TIP3    H127277   4.500   3.054  13.554  0.9126  0.3116  0.4734
 1954TIP3    H227278   4.487   3.003  13.696  3.0925 -0.9676  0.2678
 1955TIP3   OH227279   6.336   5.921  14.753 -0.3586  0.6425 -0.1284
 1955TIP3    H127280   6.418   5.908  14.802 -0.0817  1.0393 -0.4797
 1955TIP3    H227281   6.364   5.960  14.670 -0.8673  0.3826 -0.4246
 1956TIP3   OH227282   6.257   3.886  11.745 -0.2290  0.4115  0.1761
 1956TIP3    H127283   6.275   3.795  11.721  0.1237  0.0389  1.7270
 1956TIP3    H227284   6.186   3.880  11.809  1.3685  0.9876  2.1015
 1957TIP3   OH227285   2.835   2.654   1.675 -0.6976  0.5249 -0.0555
 1957TIP3    H127286   2.869   2.586   1.734 -0.7588  1.4156  1.0415
 1957TIP3    H227287   2.849   2.618   1.588 -1.2362 -1.1511  0.4945
 1958TIP3   OH227288   4.081   1.666   3.950  0.8384 -0.2304 -0.0713
 1958TIP3    H127289   4.172   1.637   3.947  0.2938 -2.0510 -0.3906
 1958TIP3    H227290   4.030   1.585   3.951 -0.7604  0.6932  1.7392
 1959TIP3   OH227291   4.467   3.893   4.951  0.0243 -0.5402  0.6223
 1959TIP3    H127292   4.432   3.972   4.911  0.2717 -0.8230 -0.1772
 1959TIP3    H227293   4.553   3.920   4.985  0.6229 -0.7295 -0.6826
 1960TIP3   OH227294   1.947   0.831   5.957 -0.4791 -0.0090  0.3224
 1960TIP3    H127295   1.930   0.754   5.902  1.0842  0.5229 -0.9618
 1960TIP3    H227296   2.021   0.806   6.011 -0.8394  0.1361  0.8931
 1961TIP3   OH227297   0.346   1.651  10.440 -0.0812  0.2532 -0.2335
 1961TIP3    H127298   0.395   1.577  10.403 -0.5202 -0.1357 -0.0401
 1961TIP3    H227299   0.406   1.725  10.431 -0.0015  0.0716 -1.3016
 1962TIP3   OH227300   6.569   1.892  14.655  0.5552 -0.5958 -0.6141
 1962TIP3    H127301   6.555   1.896  14.560 -1.2548 -3.6223 -0.6214
 1962TIP3    H227302   6.660   1.865  14.665  1.1192  0.8931 -1.3947
 1963TIP3   OH227303   1.797   3.474   4.988  0.2791  0.2792 -0.0346
 1963TIP3    H127304   1.798   3.512   5.075 -3.5613 -2.5492  1.5145
 1963TIP3    H227305   1.710   3.493   4.953  0.4603 -1.6136 -1.7450
 1964TIP3   OH227306   2.326   6.301  16.016  0.3238 -0.3980 -0.0292
 1964TIP3    H127307   2.233   6.321  16.030 -0.0965 -1.1529 -1.4995
 1964TIP3    H227308   2.331   6.277  15.923  2.1747  0.5526 -0.2009
 1965TIP3   OH227309   5.193   3.184  16.607 -0.0136  0.5115 -0.2067
 1965TIP3    H127310   5.237   3.259  16.567  0.7864 -0.8513 -2.0007
 1965TIP3    H227311   5.104   3.188  16.574  0.3480  0.0354 -1.3117
 1966TIP3   OH227312   0.509   5.453  10.996 -0.1797 -0.2106  0.4497
 1966TIP3    H127313   0.511   5.450  10.900 -1.6923 -0.0627  0.3922
 1966TIP3    H227314   0.549   5.371  11.023  0.3741 -0.2014 -0.3016
 1967TIP3   OH227315   0.279   6.460  16.581 -0.1077  0.0788  0.0061
 1967TIP3    H127316   0.372   6.445  16.600 -0.0420 -0.4981 -0.7188
 1967TIP3    H227317   0.278   6.494  16.492 -0.5369  0.9812  0.3457
 1968TIP3   OH227318   2.574   1.391   0.835 -0.2026 -0.2971  0.6893
 1968TIP3    H127319   2.491   1.434   0.853 -0.9360 -1.3719 -0.0533
 1968TIP3    H227320   2.553   1.321   0.774  1.4363  0.1539 -0.4721
 1969TIP3   OH227321   0.091   3.826   1.948  0.4224 -0.1697  0.3201
 1969TIP3    H127322   0.054   3.911   1.924  0.4191  0.6791  3.0041
 1969TIP3    H227323   0.024   3.763   1.923  0.1689  0.6450 -1.1877
 1970TIP3   OH227324   3.013   5.209   3.532 -0.5442  0.4556 -0.2135
 1970TIP3    H127325   3.107   5.210   3.517 -0.5829  0.8337 -0.4572
 1970TIP3    H227326   2.997   5.129   3.582 -0.0677  0.5069  0.0248
 1971TIP3   OH227327   1.513   5.321  11.158  0.1425 -0.1388  0.4638
 1971TIP3    H127328   1.486   5.241  11.202 -0.9210  0.5840  1.1892
 1971TIP3    H227329   1.460   5.324  11.078 -1.2819  0.7632  1.3829
 1972TIP3   OH227330   6.627   0.744  11.323 -0.1996 -0.5706 -0.2710
 1972TIP3    H127331   6.545   0.774  11.361 -0.2439 -1.3763  0.3030
 1972TIP3    H227332   6.602   0.704  11.240 -0.3650 -0.6487 -0.1840
 1973TIP3   OH227333   2.124   6.534   2.208 -0.1953  0.8541 -0.8083
 1973TIP3    H127334   2.168   6.508   2.289 -1.2097 -3.7543 -1.4850
 1973TIP3    H227335   2.195   6.556   2.148  0.7858  0.3415  0.1250
 1974TIP3   OH227336   1.409   1.733   5.376  0.6071 -0.5495 -0.2583
 1974TIP3    H127337   1.395   1.642   5.402 -2.1275  0.0938  0.9038
 1974TIP3    H227338   1.353   1.745   5.299  0.8123  0.1949 -0.3015
 1975TIP3   OH227339   0.572   2.485   1.944 -0.0127 -0.2958 -0.2536
 1975TIP3    H127340   0.599   2.497   2.035 -1.6326 -0.6934  0.3203
 1975TIP3    H227341   0.536   2.396   1.942 -0.7238 -0.0020 -1.0760
 1976TIP3   OH227342   3.121   0.223  11.339  0.0594 -0.2382  0.2664
 1976TIP3    H127343   3.084   0.309  11.359  0.1141 -0.1424 -0.0383
 1976TIP3    H227344   3.203   0.242  11.292 -0.5778 -0.4526 -0.9856
 1977TIP3   OH227345   3.763   4.713   5.054  0.6031 -0.4052 -0.2745
 1977TIP3    H127346   3.849   4.751   5.034  0.7801 -0.4305  0.4098
 1977TIP3    H227347   3.779   4.619   5.058  0.6114 -0.3888  0.1515
 1978TIP3   OH227348   4.308   5.426  14.181  0.6956 -0.5219  0.2995
 1978TIP3    H127349   4.347   5.513  14.192  0.5425 -0.2593 -1.1004
 1978TIP3    H227350   4.289   5.397  14.271  0.3399  1.0634  0.7665
 1979TIP3   OH227351   1.743   3.576   3.345  0.3554  0.6016  1.0087
 1979TIP3    H127352   1.695   3.516   3.402  0.1824 -1.2372 -0.9391
 1979TIP3    H227353   1.730   3.541   3.257  3.9801  0.8996  0.1863
 1980TIP3   OH227354   4.687   2.771   1.135  0.0113  0.7432  0.1376
 1980TIP3    H127355   4.643   2.855   1.124 -0.0353  0.5605 -1.1425
 1980TIP3    H227356   4.752   2.769   1.066 -2.1626 -1.6642 -2.0203
 1981TIP3   OH227357   6.520   4.798   0.232 -0.0665  0.2014  0.1584
 1981TIP3    H127358   6.440   4.752   0.257  0.4798 -1.3950 -0.8962
 1981TIP3    H227359   6.490   4.885   0.206 -1.3919 -0.2156  0.2185
 1982TIP3   OH227360   0.087   0.549   4.763  0.1156 -0.4713 -0.8957
 1982TIP3    H127361   0.033   0.522   4.837  0.7959  0.9623  0.1840
 1982TIP3    H227362   0.033   0.530   4.686 -1.7670  0.4571  0.0981
 1983TIP3   OH227363   5.682   1.745  11.750 -0.1267 -0.3897 -0.4073
 1983TIP3    H127364   5.730   1.828  11.748  0.4543 -0.6039  1.9268
 1983TIP3    H227365   5.725   1.693  11.818 -2.1650 -1.5304  0.1161
 1984TIP3   OH227366   2.529   5.605  11.943 -0.1409 -0.1367  0.5480
 1984TIP3    H127367   2.455   5.666  11.950 -0.2045 -0.1149 -0.1782
 1984TIP3    H227368   2.497   5.535  11.887  0.4114 -0.0825  0.1532
 1985TIP3   OH227369   0.102   0.645  11.752 -0.3529 -0.5648 -0.5980
 1985TIP3    H127370   0.018   0.683  11.727  1.0607  2.6508 -1.0256
 1985TIP3    H227371   0.134   0.602  11.673  0.5630  2.6691 -2.1679
 1986TIP3   OH227372   2.940   2.239  13.223 -0.5967 -0.0463 -0.3265
 1986TIP3    H127373   2.892   2.157  13.214 -0.0023 -0.6416  1.5493
 1986TIP3    H227374   2.999   2.225  13.297  0.3474  1.6859 -0.6903
 1987TIP3   OH227375   5.671   6.377  13.003 -0.6840  0.0876 -0.0499
 1987TIP3    H127376   5.661   6.332  12.919 -0.7665  1.1501 -0.6307
 1987TIP3    H227377   5.627   6.461  12.990  0.1898  0.6815  0.7196
 1988TIP3   OH227378   4.788   6.334   0.070  0.3582 -0.0063  0.4360
 1988TIP3    H127379   4.719   6.270   0.050  0.4557 -0.7087  2.1651
 1988TIP3    H227380   4.841   6.292   0.138  0.2435  2.0309  1.8749
 1989TIP3   OH227381   2.022   1.277  10.718  0.1179 -0.2993 -0.0664
 1989TIP3    H127382   1.952   1.285  10.654 -0.9630 -0.2820  1.0806
 1989TIP3    H227383   2.096   1.324  10.679 -1.1922  1.6756 -0.3432
 1990TIP3   OH227384   4.262   3.313  15.562  0.0226 -0.1637 -1.0374
 1990TIP3    H127385   4.252   3.396  15.609 -0.4725 -1.3529  1.1082
 1990TIP3    H227386   4.229   3.330  15.474 -2.1458  1.3572 -0.0152
 1991TIP3   OH227387   3.518   4.650   0.070  0.0743 -0.4514 -0.9318
 1991TIP3    H127388   3.578   4.576   0.078  0.2227 -0.3286 -0.8962
 1991TIP3    H227389   3.567   4.724   0.107 -0.8930 -0.7786  1.1580
 1992TIP3   OH227390   5.726   5.080   4.462  0.9073 -0.4746  0.5030
 1992TIP3    H127391   5.771   5.112   4.384  1.1068 -0.4726  0.6182
 1992TIP3    H227392   5.767   5.126   4.535  0.5166 -0.2489  0.5875
 1993TIP3   OH227393   3.066   6.524  12.565  0.1283 -0.5509 -0.2126
 1993TIP3    H127394   3.124   6.503  12.492  1.1447  3.4484 -0.8152
 1993TIP3    H227395   3.026   6.608  12.540 -1.3685 -0.2389  2.7713
 1994TIP3   OH227396   5.427   5.173   0.386 -0.2273 -0.3400 -0.6911
 1994TIP3    H127397   5.393   5.261   0.370 -0.1303 -0.4356 -1.4567
 1994TIP3    H227398   5.401   5.153   0.476  3.4150  2.1356  1.1669
 1995TIP3   OH227399   1.068   4.456   0.354  0.1079  0.2961 -0.9937
 1995TIP3    H127400   1.128   4.383   0.337  0.2641  0.6026 -1.7961
 1995TIP3    H227401   0.981   4.420   0.339  0.0686 -0.2038  0.3605
 1996TIP3   OH227402   2.463   0.025  13.361  0.0920  0.6422  0.2598
 1996TIP3    H127403   2.496  -0.062  13.340 -1.3674 -0.8591  3.5241
 1996TIP3    H227404   2.518   0.057  13.432 -1.7228  0.6001  1.7776
 1997TIP3   OH227405   5.404   3.494   4.967  0.2299  0.1438 -0.5818
 1997TIP3    H127406   5.366   3.428   4.909 -0.3909  0.0929 -0.1146
 1997TIP3    H227407   5.498   3.490   4.949  0.1003 -0.2441 -1.1985
 1998TIP3   OH227408   0.564   2.703   2.171  0.2650 -0.2223  0.7802
 1998TIP3    H127409   0.618   2.720   2.248  1.9504 -0.5010 -0.2832
 1998TIP3    H227410   0.603   2.757   2.102 -0.0413 -1.3616 -0.3279
 1999TIP3   OH227411   3.867   3.528   2.054 -0.4897  0.2871  0.2676
 1999TIP3    H127412   3.885   3.478   2.133  1.6016 -0.1510 -0.4239
 1999TIP3    H227413   3.895   3.471   1.982 -1.7089  0.9303 -0.7797
 2000TIP3   OH227414   5.148   5.528   6.212  0.3031 -0.3015 -0.4531
 2000TIP3    H127415   5.064   5.496   6.180  0.6949 -1.9015  0.0017
 2000TIP3    H227416   5.150   5.502   6.305  1.1231  0.0583 -0.3602
 2001TIP3   OH227417   0.495   3.071   0.572 -0.4065 -0.5393 -0.0301
 2001TIP3    H127418   0.426   3.048   0.509 -1.3580  1.9433  0.0175
 2001TIP3    H227419   0.568   3.101   0.518  0.4098 -2.4114 -0.0451
 2002TIP3   OH227420   3.187   2.718  13.513 -0.2878 -0.1091  0.1945
 2002TIP3    H127421   3.250   2.769  13.563 -0.6159  1.0659 -0.5458
 2002TIP3    H227422   3.105   2.767  13.521 -1.4600 -2.1762  2.0869
 2003TIP3   OH227423   5.022   2.104   1.030 -0.7372  0.1872 -0.4045
 2003TIP3    H127424   4.972   2.023   1.041 -0.2513 -0.2962 -1.5968
 2003TIP3    H227425   4.978   2.150   0.959 -0.2285  0.3365 -0.6298
 2004TIP3   OH227426   2.573   4.524   0.510  0.1928  0.0840 -0.0240
 2004TIP3    H127427   2.478   4.527   0.520  0.3182 -1.3381  2.4710
 2004TIP3    H227428   2.587   4.481   0.425 -1.3347  0.9308 -0.7547
 2005TIP3   OH227429   2.329   3.546   5.170 -0.0464 -0.1590 -0.1800
 2005TIP3    H127430   2.245   3.563   5.214  0.0569 -1.3044  0.4965
 2005TIP3    H227431   2.305   3.495   5.092 -0.1358  1.0544 -0.9696
 2006TIP3   OH227432   0.289   3.724  13.700 -0.3368  0.2054  0.2212
 2006TIP3    H127433   0.199   3.692  13.693  0.1143 -1.0272 -0.2862
 2006TIP3    H227434   0.286   3.812  13.663 -1.3887  0.2948  0.4884
 2007TIP3   OH227435   4.115   0.045   5.110  0.2925 -0.0614  0.0499
 2007TIP3    H127436   4.041  -0.011   5.135 -0.0230 -0.2812 -1.2995
 2007TIP3    H227437   4.137   0.092   5.190 -0.9065 -0.4504  0.6384
 2008TIP3   OH227438   0.549   1.641   1.508 -0.5876 -0.2197  0.1067
 2008TIP3    H127439   0.590   1.585   1.442 -2.5281 -0.3522 -1.0822
 2008TIP3    H227440   0.537   1.726   1.463 -0.1684  0.3048  0.9631
 2009TIP3   OH227441   6.396   4.654   6.513 -0.2059 -0.0211  0.4195
 2009TIP3    H127442   6.373   4.656   6.606  0.3535 -2.7133  0.7028
 2009TIP3    H227443   6.340   4.720   6.473 -1.0023  0.6735  2.5473
 2010TIP3   OH227444   3.117   1.911   3.594 -0.2379  0.6467 -0.4744
 2010TIP3    H127445   3.050   1.902   3.661 -1.0929  0.8088 -1.2904
 2010TIP3    H227446   3.092   1.990   3.545  0.2792  0.4436 -1.0844
 2011TIP3   OH227447   3.439   0.771   2.870  0.6198 -0.0375  0.8554
 2011TIP3    H127448   3.387   0.692   2.853  0.2011 -0.5019  3.7268
 2011TIP3    H227449   3.389   0.842   2.832 -0.7655 -0.7968  1.1895
 2012TIP3   OH227450   6.113   3.665  11.357  0.0724  0.0657  0.4029
 2012TIP3    H127451   6.181   3.619  11.308  0.4955  0.7802  0.3003
 2012TIP3    H227452   6.055   3.596  11.389  0.5241 -0.5066  0.0018
 2013TIP3   OH227453   5.232   5.538  12.110 -0.3258 -0.0058  0.3032
 2013TIP3    H127454   5.323   5.569  12.121  0.0813 -1.0499 -0.0189
 2013TIP3    H227455   5.223   5.523  12.016 -0.4683 -0.9830  0.4651
 2014TIP3   OH227456   2.756   4.641  13.201  0.4830  0.1020 -0.6975
 2014TIP3    H127457   2.748   4.660  13.294  0.0649 -2.2541 -0.1828
 2014TIP3    H227458   2.770   4.726  13.160  2.3584  1.0455  1.6675
 2015TIP3   OH227459   6.227   1.134  11.566 -0.4359 -0.0875 -0.0929
 2015TIP3    H127460   6.171   1.212  11.576 -0.6626 -0.2706  0.0835
 2015TIP3    H227461   6.285   1.156  11.493  2.0319  1.7767  2.2001
 2016TIP3   OH227462   4.961   5.878  10.322 -0.4286  0.8151  0.0853
 2016TIP3    H127463   4.925   5.911  10.239 -1.4123  3.0416  1.2932
 2016TIP3    H227464   5.055   5.896  10.315 -0.2495 -0.3705 -1.0757
 2017TIP3   OH227465   0.705   0.825   1.576  0.3191 -0.1516 -0.0743
 2017TIP3    H127466   0.801   0.821   1.566  0.1795 -0.1476 -1.7441
 2017TIP3    H227467   0.683   0.916   1.553 -0.1914 -0.4910 -0.9597
 2018TIP3   OH227468   2.849   3.507   1.695 -0.1211  0.2922 -0.6113
 2018TIP3    H127469   2.934   3.464   1.700 -1.1641 -1.7375  2.0323
 2018TIP3    H227470   2.797   3.451   1.637 -0.6477 -0.4982  0.5887
 2019TIP3   OH227471   6.202   5.249  16.577  0.4658 -0.4102  0.6782
 2019TIP3    H127472   6.248   5.176  16.534 -0.8153 -0.6307 -0.3979
 2019TIP3    H227473   6.247   5.327  16.544  3.0100 -0.6559  3.2012
 2020TIP3   OH227474   6.058   5.947   1.456  0.5124  0.5455 -0.6884
 2020TIP3    H127475   5.970   5.974   1.481  0.7540  1.4759 -0.8146
 2020TIP3    H227476   6.045   5.868   1.403 -0.1932  0.2667 -0.1199
 2021TIP3   OH227477   5.120   6.780  15.715  1.2712 -0.3792  0.0580
 2021TIP3    H127478   5.166   6.745  15.639  0.7688 -1.5374  0.2714
 2021TIP3    H227479   5.184   6.773  15.786  1.8716  1.0503 -0.3092
 2022TIP3   OH227480   0.783   4.889   3.483 -0.6864 -0.1554 -0.0261
 2022TIP3    H127481   0.783   4.955   3.552 -0.2743 -0.0912 -0.0857
 2022TIP3    H227482   0.872   4.855   3.482 -0.4673  0.3967 -1.0474
 2023TIP3   OH227483   0.614   5.135   1.385  0.2674  0.3088 -0.3284
 2023TIP3    H127484   0.549   5.179   1.330 -1.8026  1.4479  2.7607
 2023TIP3    H227485   0.667   5.205   1.421  0.5221 -0.2470  0.3957
 2024TIP3   OH227486   2.508   5.564   2.428  0.4325  0.1998  0.3097
 2024TIP3    H127487   2.555   5.648   2.430 -1.7457  1.5474  3.8060
 2024TIP3    H227488   2.440   5.577   2.362 -0.1206  1.3760  1.0777
 2025TIP3   OH227489   5.013   5.946  14.394  0.9376 -0.7027  0.3035
 2025TIP3    H127490   5.025   5.862  14.438 -0.8483 -1.1868 -0.0383
 2025TIP3    H227491   4.978   5.924  14.308 -1.3294  0.3757  0.8576
 2026TIP3   OH227492   6.010   3.925   1.923  0.4486  0.1848  0.1607
 2026TIP3    H127493   6.029   3.885   2.008 -0.6072  0.7337  0.6800
 2026TIP3    H227494   6.011   3.852   1.861  1.0246 -0.2517  0.6748
 2027TIP3   OH227495   0.494   0.178  15.398 -0.4827 -0.1450  0.0645
 2027TIP3    H127496   0.431   0.122  15.442 -0.4092  0.2089  0.6286
 2027TIP3    H227497   0.480   0.161  15.305  0.7322 -2.4258  0.2216
 2028TIP3   OH227498   0.758   6.745  12.973 -0.0678  0.3877  0.6459
 2028TIP3    H127499   0.849   6.765  12.996  0.1335  0.3979 -0.1263
 2028TIP3    H227500   0.760   6.732  12.878 -0.3796 -2.2502  0.9430
 2029TIP3   OH227501   4.712   1.506  13.730 -0.4514 -0.6759  0.1706
 2029TIP3    H127502   4.707   1.451  13.652  0.0065  0.0685 -0.4013
 2029TIP3    H227503   4.624   1.505  13.766 -0.7276 -0.8442 -0.4904
 2030TIP3   OH227504   1.067   4.403  13.570 -0.0119 -0.1734  0.3166
 2030TIP3    H127505   1.109   4.483  13.539  0.4804  0.4916  2.5407
 2030TIP3    H227506   1.044   4.421  13.661 -0.4447 -2.3546  0.7074
 2031TIP3   OH227507   4.057   0.118  12.996 -0.0073 -0.7076 -0.0098
 2031TIP3    H127508   4.132   0.153  13.044  0.6156 -0.4105 -1.1392
 2031TIP3    H227509   4.001   0.194  12.981 -1.3383 -1.1861  2.1431
 2032TIP3   OH227510   0.884   1.504  12.831  0.3022 -0.3811 -0.4023
 2032TIP3    H127511   0.909   1.480  12.920 -0.1768  0.7676  0.0655
 2032TIP3    H227512   0.862   1.421  12.789 -1.0757 -0.7967  1.0517
 2033TIP3   OH227513   2.207   1.258   0.508  0.1445 -0.1378 -0.2710
 2033TIP3    H127514   2.234   1.170   0.534 -1.1220  0.1280  2.1882
 2033TIP3    H227515   2.277   1.315   0.541 -0.5049  0.0127  0.9142
 2034TIP3   OH227516   4.795   4.738   5.045  0.2512  0.3186 -0.6292
 2034TIP3    H127517   4.715   4.774   5.083 -0.3775 -1.1787 -0.4765
 2034TIP3    H227518   4.865   4.793   5.081 -0.6849  1.6093 -0.7158
 2035TIP3   OH227519   4.572   1.643   2.794  0.1710  0.2068  0.9504
 2035TIP3    H127520   4.506   1.686   2.739 -0.1165 -1.4330 -0.0606
 2035TIP3    H227521   4.521   1.587   2.853  0.5467  1.0047  2.0615
 2036TIP3   OH227522   0.495   6.016  17.044  0.4577 -0.2222  0.0503
 2036TIP3    H127523   0.522   6.106  17.062  1.5542 -0.6529  0.6567
 2036TIP3    H227524   0.413   6.025  16.995  0.5802  1.1000  0.0470
 2037TIP3   OH227525   4.072   2.421  14.460  0.3780  0.0221  0.4192
 2037TIP3    H127526   4.063   2.398  14.368  1.4304 -0.7151  0.4746
 2037TIP3    H227527   4.061   2.516  14.463  2.3083  0.3351 -0.7829
 2038TIP3   OH227528   1.909   3.664  16.318 -0.5381 -0.1634 -0.1776
 2038TIP3    H127529   1.875   3.587  16.365 -1.4319  0.3255  0.0098
 2038TIP3    H227530   1.874   3.739  16.367  0.5460  0.3763 -0.1991
 2039TIP3   OH227531   3.152   4.609  15.152 -0.1561  0.3126  0.4003
 2039TIP3    H127532   3.169   4.693  15.195 -0.2876 -0.0450  1.1756
 2039TIP3    H227533   3.064   4.617  15.116 -0.1549  0.5214  0.4467
 2040TIP3   OH227534   2.879   5.966   4.971 -0.8507 -0.3053  0.4305
 2040TIP3    H127535   2.809   6.026   4.998 -1.0233 -0.2198 -0.1796
 2040TIP3    H227536   2.875   5.967   4.875  0.0009 -0.2856  0.3881
 2041TIP3   OH227537   5.065   5.605   3.028 -0.0343  0.1239  0.5460
 2041TIP3    H127538   5.089   5.582   3.118 -2.6620 -3.8869  0.4374
 2041TIP3    H227539   4.990   5.664   3.037  0.7485  1.1018  0.8906
 2042TIP3   OH227540   5.018   2.098  11.863 -0.8034 -0.1422  0.9581
 2042TIP3    H127541   5.074   2.038  11.912  0.7641  1.4604  1.2512
 2042TIP3    H227542   5.040   2.081  11.771 -0.6855 -0.3081  1.0169
 2043TIP3   OH227543   3.899   3.316  14.611 -0.0724  0.1750  0.1921
 2043TIP3    H127544   3.936   3.267  14.538  1.9565  0.2516  1.0991
 2043TIP3    H227545   3.905   3.408  14.584 -0.3817  0.1429  0.0091
 2044TIP3   OH227546   4.692   6.095  14.061  0.0876  0.0075  0.1061
 2044TIP3    H127547   4.707   6.170  14.119  1.9914 -0.5658  0.4018
 2044TIP3    H227548   4.737   6.022  14.103 -0.8868 -1.0828 -0.6868
 2045TIP3   OH227549   0.594   3.062   5.944  0.0082 -0.5343 -0.5692
 2045TIP3    H127550   0.655   3.022   6.006  0.0019 -2.2754 -1.5891
 2045TIP3    H227551   0.513   3.074   5.993  0.7059  0.3477  0.3801
 2046TIP3   OH227552   0.777   3.623  11.805 -0.0030 -0.1148 -0.5970
 2046TIP3    H127553   0.866   3.596  11.825  0.2545  0.8572 -0.4173
 2046TIP3    H227554   0.727   3.602  11.884  0.0406 -0.7516 -0.7359
 2047TIP3   OH227555   5.221   3.820  13.857 -0.2915  0.3206 -0.0104
 2047TIP3    H127556   5.282   3.781  13.920  2.0213  2.7837 -0.5147
 2047TIP3    H227557   5.134   3.799  13.891  0.8404 -0.9975  2.3152
 2048TIP3   OH227558   4.108   6.637   5.990  0.0867 -0.1122 -0.2331
 2048TIP3    H127559   4.153   6.720   6.004 -0.2117  0.0452 -0.2011
 2048TIP3    H227560   4.102   6.628   5.895 -0.5173  0.2530 -0.2357
 2049TIP3   OH227561   6.174   4.356  13.420 -0.9015 -0.2071  0.1897
 2049TIP3    H127562   6.145   4.390  13.504  1.9319 -1.6873  1.9082
 2049TIP3    H227563   6.148   4.264  13.420 -0.8251 -0.2392 -0.5300
 2050TIP3   OH227564   0.623   2.639   0.866 -0.3948  0.2623  0.0827
 2050TIP3    H127565   0.634   2.570   0.800  0.2185  0.5496 -0.1203
 2050TIP3    H227566   0.558   2.698   0.828  0.4337  0.7834 -0.5755
 2051TIP3   OH227567   2.140   1.898  15.767 -0.4522  0.6596  0.5530
 2051TIP3    H127568   2.110   1.957  15.698 -2.9334  2.6695  3.1271
 2051TIP3    H227569   2.197   1.952  15.822  1.8656 -1.0299 -0.0393
 2052TIP3   OH227570   4.742   1.667  16.345 -0.1231  0.1060 -0.3376
 2052TIP3    H127571   4.713   1.717  16.268 -1.5698  0.9745  0.7111
 2052TIP3    H227572   4.693   1.706  16.418  2.3761  0.3686  1.3070
 2053TIP3   OH227573   5.190   2.061   6.304 -0.3240 -0.0491  0.1104
 2053TIP3    H127574   5.203   2.002   6.378  1.0203  0.7862  0.5791
 2053TIP3    H227575   5.156   2.006   6.234 -0.3895 -1.0972  0.9525
 2054TIP3   OH227576   2.979   2.054   4.062 -0.0612 -0.5775 -0.5581
 2054TIP3    H127577   2.936   2.055   4.147 -0.5336  0.8477 -0.7877
 2054TIP3    H227578   2.909   2.073   3.999 -0.0165 -3.0023 -1.4655
 2055TIP3   OH227579   2.139   5.001   1.413  0.3022  0.2121 -0.0666
 2055TIP3    H127580   2.169   4.933   1.353  1.5659 -1.6983  2.5314
 2055TIP3    H227581   2.218   5.025   1.463 -0.4295  2.6194  0.0482
 2056TIP3   OH227582   4.794   5.339   5.324 -0.3672  0.1834  0.0539
 2056TIP3    H127583   4.771   5.247   5.308  1.8119 -0.5943  1.0325
 2056TIP3    H227584   4.857   5.360   5.256  1.6983 -0.1664  1.7539
 2057TIP3   OH227585   1.878   6.107   0.218  0.0317  0.6885 -0.1724
 2057TIP3    H127586   1.884   6.087   0.311 -1.3102  1.1110  0.0214
 2057TIP3    H227587   1.794   6.072   0.190  1.3348 -1.4022 -1.7689
 2058TIP3   OH227588   6.593   1.197   1.019 -0.2620  0.3340  0.0043
 2058TIP3    H127589   6.608   1.104   1.038 -0.8988  0.0287 -0.8989
 2058TIP3    H227590   6.653   1.243   1.077 -0.2964 -0.6275  0.8323
 2059TIP3   OH227591   2.511   2.122   2.207  0.0235  0.2191 -0.1128
 2059TIP3    H127592   2.470   2.195   2.254  0.1646  0.4907 -0.4104
 2059TIP3    H227593   2.591   2.160   2.171 -0.6928  0.3551 -1.6394
 2060TIP3   OH227594   2.238   0.314   4.551  0.1567  0.4848  0.1008
 2060TIP3    H127595   2.252   0.407   4.570 -0.0648  0.7563 -1.0090
 2060TIP3    H227596   2.188   0.282   4.625 -1.5676  1.7490 -0.4508
 2061TIP3   OH227597   0.928   2.534   5.012  0.2389 -0.0538 -0.4307
 2061TIP3    H127598   0.850   2.588   5.023  1.3193  1.6308 -0.7411
 2061TIP3    H227599   0.970   2.534   5.098 -0.1536 -1.0757 -0.2267
 2062TIP3   OH227600   5.631   5.867  15.626 -0.5388 -0.8103 -0.4185
 2062TIP3    H127601   5.621   5.914  15.543  0.8603 -1.1646 -0.8179
 2062TIP3    H227602   5.551   5.886  15.674  0.1963  2.5003 -0.2797
 2063TIP3   OH227603   0.401   4.953  12.515 -0.1614  0.2662  0.7433
 2063TIP3    H127604   0.391   4.901  12.435  1.5341  0.4935  0.3411
 2063TIP3    H227605   0.472   5.014  12.494 -0.6243  1.2595  1.9685
 2064TIP3   OH227606   5.941   4.388   1.336 -0.2729 -0.2195 -0.2021
 2064TIP3    H127607   6.019   4.338   1.360 -1.0664 -1.7045 -0.6023
 2064TIP3    H227608   5.974   4.472   1.305  1.1591 -0.8067 -0.3038
 2065TIP3   OH227609   0.010   6.221   2.323 -0.3421 -0.9008 -0.5291
 2065TIP3    H127610  -0.035   6.204   2.240  1.3787 -0.5928 -1.5665
 2065TIP3    H227611   0.056   6.303   2.309 -1.1370 -0.0886  1.2519
 2066TIP3   OH227612   1.828   2.166   6.074  0.1635  0.1895  0.3286
 2066TIP3    H127613   1.755   2.216   6.036  0.3910 -0.5674 -1.1676
 2066TIP3    H227614   1.786   2.103   6.132 -0.1223  2.2589  2.5666
 2067TIP3   OH227615   0.147   4.796  10.583 -0.9612 -0.3372 -0.6850
 2067TIP3    H127616   0.139   4.723  10.645 -1.0533  0.4655  0.2816
 2067TIP3    H227617   0.076   4.856  10.608 -0.2151  0.5893 -0.7359
 2068TIP3   OH227618   3.731   1.233   2.067  0.1960 -0.3534  0.1273
 2068TIP3    H127619   3.640   1.205   2.080  0.5747 -1.3020  0.9213
 2068TIP3    H227620   3.726   1.328   2.059 -0.8208 -0.3433  0.6712
 2069TIP3   OH227621   1.379   2.877   5.770 -0.3248  0.0380  0.1767
 2069TIP3    H127622   1.367   2.845   5.860  1.0392 -0.9075  0.0565
 2069TIP3    H227623   1.290   2.881   5.734 -1.0487  1.7431  1.9704
 2070TIP3   OH227624   5.829   0.362   5.118  0.5302 -0.2148 -0.6024
 2070TIP3    H127625   5.857   0.409   5.197 -0.0362 -1.2217  0.2146
 2070TIP3    H227626   5.819   0.431   5.052  0.8274  0.6702  0.2510
 2071TIP3   OH227627   6.621   2.178  14.643  0.3244 -0.2582  0.0714
 2071TIP3    H127628   6.607   2.098  14.695  1.5157 -1.2465 -1.0550
 2071TIP3    H227629   6.544   2.183  14.587  0.1481 -0.5084  0.2877
 2072TIP3   OH227630   2.498   6.323   3.944 -0.2767 -0.5296 -0.1278
 2072TIP3    H127631   2.539   6.301   3.860  0.7175 -0.5020  0.3443
 2072TIP3    H227632   2.495   6.241   3.992 -0.8061 -0.5362 -0.1627
 2073TIP3   OH227633   3.810   0.336  12.731  0.4153  0.1787 -0.4389
 2073TIP3    H127634   3.763   0.333  12.814 -0.9504 -0.2949 -1.2138
 2073TIP3    H227635   3.838   0.428  12.723  1.8110 -0.0481  1.1881
 2074TIP3   OH227636   1.653   3.850   1.132 -0.4971  0.3997  0.3711
 2074TIP3    H127637   1.600   3.924   1.102  0.6715  1.0544 -0.1815
 2074TIP3    H227638   1.744   3.880   1.121  0.0007 -0.3259  2.1221
 2075TIP3   OH227639   3.826   5.796   5.865  0.3689 -0.3221 -0.9253
 2075TIP3    H127640   3.853   5.852   5.938  1.4299  0.6680 -2.0305
 2075TIP3    H227641   3.731   5.805   5.862  0.3515 -0.0625  0.0808
 2076TIP3   OH227642   5.130   4.973   4.036  0.3473  0.1376  0.4310
 2076TIP3    H127643   5.184   4.920   3.978  1.9300  0.8426  1.2075
 2076TIP3    H227644   5.052   4.993   3.985  0.6433 -1.2232 -0.5850
 2077TIP3   OH227645   5.494   2.338  13.945 -0.6327 -0.1528  0.4508
 2077TIP3    H127646   5.468   2.263  13.891 -0.5096 -0.1613  0.4036
 2077TIP3    H227647   5.412   2.384  13.963 -0.4593  0.8788 -1.2473
 2078TIP3   OH227648   5.659   5.939  10.666  0.5830 -0.2066  0.0798
 2078TIP3    H127649   5.747   5.936  10.627 -0.3070 -0.3484 -2.0466
 2078TIP3    H227650   5.635   5.847  10.676  0.5083 -0.1676  0.2498
 2079TIP3   OH227651   6.751   3.584  14.914  0.1630  0.1260 -0.0727
 2079TIP3    H127652   6.729   3.492  14.897 -0.1591 -0.0848  1.3468
 2079TIP3    H227653   6.802   3.611  14.838  1.3991 -1.6257  0.0694
 2080TIP3   OH227654   1.364   6.597  16.932  0.4010  0.4583 -0.0321
 2080TIP3    H127655   1.447   6.637  16.905  1.1424 -0.1542  1.2810
 2080TIP3    H227656   1.356   6.618  17.025 -1.1804  0.9288 -0.2333
 2081TIP3   OH227657   1.473   0.931   4.222 -0.1070 -0.1955  0.4688
 2081TIP3    H127658   1.428   0.847   4.231 -3.5894  1.5924  1.2142
 2081TIP3    H227659   1.475   0.947   4.127  0.0516 -0.8315  0.3585
 2082TIP3   OH227660   1.552   1.056   2.269 -0.1753  0.0756  0.3145
 2082TIP3    H127661   1.579   1.146   2.290  3.6885 -0.6363 -0.7807
 2082TIP3    H227662   1.508   1.063   2.185  3.9225  0.7005 -2.0199
 2083TIP3   OH227663   5.989   5.476   2.267 -0.4049 -0.4620 -0.2797
 2083TIP3    H127664   5.933   5.405   2.236 -0.2515 -0.4521 -0.5812
 2083TIP3    H227665   6.076   5.437   2.275 -1.0826 -1.6186  4.0083
 2084TIP3   OH227666   4.449   5.668  16.407  0.0472 -0.5400 -0.0947
 2084TIP3    H127667   4.400   5.586  16.412  1.1016 -1.2252 -0.5052
 2084TIP3    H227668   4.541   5.640  16.400  0.4077  0.6773 -0.4185
 2085TIP3   OH227669   1.586   5.427   4.124  0.0816 -0.2340  0.4909
 2085TIP3    H127670   1.498   5.394   4.142  0.6548 -0.7801  2.6115
 2085TIP3    H227671   1.645   5.364   4.166  1.4735  0.3152 -0.5573
 2086TIP3   OH227672   4.143   5.164   5.113 -0.8787 -0.9137  0.1363
 2086TIP3    H127673   4.097   5.240   5.147  1.2596  1.6274 -2.1412
 2086TIP3    H227674   4.094   5.139   5.035  1.0123  1.5034 -2.0233
 2087TIP3   OH227675   0.209   3.996  15.709 -0.1593 -0.7626  0.2376
 2087TIP3    H127676   0.241   4.056  15.776 -1.6320 -0.2848  0.5476
 2087TIP3    H227677   0.283   3.985  15.649  0.7954 -0.2759  1.2959
 2088TIP3   OH227678   5.483   3.386  15.357  0.0626  0.1308 -0.3239
 2088TIP3    H127679   5.411   3.330  15.327 -0.5179  0.6483  0.0685
 2088TIP3    H227680   5.557   3.326  15.369 -0.0646 -0.2967 -1.4910
 2089TIP3   OH227681   4.860   5.958  12.200 -0.0405  0.1744  0.1248
 2089TIP3    H127682   4.950   5.963  12.167 -0.4194  0.4351 -0.9202
 2089TIP3    H227683   4.838   5.865  12.195  0.5862 -0.0871  1.6066
 2090TIP3   OH227684   0.211   2.149  15.358 -0.1355 -0.1121 -0.0586
 2090TIP3    H127685   0.251   2.069  15.325 -0.3687 -0.8295  1.3376
 2090TIP3    H227686   0.117   2.136  15.345 -0.1382  0.1668 -0.3217
 2091TIP3   OH227687   2.101   5.805   3.564 -0.2856 -0.0043 -0.4083
 2091TIP3    H127688   2.012   5.839   3.572 -0.6567 -1.4409  2.9024
 2091TIP3    H227689   2.155   5.883   3.553 -1.6626  1.1738  0.7917
 2092TIP3   OH227690   3.248   1.312  12.618  0.0226 -0.4909  0.1483
 2092TIP3    H127691   3.305   1.236  12.622  1.0220 -0.1266 -3.5103
 2092TIP3    H227692   3.289   1.376  12.676 -0.3442 -2.3088  2.5674
 2093TIP3   OH227693   3.311   1.119   2.038  0.2079 -0.1598 -0.2166
 2093TIP3    H127694   3.297   1.034   1.995  0.5915 -1.4867  2.1203
 2093TIP3    H227695   3.397   1.111   2.079  0.7591  1.8293 -0.8707
 2094TIP3   OH227696   3.449   4.896  15.500 -0.5682 -0.0678  0.3662
 2094TIP3    H127697   3.519   4.831  15.497  1.8123  2.1811  2.3714
 2094TIP3    H227698   3.413   4.896  15.411  1.2412 -2.1013 -0.4636
 2095TIP3   OH227699   0.772   3.167  14.783 -0.6422 -0.2405 -0.0549
 2095TIP3    H127700   0.855   3.189  14.827 -0.5814  1.5456 -0.9604
 2095TIP3    H227701   0.743   3.087  14.826  2.1643 -1.6468 -0.5512
 2096TIP3   OH227702   3.325   5.984  14.906  0.0740  0.0020 -0.2418
 2096TIP3    H127703   3.231   5.965  14.907 -0.2803  1.5970  0.8315
 2096TIP3    H227704   3.334   6.056  14.843 -0.1847  2.9137  2.7639
 2097TIP3   OH227705   5.059   1.134   2.137 -0.3352  0.2109 -0.2180
 2097TIP3    H127706   5.089   1.207   2.084  0.0955  0.2381  0.0563
 2097TIP3    H227707   5.139   1.085   2.158 -0.2134  1.2133  1.9246
 2098TIP3   OH227708   6.363   5.544   1.395  0.4593  0.4594 -0.2231
 2098TIP3    H127709   6.440   5.601   1.395  0.1434  0.9027 -1.1278
 2098TIP3    H227710   6.396   5.460   1.363  0.6601  0.5110 -0.1556
 2099TIP3   OH227711   4.126   4.131  16.258  0.3308 -0.0780 -0.4029
 2099TIP3    H127712   4.188   4.092  16.320  2.3357  1.2359 -1.4690
 2099TIP3    H227713   4.106   4.217  16.295  0.6758  0.2724 -1.0183
 2100TIP3   OH227714   0.089   2.436  16.224 -0.9333  0.3311 -0.5391
 2100TIP3    H127715   0.115   2.369  16.286 -0.5171 -0.8767 -1.9627
 2100TIP3    H227716  -0.006   2.439  16.229 -0.8861  0.4157  0.3129
 2101TIP3   OH227717   2.766   4.652   1.022 -0.5193  0.6045  0.3656
 2101TIP3    H127718   2.758   4.688   0.934 -2.1851  1.4804  0.8252
 2101TIP3    H227719   2.747   4.726   1.080  1.4185  0.2820  1.5292
 2102TIP3   OH227720   1.692   4.646   0.548 -0.0460 -0.2538  0.2517
 2102TIP3    H127721   1.760   4.660   0.482 -1.1535  1.1082 -0.6602
 2102TIP3    H227722   1.651   4.563   0.522  0.3223 -0.3406 -0.0639
 2103TIP3   OH227723   0.711   5.175  13.344 -0.1871 -0.5127  0.3293
 2103TIP3    H127724   0.725   5.243  13.409 -0.2579 -0.2298  0.0542
 2103TIP3    H227725   0.656   5.217  13.277 -1.0741 -1.1361  0.6437
 2104TIP3   OH227726   6.450   1.678  11.249  1.3432  0.1394  0.1440
 2104TIP3    H127727   6.516   1.609  11.261 -0.1757 -1.1143  1.8151
 2104TIP3    H227728   6.406   1.656  11.168  0.3768 -1.3411  1.0347
 2105TIP3   OH227729   0.700   6.423  16.431 -0.1579  0.2484  0.6096
 2105TIP3    H127730   0.795   6.418  16.417 -0.0686  1.0244  0.9174
 2105TIP3    H227731   0.663   6.421  16.343  0.2307  1.6633  0.3966
 2106TIP3   OH227732   1.920   3.457   4.559 -0.3502  0.0170  0.4163
 2106TIP3    H127733   1.901   3.549   4.578 -0.0750  0.0777  0.4007
 2106TIP3    H227734   2.001   3.439   4.607 -0.8336 -0.4401  1.0699
 2107TIP3   OH227735   4.522   3.132   6.023  0.4243  0.4218 -0.0992
 2107TIP3    H127736   4.476   3.061   5.979 -0.9167  1.4214 -0.3746
 2107TIP3    H227737   4.513   3.111   6.116  1.4943 -0.6255 -0.2114
 2108TIP3   OH227738   1.479   4.630  13.032 -0.0916 -0.1341  0.4835
 2108TIP3    H127739   1.429   4.576  13.093 -2.3984  0.0213 -1.1564
 2108TIP3    H227740   1.414   4.687  12.991  1.3536 -0.1574 -2.0452
 2109TIP3   OH227741   5.937   0.064  12.000  0.5724 -0.5287  0.2191
 2109TIP3    H127742   5.901  -0.018  12.034 -0.9051  0.2848  0.6927
 2109TIP3    H227743   5.861   0.112  11.967  1.5185  0.2892 -0.8710
 2110TIP3   OH227744   4.430   4.557  14.010  0.2446 -0.2947  0.0868
 2110TIP3    H127745   4.348   4.533  14.052 -0.0988 -1.3593 -1.1583
 2110TIP3    H227746   4.406   4.626  13.948  0.5349  0.3679  0.7001
 2111TIP3   OH227747   0.821   4.858  14.438 -0.1819  0.0832  0.0570
 2111TIP3    H127748   0.818   4.899  14.525 -0.2833 -1.0620  0.6131
 2111TIP3    H227749   0.847   4.767  14.455 -3.0023 -1.0026 -0.7604
 2112TIP3   OH227750   4.712   2.785   2.730  0.0162  0.0005 -0.4299
 2112TIP3    H127751   4.704   2.736   2.648  2.2320 -0.2230 -0.5903
 2112TIP3    H227752   4.743   2.871   2.703  0.6705 -0.0450  0.1497
 2113TIP3   OH227753   5.233   4.303  13.281  0.6061 -0.1944 -0.4320
 2113TIP3    H127754   5.259   4.291  13.372 -1.1674  1.9184  0.4378
 2113TIP3    H227755   5.260   4.392  13.260  1.8808 -0.9763 -2.3454
 2114TIP3   OH227756   4.936   1.700   2.204 -0.0588 -0.6489 -0.3847
 2114TIP3    H127757   4.948   1.738   2.291  0.6560  1.2894 -1.2713
 2114TIP3    H227758   5.018   1.720   2.158 -0.4215 -1.6517 -1.5093
 2115TIP3   OH227759   3.836   3.993   6.104  0.5832  0.9188  0.1285
 2115TIP3    H127760   3.803   3.904   6.091 -0.9378  1.4909 -0.0944
 2115TIP3    H227761   3.858   3.997   6.197 -1.5252  0.9788  0.6749
 2116TIP3   OH227762   2.491   0.663   1.300  0.4034  0.8631 -0.0353
 2116TIP3    H127763   2.586   0.649   1.295  0.1254 -1.8834  0.8029
 2116TIP3    H227764   2.461   0.656   1.209  0.7741 -0.7073 -0.0682
 2117TIP3   OH227765   0.821   0.494  11.922  0.4986 -0.1568 -0.2233
 2117TIP3    H127766   0.769   0.518  11.845  1.6600 -0.8225 -1.2498
 2117TIP3    H227767   0.801   0.402  11.937  0.1887  0.0005  0.3567
 2118TIP3   OH227768   2.314   1.701  14.421 -0.0782  0.1480  0.4103
 2118TIP3    H127769   2.407   1.715  14.436 -0.0156 -0.5056  0.6352
 2118TIP3    H227770   2.273   1.717  14.506 -0.0987 -0.1996  0.4671
 2119TIP3   OH227771   0.398   5.627  14.952  0.4566  0.3763  0.6529
 2119TIP3    H127772   0.375   5.682  15.027  0.5269  0.7430  0.4070
 2119TIP3    H227773   0.430   5.546  14.991 -2.2379 -0.5979  1.0466
 2120TIP3   OH227774   6.682   0.901  13.438 -0.3776 -0.4812  0.1506
 2120TIP3    H127775   6.724   0.904  13.524  1.4068 -1.7640 -0.6259
 2120TIP3    H227776   6.626   0.822  13.442  0.7696 -1.3437 -0.2891
 2121TIP3   OH227777   6.102   0.845  11.089  0.0784 -0.2502  0.4161
 2121TIP3    H127778   6.031   0.788  11.121  0.7834 -3.7931 -3.4692
 2121TIP3    H227779   6.092   0.845  10.994  3.9021  1.0743 -0.1611
 2122TIP3   OH227780   2.806   2.914  13.770  0.0621 -0.0615  0.2048
 2122TIP3    H127781   2.874   2.881  13.711 -0.4918  0.3389 -0.6755
 2122TIP3    H227782   2.786   2.841  13.827  0.4358 -0.5358 -0.2610
 2123TIP3   OH227783   5.055   2.688  15.647 -0.3437 -0.5798 -0.5157
 2123TIP3    H127784   5.057   2.596  15.674  0.6204 -0.9475 -1.7510
 2123TIP3    H227785   4.998   2.731  15.711  1.1122 -1.5600  1.5415
 2124TIP3   OH227786   0.304   0.899   1.460 -0.4353  0.0622 -0.1331
 2124TIP3    H127787   0.215   0.891   1.493 -0.0144  1.4184  1.4644
 2124TIP3    H227788   0.350   0.953   1.525  1.4993 -0.4061 -1.0167
 2125TIP3   OH227789   0.544   0.587  11.825  0.1180 -0.1926 -0.3618
 2125TIP3    H127790   0.493   0.647  11.880  2.1521  0.9860  0.3304
 2125TIP3    H227791   0.480   0.549  11.765 -2.0282 -0.6851  2.0607
 2126TIP3   OH227792   5.837   6.710   0.984 -0.4265 -0.3428 -0.3292
 2126TIP3    H127793   5.857   6.775   1.052 -1.4260  1.1212 -1.3764
 2126TIP3    H227794   5.859   6.754   0.902 -1.0487 -1.3623 -1.0630
 2127TIP3   OH227795   4.505   0.914  12.957 -0.3087  0.2324  0.7236
 2127TIP3    H127796   4.513   0.833  12.906 -0.3195  1.9345 -2.1961
 2127TIP3    H227797   4.595   0.937  12.979 -0.2674 -0.2851  1.1172
 2128TIP3   OH227798   4.357   2.381   0.580  0.3389 -0.4094  0.8524
 2128TIP3    H127799   4.409   2.325   0.522  0.9895 -1.6789  2.6006
 2128TIP3    H227800   4.273   2.336   0.589 -0.6536  0.9528 -0.8674
 2129TIP3   OH227801   2.250   5.769  14.654 -0.1222  0.1872 -0.1707
 2129TIP3    H127802   2.336   5.728  14.663  0.0239  0.4345 -0.4338
 2129TIP3    H227803   2.268   5.863  14.649 -0.3795  0.2218 -0.4997
 2130TIP3   OH227804   0.190   2.966   0.627 -0.4616  0.0736  0.5702
 2130TIP3    H127805   0.217   2.876   0.614 -0.5023 -0.0023  0.9967
 2130TIP3    H227806   0.103   2.959   0.667 -1.1418  0.3098 -0.8048
 2131TIP3   OH227807   2.309   1.604  13.789 -0.0767  0.0147 -0.3748
 2131TIP3    H127808   2.391   1.653  13.803 -0.4515  0.6592 -0.4051
 2131TIP3    H227809   2.274   1.592  13.877 -0.2401  0.2482 -0.4073
 2132TIP3   OH227810   4.405   5.741   2.691  0.4390  0.1812  0.2336
 2132TIP3    H127811   4.341   5.785   2.747  1.8739  0.7263  1.4964
 2132TIP3    H227812   4.400   5.789   2.608  0.6033  1.5259  0.9664
 2133TIP3   OH227813   0.322   3.540  12.973  0.1699  0.2275  0.0596
 2133TIP3    H127814   0.369   3.468  13.015 -1.4925 -0.7336  0.3790
 2133TIP3    H227815   0.231   3.529  13.002 -0.2486  2.0615 -0.4442
 2134TIP3   OH227816   2.926   6.274   3.534 -0.2051  0.4855  0.0692
 2134TIP3    H127817   2.916   6.359   3.576  3.1605  0.4536  1.2237
 2134TIP3    H227818   2.924   6.211   3.607  0.5911 -0.0644 -0.3647
 2135TIP3   OH227819   3.898   6.537   3.119  0.5507 -0.2514  0.3621
 2135TIP3    H127820   3.856   6.599   3.179  0.8252 -0.5531  0.8685
 2135TIP3    H227821   3.833   6.524   3.050  0.6829  0.9785 -0.0136
 2136TIP3   OH227822   0.431   5.024  14.448  0.3677 -0.0793  0.3053
 2136TIP3    H127823   0.496   4.965  14.410  0.1675 -0.6419  0.8180
 2136TIP3    H227824   0.444   5.016  14.543 -0.8306 -0.6612  0.4438
 2137TIP3   OH227825   3.935   2.318   3.014 -0.5303 -0.6940 -0.2286
 2137TIP3    H127826   3.986   2.238   3.025 -1.7607 -1.2997  1.5082
 2137TIP3    H227827   3.943   2.364   3.098 -0.6983  0.5043 -0.8414
 2138TIP3   OH227828   1.174   1.757   0.656 -0.0946  0.2251 -0.0753
 2138TIP3    H127829   1.160   1.711   0.572 -0.5722  0.6426 -0.2313
 2138TIP3    H227830   1.211   1.690   0.714  1.0359  0.1443 -0.8578
 2139TIP3   OH227831   1.206   4.181   6.197  0.3039 -0.1409  0.0753
 2139TIP3    H127832   1.283   4.237   6.189 -0.4931  1.2475  1.6041
 2139TIP3    H227833   1.163   4.210   6.278 -0.7576 -2.2171  0.3274
 2140TIP3   OH227834   0.040   2.394   4.004 -0.4156  0.3722  0.5976
 2140TIP3    H127835  -0.007   2.362   4.081 -1.9690  1.0919 -0.0075
 2140TIP3    H227836  -0.027   2.401   3.936  0.5391  1.5619 -0.2752
 2141TIP3   OH227837   3.402   3.786  15.961  0.6675  0.3734 -0.4079
 2141TIP3    H127838   3.356   3.715  16.005  1.6131 -0.2993 -0.4834
 2141TIP3    H227839   3.356   3.796  15.877  0.4465 -0.0511 -0.3388
 2142TIP3   OH227840   6.164   5.666   6.789 -0.0695 -0.0448 -0.1830
 2142TIP3    H127841   6.122   5.743   6.750 -0.8631 -0.1117  0.5088
 2142TIP3    H227842   6.251   5.697   6.816 -0.3797  0.6086  0.0764
 2143TIP3   OH227843   2.773   2.714  13.943 -0.6372 -0.2563  0.1597
 2143TIP3    H127844   2.810   2.626  13.943 -1.6663 -0.7642 -2.2185
 2143TIP3    H227845   2.684   2.702  13.979  0.0262  0.2942  2.1375
 2144TIP3   OH227846   3.548   2.863  14.660  0.5665 -0.2034  0.0053
 2144TIP3    H127847   3.588   2.901  14.583 -1.6162 -1.7523 -2.0303
 2144TIP3    H227848   3.512   2.938  14.708 -0.0436  0.6463 -1.7100
 2145TIP3   OH227849   5.151   1.693   2.699 -0.0165 -0.3286  0.8108
 2145TIP3    H127850   5.230   1.689   2.645 -0.5547 -0.1842 -0.0101
 2145TIP3    H227851   5.109   1.608   2.685 -0.8132  0.1788 -0.0492
 2146TIP3   OH227852   3.207   1.627   5.768  0.0450  0.3515 -0.3842
 2146TIP3    H127853   3.179   1.694   5.706  1.6263  0.5050 -0.9846
 2146TIP3    H227854   3.296   1.652   5.792  0.4977 -1.2561 -0.2503
 2147TIP3   OH227855   5.261   1.376  15.127 -0.1088 -0.5150  0.3948
 2147TIP3    H127856   5.248   1.456  15.178 -1.6418  1.0262 -2.1835
 2147TIP3    H227857   5.336   1.394  15.071 -0.5957 -0.7895 -0.3610
 2148TIP3   OH227858   2.542   3.836  14.828 -0.1042  0.2171 -0.3612
 2148TIP3    H127859   2.635   3.858  14.822  0.3875 -1.8148 -1.2268
 2148TIP3    H227860   2.509   3.889  14.900  1.3609  2.0976 -0.9829
 2149TIP3   OH227861   4.427   6.096   5.108  0.9013 -0.1583 -0.3525
 2149TIP3    H127862   4.466   6.010   5.119  0.1694 -0.7657 -2.1325
 2149TIP3    H227863   4.489   6.156   5.149  0.8153 -1.5909  2.0928
 2150TIP3   OH227864   6.547   5.705  14.158 -0.0202 -0.5578 -0.4488
 2150TIP3    H127865   6.483   5.640  14.130  1.2662 -1.4495 -1.4021
 2150TIP3    H227866   6.495   5.771  14.204 -1.5225 -1.5947 -0.5863
 2151TIP3   OH227867   4.717   0.576  12.696 -0.1310 -0.0757 -0.1487
 2151TIP3    H127868   4.797   0.606  12.739 -0.1950 -0.0288 -0.0618
 2151TIP3    H227869   4.745   0.505  12.638 -0.2121 -0.9109  0.8081
 2152TIP3   OH227870   4.198   6.233   0.966  0.2234 -0.5946  0.4035
 2152TIP3    H127871   4.120   6.198   1.009  0.9012 -0.5114  1.7520
 2152TIP3    H227872   4.201   6.188   0.881  0.1103 -2.5459  1.3753
 2153TIP3   OH227873   4.163   1.391   6.610 -0.5086 -0.1848 -0.2165
 2153TIP3    H127874   4.083   1.381   6.559 -2.8803  1.2762  2.8426
 2153TIP3    H227875   4.184   1.303   6.640 -0.7665 -0.6178 -1.2650
 2154TIP3   OH227876   4.371   0.208   2.143 -0.3093  0.2773  0.1688
 2154TIP3    H127877   4.305   0.256   2.094  0.1284 -1.8248 -2.7270
 2154TIP3    H227878   4.332   0.122   2.158  1.4168 -0.7615 -0.9692
 2155TIP3   OH227879   2.711   3.326  16.135  0.0006 -0.3771  0.0191
 2155TIP3    H127880   2.756   3.382  16.071 -0.6015 -0.4021 -0.4397
 2155TIP3    H227881   2.781   3.289  16.188  0.4055  1.0845  0.5602
 2156TIP3   OH227882   6.568   1.924  12.294 -0.3307 -0.1272  0.9807
 2156TIP3    H127883   6.598   1.846  12.341 -0.0552 -1.1163 -0.7427
 2156TIP3    H227884   6.500   1.892  12.236  1.5642  0.3130 -1.6948
 2157TIP3   OH227885   3.062   2.106   3.420 -0.0567  0.1268 -0.1624
 2157TIP3    H127886   3.056   2.199   3.440  1.9740  0.3151 -0.1655
 2157TIP3    H227887   2.982   2.086   3.372 -0.4140  1.9351 -0.3866
 2158TIP3   OH227888   1.068   2.680  13.929  0.0380  0.5969  0.3101
 2158TIP3    H127889   0.990   2.680  13.874  0.4858  1.0945 -0.3446
 2158TIP3    H227890   1.038   2.645  14.013 -0.2897 -1.8135 -0.7369
 2159TIP3   OH227891   4.228   5.009   3.849 -0.4402 -0.2264  0.1162
 2159TIP3    H127892   4.272   4.995   3.932  0.2541  0.0139 -0.2075
 2159TIP3    H227893   4.137   4.983   3.865 -0.5923  0.9469  1.2781
 2160TIP3   OH227894   2.341   2.367  15.204  0.0236  0.1528 -0.5149
 2160TIP3    H127895   2.288   2.447  15.207  0.5342  0.4690  0.1472
 2160TIP3    H227896   2.302   2.310  15.271  1.3256  0.9019  0.9193
 2161TIP3   OH227897   6.555   3.843   4.308 -0.5516  0.6338  0.0292
 2161TIP3    H127898   6.489   3.777   4.284 -1.2705  0.6908  1.7214
 2161TIP3    H227899   6.504   3.915   4.346  0.3494  1.5266 -0.4186
 2162TIP3   OH227900   2.387   6.599   2.984 -0.2364 -0.2862 -0.0350
 2162TIP3    H127901   2.405   6.534   3.052  1.6773 -1.3564 -1.4640
 2162TIP3    H227902   2.422   6.681   3.020  0.7735 -0.8369  0.2933
 2163TIP3   OH227903   0.871   3.909   4.347  0.5642 -0.4210  0.2618
 2163TIP3    H127904   0.834   3.982   4.398  4.1415  1.4388  0.4808
 2163TIP3    H227905   0.924   3.860   4.409  1.3022 -0.9040 -0.7236
 2164TIP3   OH227906   2.500   3.393  12.118  0.3486  0.3317  0.4552
 2164TIP3    H127907   2.453   3.381  12.201  0.3970  3.0148  0.9855
 2164TIP3    H227908   2.564   3.462  12.137  0.1992  1.1968 -1.8764
 2165TIP3   OH227909   1.472   0.222   2.586  0.5998  0.0625  0.2389
 2165TIP3    H127910   1.465   0.261   2.673  2.2702 -0.5554  0.6785
 2165TIP3    H227911   1.521   0.286   2.535  0.4031  0.0214 -0.0044
 2166TIP3   OH227912   5.556   2.847   3.481  0.2470  0.6721  0.3207
 2166TIP3    H127913   5.466   2.842   3.447  0.1633  2.1131  0.2773
 2166TIP3    H227914   5.562   2.934   3.519  1.6863  0.6398  0.2057
 2167TIP3   OH227915   4.221   5.522  14.994  0.2947 -0.2764  0.3310
 2167TIP3    H127916   4.161   5.583  14.951  1.1872  0.7446  0.5003
 2167TIP3    H227917   4.217   5.546  15.086  1.5832  0.3758  0.2376
 2168TIP3   OH227918   6.448   4.083  11.785  0.4918 -0.1154  0.3970
 2168TIP3    H127919   6.387   4.017  11.753 -0.1247  0.5749  0.1194
 2168TIP3    H227920   6.393   4.157  11.810  1.0154 -0.2990  2.2668
 2169TIP3   OH227921   3.248   3.396   3.160 -0.0984  0.2279  0.4913
 2169TIP3    H127922   3.214   3.474   3.204 -0.8814 -0.8177  1.8206
 2169TIP3    H227923   3.171   3.357   3.118 -0.0328 -0.6463  1.1487
 2170TIP3   OH227924   2.065   0.064  15.163  0.5533 -0.1711  0.1291
 2170TIP3    H127925   2.149   0.058  15.208  1.5458 -0.5475 -1.6861
 2170TIP3    H227926   2.049  -0.024  15.128 -1.0987 -0.3627  1.2524
 2171TIP3   OH227927   2.486   6.728   0.449 -0.6774 -0.3841 -0.5736
 2171TIP3    H127928   2.483   6.762   0.538 -1.9200 -0.4396 -0.5768
 2171TIP3    H227929   2.570   6.683   0.443 -0.4381 -0.0980  0.4583
 2172TIP3   OH227930   1.811   1.968   0.473 -0.0421 -0.4350  0.0970
 2172TIP3    H127931   1.843   1.903   0.411 -1.8077 -0.6624 -0.6392
 2172TIP3    H227932   1.817   1.925   0.558  1.1880 -0.5925 -0.0466
 2173TIP3   OH227933   2.295   4.431  16.389  0.1239  0.3113  0.3142
 2173TIP3    H127934   2.362   4.372  16.355 -1.4480 -2.5363  1.7829
 2173TIP3    H227935   2.268   4.391  16.471  0.4310  4.3199  2.6309
 2174TIP3   OH227936   4.929   3.593  14.684  0.0290  0.0124  0.5165
 2174TIP3    H127937   5.013   3.638  14.696  0.7782 -0.6347 -1.8661
 2174TIP3    H227938   4.870   3.660  14.649  0.0283  0.0482  0.5850
 2175TIP3   OH227939   1.111   4.340   3.755 -0.1788 -0.2107  0.1208
 2175TIP3    H127940   1.111   4.425   3.798 -1.0112 -0.3335  0.3648
 2175TIP3    H227941   1.034   4.340   3.699  0.2483 -0.5067 -0.4847
 2176TIP3   OH227942   5.003   6.139  13.668  0.2950  0.4906  0.6644
 2176TIP3    H127943   4.926   6.188  13.641 -0.7651 -1.2788  0.2996
 2176TIP3    H227944   5.076   6.185  13.628 -0.8531  0.5489 -1.4980
 2177TIP3   OH227945   2.382   4.831   3.125  1.0457 -0.0491  0.5919
 2177TIP3    H127946   2.413   4.921   3.115  2.0976 -0.2435  1.8788
 2177TIP3    H227947   2.287   4.839   3.136  1.2741  1.0121  1.9072
 2178TIP3   OH227948   3.606   1.232  14.644 -0.2758  0.2618  0.3359
 2178TIP3    H127949   3.562   1.260  14.564 -0.2448  2.2751  0.9771
 2178TIP3    H227950   3.602   1.136  14.641 -0.3236  0.2720 -2.0241
 2179TIP3   OH227951   4.092   2.892  12.901  0.1927  0.0574  0.0896
 2179TIP3    H127952   4.084   2.959  12.834  2.6128  0.4637  0.1057
 2179TIP3    H227953   4.013   2.900  12.953 -2.9884 -1.7778 -3.9109
 2180TIP3   OH227954   1.495   2.815  11.218  0.3926 -0.2871  0.3224
 2180TIP3    H127955   1.479   2.834  11.126  0.8770 -0.7552  0.1349
 2180TIP3    H227956   1.584   2.778  11.220  0.5047 -0.0011  1.0131
 2181TIP3   OH227957   1.426   6.139   5.182 -0.2653 -0.7103 -0.4003
 2181TIP3    H127958   1.475   6.082   5.241 -0.5041 -1.2277 -0.6970
 2181TIP3    H227959   1.459   6.117   5.095  0.6387  0.5865 -0.4117
 2182TIP3   OH227960   4.013   2.557  12.859 -1.0514 -0.0479  0.0496
 2182TIP3    H127961   4.083   2.600  12.810 -0.6840 -0.4416  0.2245
 2182TIP3    H227962   3.935   2.610  12.840 -0.6767  0.4964 -0.0077
 2183TIP3   OH227963   2.561   6.749   5.246 -0.6208  0.0321  0.2548
 2183TIP3    H127964   2.485   6.807   5.246 -0.2087  0.5894  1.0269
 2183TIP3    H227965   2.573   6.725   5.154 -1.7808 -0.1386  0.1358
 2184TIP3   OH227966   4.054   3.989   3.070 -0.2122  0.5903  0.5061
 2184TIP3    H127967   4.088   4.068   3.029  0.7246 -0.4540 -0.7988
 2184TIP3    H227968   3.979   3.964   3.016 -1.9398  1.7672  2.2105
 2185TIP3   OH227969   2.463   6.085  12.977  0.1953 -0.6224 -0.3925
 2185TIP3    H127970   2.470   6.176  13.006 -0.9859 -0.9505  1.0873
 2185TIP3    H227971   2.553   6.054  12.972  0.6978  0.9827 -2.2227
 2186TIP3   OH227972   6.624   5.346   4.091  0.1150 -0.3221 -0.6006
 2186TIP3    H127973   6.605   5.437   4.113  1.8817 -0.1810  0.5516
 2186TIP3    H227974   6.637   5.303   4.175  1.1486 -1.1872 -1.1689
 2187TIP3   OH227975   5.134   5.886   4.053 -0.4311 -0.3642 -0.1553
 2187TIP3    H127976   5.058   5.874   4.110 -0.4740  1.2793  0.2010
 2187TIP3    H227977   5.100   5.933   3.977  0.2765  0.8431  0.2355
 2188TIP3   OH227978   4.768   0.210   1.683  0.0487  0.5010  1.3867
 2188TIP3    H127979   4.723   0.242   1.761 -0.5350  0.6154  1.0076
 2188TIP3    H227980   4.698   0.178   1.626  0.5713 -0.9155  1.5050
 2189TIP3   OH227981   0.700   4.609  11.139 -0.2917  0.4954 -0.2963
 2189TIP3    H127982   0.789   4.643  11.141  0.2262 -0.6394 -2.0667
 2189TIP3    H227983   0.706   4.525  11.184 -0.6999  0.8541  0.4498
 2190TIP3   OH227984   0.702   2.752   4.734  0.1120 -0.3573  0.1975
 2190TIP3    H127985   0.784   2.719   4.697 -0.4039 -0.7362 -0.6552
 2190TIP3    H227986   0.635   2.694   4.697 -0.4541 -0.5876  1.5547
 2191TIP3   OH227987   4.856   4.567  13.593 -0.4696  0.2031 -0.6884
 2191TIP3    H127988   4.900   4.652  13.594 -2.8004  1.4860  0.4519
 2191TIP3    H227989   4.802   4.569  13.513 -1.8014  0.5602  0.1798
 2192TIP3   OH227990   0.097   3.304  13.611 -0.0790 -0.5724 -0.4470
 2192TIP3    H127991   0.170   3.254  13.574 -0.9031 -2.1702  0.0078
 2192TIP3    H227992   0.031   3.304  13.541  0.4812  1.2904 -1.0460
 2193TIP3   OH227993   4.003   1.212   3.838 -0.7253  0.8054  0.1535
 2193TIP3    H127994   3.916   1.212   3.879 -0.0280  0.0003  1.7489
 2193TIP3    H227995   4.030   1.120   3.841 -0.0241  0.9689 -0.8077
 2194TIP3   OH227996   2.824   6.146  15.364 -0.7268 -0.1981 -0.3396
 2194TIP3    H127997   2.767   6.080  15.403  0.6323 -0.6894  0.9156
 2194TIP3    H227998   2.785   6.164  15.279 -1.7065 -1.8743 -0.2960
 2195TIP3   OH227999   5.787   6.569   2.386  0.4958  0.1721 -0.6655
 2195TIP3    H128000   5.782   6.528   2.473 -0.3381  2.3375  0.3617
 2195TIP3    H228001   5.880   6.564   2.364  0.7918 -0.0863  0.5236
 2196TIP3   OH228002   0.929   0.321  14.899  0.3288 -0.0057  0.1604
 2196TIP3    H128003   0.960   0.318  14.990 -1.3175 -0.2359  0.7517
 2196TIP3    H228004   0.968   0.244  14.858 -1.9459 -2.2066  1.7855
 2197TIP3   OH228005   3.327   1.540  15.898 -0.2342 -0.2193  0.9423
 2197TIP3    H128006   3.369   1.528  15.813 -0.9706 -0.6695  0.6263
 2197TIP3    H228007   3.399   1.554  15.960  0.3240 -0.2468  0.3049
 2198TIP3   OH228008   4.756   3.465  14.389 -0.1656  0.0651  0.1907
 2198TIP3    H128009   4.801   3.417  14.458 -0.1781  2.5716  2.0901
 2198TIP3    H228010   4.676   3.498  14.431  0.5537  2.9312 -0.4965
 2199TIP3   OH228011   4.915   5.613   2.672  0.1443 -0.8659 -0.3253
 2199TIP3    H128012   4.913   5.663   2.754  0.6530 -0.3191 -0.6434
 2199TIP3    H228013   4.834   5.561   2.674  0.0521 -0.7064  0.4277
 2200TIP3   OH228014   3.134   4.886   1.396  0.3336  0.3239 -0.8103
 2200TIP3    H128015   3.042   4.883   1.371  0.5850 -0.5776 -1.6687
 2200TIP3    H228016   3.182   4.878   1.314  1.1823 -0.9682 -0.2147
 2201TIP3   OH228017   3.271   2.408   5.124 -0.4274  0.3559 -0.0971
 2201TIP3    H128018   3.213   2.335   5.101  0.3525 -0.6956  1.0934
 2201TIP3    H228019   3.266   2.414   5.219  0.8626  0.6833 -0.0208
 2202TIP3   OH228020   6.007   4.509  15.728  0.6449  0.1648 -0.0585
 2202TIP3    H128021   5.972   4.446  15.666 -0.7647  1.3479 -0.5252
 2202TIP3    H228022   6.074   4.557  15.679  1.3656 -0.6092  0.1483
 2203TIP3   OH228023   5.653   4.383  14.867 -0.2253 -0.7617  0.1734
 2203TIP3    H128024   5.672   4.291  14.846  0.0434 -1.0427  1.5680
 2203TIP3    H228025   5.564   4.381  14.902 -0.6229 -0.3225 -0.8000
 2204TIP3   OH228026   2.403   6.128  12.675  0.7244  0.3891  0.3827
 2204TIP3    H128027   2.464   6.121  12.748 -0.1856 -2.4000  1.0027
 2204TIP3    H228028   2.325   6.168  12.713 -0.6022 -3.0471  1.7514
 2205TIP3   OH228029   2.663   4.222   2.298  0.1882 -0.2307  0.3190
 2205TIP3    H128030   2.610   4.253   2.370  0.4981  1.1186 -0.0042
 2205TIP3    H228031   2.648   4.127   2.295  0.0233 -0.2734  2.0008
 2206TIP3   OH228032   4.290   5.689  12.656 -0.2606  0.6474  0.1363
 2206TIP3    H128033   4.255   5.632  12.725 -0.4378  0.4143 -0.1452
 2206TIP3    H228034   4.231   5.764  12.656 -0.5120  0.4499 -0.0518
 2207TIP3   OH228035   4.333   2.828  14.714 -0.6798  0.6468 -0.5542
 2207TIP3    H128036   4.280   2.761  14.756 -0.9964 -0.2421 -2.2796
 2207TIP3    H228037   4.270   2.891  14.679 -0.6321 -0.1046 -2.0954
 2208TIP3   OH228038   1.103   5.268  16.957  0.4648 -0.2501  0.3874
 2208TIP3    H128039   1.157   5.340  16.924  1.3424 -0.6806  0.8224
 2208TIP3    H228040   1.081   5.217  16.879 -1.2908  1.1755 -0.1228
 2209TIP3   OH228041   3.924   2.730  15.411  0.5117 -0.5167  0.4267
 2209TIP3    H128042   3.916   2.683  15.494  1.4897 -1.5575 -0.0507
 2209TIP3    H228043   3.920   2.662  15.344  1.6269  0.0962 -0.2939
 2210TIP3   OH228044   0.623   5.737   1.953  0.2013 -0.3216 -0.4091
 2210TIP3    H128045   0.628   5.671   1.884 -2.1454  0.2131 -1.1817
 2210TIP3    H228046   0.586   5.691   2.028  0.5483 -0.3751 -0.2726
 2211TIP3   OH228047   2.061   2.480  11.197 -0.1224  0.0496  0.0962
 2211TIP3    H128048   2.024   2.397  11.227 -0.6890  0.3504  0.2477
 2211TIP3    H228049   1.986   2.528  11.161  0.0180  0.8841  0.8850
 2212TIP3   OH228050   1.430   0.397   1.603  1.1060 -0.1627 -0.2785
 2212TIP3    H128051   1.483   0.398   1.523  0.5836  2.8370 -0.7040
 2212TIP3    H228052   1.345   0.362   1.576  1.0964  0.3499 -0.9355
 2213TIP3   OH228053   5.562   6.551   5.619  0.1627  0.1301  0.2590
 2213TIP3    H128054   5.559   6.520   5.710 -0.4440  0.1121  0.2375
 2213TIP3    H228055   5.629   6.619   5.619 -1.7445  2.1757  1.3920
 2214TIP3   OH228056   0.074   1.315   2.484  0.4279  0.0124 -0.2420
 2214TIP3    H128057   0.006   1.249   2.500  1.4886 -1.0337  0.1547
 2214TIP3    H228058   0.105   1.339   2.571  1.0870 -0.1125 -0.4306
 2215TIP3   OH228059   3.128   0.952  12.556 -0.5227  0.0101 -0.2835
 2215TIP3    H128060   3.201   0.996  12.513 -0.0430 -1.2725 -0.8400
 2215TIP3    H228061   3.053   0.970  12.499  0.0751 -1.5238 -1.6233
 2216TIP3   OH228062   1.470   4.835  11.737 -0.2670  0.5132 -0.2697
 2216TIP3    H128063   1.503   4.749  11.713 -0.3463 -0.0831  1.6421
 2216TIP3    H228064   1.447   4.828  11.829  0.2957  2.7630  0.1069
 2217TIP3   OH228065   0.035   6.280   0.852  0.1773 -0.0820 -0.3467
 2217TIP3    H128066   0.086   6.360   0.866  0.0935  0.1768 -1.3719
 2217TIP3    H228067   0.003   6.289   0.762  0.1457 -1.2635 -0.4635
 2218TIP3   OH228068   5.175   6.182  14.388  0.1077  0.4801 -0.2388
 2218TIP3    H128069   5.262   6.159  14.356 -0.6233 -0.7915 -1.4086
 2218TIP3    H228070   5.121   6.105  14.370 -1.0711  0.8840  1.3046
 2219TIP3   OH228071   2.052   5.581   3.287 -0.4475  0.2289 -0.4421
 2219TIP3    H128072   2.090   5.669   3.284  2.8214 -0.9175  2.0103
 2219TIP3    H228073   2.122   5.524   3.254 -3.2406 -1.4480 -4.2247
 2220TIP3   OH228074   5.859   4.326  13.863  0.0128 -0.1042 -0.4327
 2220TIP3    H128075   5.930   4.291  13.809 -1.2084 -0.4149 -1.8817
 2220TIP3    H228076   5.900   4.397  13.913  2.0429 -2.1318  0.9944
 2221TIP3   OH228077   1.472   2.378  17.203  0.1885  0.3627 -0.8467
 2221TIP3    H128078   1.475   2.390  17.298  2.3129  0.6729 -0.8865
 2221TIP3    H228079   1.382   2.397  17.179 -0.4183  0.1864  1.1164
 2222TIP3   OH228080   2.887   3.990  12.029 -0.3860  0.1239 -0.0566
 2222TIP3    H128081   2.832   4.063  12.001 -1.2939 -1.3894 -2.5346
 2222TIP3    H228082   2.970   4.004  11.984  0.3863  0.9451  1.5302
 2223TIP3   OH228083   2.998   2.636  16.049  0.3143  0.7502  0.0465
 2223TIP3    H128084   2.978   2.598  16.134  0.7149  0.1740 -0.1073
 2223TIP3    H228085   2.991   2.563  15.988  1.7448  0.7610 -0.1639
 2224TIP3   OH228086   5.070   0.718   3.608  0.2552  0.0316  0.1206
 2224TIP3    H128087   4.979   0.723   3.579  0.6624 -2.9892 -2.1805
 2224TIP3    H228088   5.119   0.767   3.542  0.5154 -0.5542 -0.1267
 2225TIP3   OH228089   4.942   4.638   4.822  0.4556  0.6062  0.4795
 2225TIP3    H128090   4.898   4.657   4.905 -0.1177 -1.6315  0.7531
 2225TIP3    H228091   5.020   4.589   4.847  1.1617  1.3282 -0.2389
 2226TIP3   OH228092   2.172   5.135  11.776 -0.2222 -0.1147 -0.8812
 2226TIP3    H128093   2.147   5.046  11.752  0.4164 -0.5990  0.2088
 2226TIP3    H228094   2.110   5.190  11.727 -1.8848 -1.2026 -0.1062
 2227TIP3   OH228095   0.633   1.483   5.222  0.0975 -0.1590  0.2382
 2227TIP3    H128096   0.548   1.470   5.264 -0.8601  0.5566 -1.3959
 2227TIP3    H228097   0.623   1.448   5.134  1.9059 -1.1848  0.3784
 2228TIP3   OH228098   5.075   4.948   1.243 -0.0546  0.5563  0.5825
 2228TIP3    H128099   5.133   4.914   1.311  1.8610 -0.8762 -1.6002
 2228TIP3    H228100   4.987   4.929   1.275  0.8082 -2.0472  1.7344
 2229TIP3   OH228101   3.843   2.850   5.499 -0.2387 -0.3303  0.1721
 2229TIP3    H128102   3.831   2.941   5.471  1.1909 -0.2803 -0.3363
 2229TIP3    H228103   3.823   2.798   5.421  1.2362 -0.3188 -0.2332
 2230TIP3   OH228104   4.865   1.272  15.977 -0.9977  0.1829  0.0083
 2230TIP3    H128105   4.940   1.310  15.930 -0.6617 -0.4927 -0.0051
 2230TIP3    H228106   4.793   1.276  15.914 -0.5481 -0.7209 -0.5754
 2231TIP3   OH228107   2.540   5.875   6.555  0.9096 -0.4102 -0.4001
 2231TIP3    H128108   2.580   5.879   6.468  2.5101 -0.6734  0.2731
 2231TIP3    H228109   2.446   5.878   6.539  1.1819  1.3953 -2.0453
 2232TIP3   OH228110   1.585   3.283  15.637 -0.1403 -0.0912 -0.0958
 2232TIP3    H128111   1.563   3.230  15.561 -2.0542  1.8940 -1.0253
 2232TIP3    H228112   1.599   3.371  15.603 -1.5649  0.9739  1.8690
 2233TIP3   OH228113   0.181   2.470   1.797  0.6087 -0.4161  0.1351
 2233TIP3    H128114   0.105   2.415   1.814 -0.8325  0.7805 -1.9498
 2233TIP3    H228115   0.168   2.547   1.853  1.1150 -0.8416  0.8724
 2234TIP3   OH228116   3.443   0.746  11.438 -0.0496 -0.2622  0.2147
 2234TIP3    H128117   3.375   0.704  11.490 -0.5636  0.7171  0.3515
 2234TIP3    H228118   3.511   0.679  11.429 -0.6143 -0.9368  0.8703
 2235TIP3   OH228119   6.134   3.386   4.858 -0.0218 -0.2972 -0.2579
 2235TIP3    H128120   6.218   3.410   4.896 -0.6539  2.0230 -0.1858
 2235TIP3    H228121   6.109   3.462   4.806 -2.9628 -0.1219  1.2531
 2236TIP3   OH228122   5.245   0.537  10.378  0.2597 -0.3298  0.0132
 2236TIP3    H128123   5.161   0.582  10.379  1.4550  2.0923  0.5448
 2236TIP3    H228124   5.285   0.559  10.462  1.5506 -1.2026 -0.3291
 2237TIP3   OH228125   3.959   3.619  14.313 -0.0050  0.1158  0.0866
 2237TIP3    H128126   3.911   3.572  14.244  0.6110 -0.5598  0.1039
 2237TIP3    H228127   4.022   3.673  14.266  0.5945 -0.5445  0.1190
 2238TIP3   OH228128   3.329   3.696  14.940  0.4706  0.2498  0.1696
 2238TIP3    H128129   3.255   3.689  14.881  0.5543 -1.7656  0.2320
 2238TIP3    H228130   3.404   3.714  14.884  0.2691  0.0941 -0.1512
 2239TIP3   OH228131   0.393   5.913   0.334 -0.0766 -0.1460  0.8596
 2239TIP3    H128132   0.424   5.836   0.382  3.1697  0.0646 -0.6172
 2239TIP3    H228133   0.382   5.980   0.402 -0.1794 -1.1183  1.8348
 2240TIP3   OH228134   0.973   3.409  11.515  0.0701  0.0296  0.2556
 2240TIP3    H128135   0.940   3.400  11.426 -0.5689 -1.4736  0.6186
 2240TIP3    H228136   1.061   3.372  11.512  0.1844  0.3039  0.1799
 2241TIP3   OH228137   4.755   5.603   5.458  0.2616  0.0145  0.0879
 2241TIP3    H128138   4.767   5.509   5.444  0.1568 -0.0051  0.1276
 2241TIP3    H228139   4.816   5.644   5.397  0.1416 -0.0769 -0.0914
 2242TIP3   OH228140   5.897   6.629  16.566 -0.5860  0.3681 -0.3368
 2242TIP3    H128141   5.814   6.636  16.520 -0.1318 -0.5155 -1.3411
 2242TIP3    H228142   5.876   6.583  16.647 -1.1984  0.8623 -0.2108
 2243TIP3   OH228143   2.276   0.628  12.629 -0.8259 -0.1740  0.3270
 2243TIP3    H128144   2.340   0.629  12.558 -0.2306  1.2724  0.8265
 2243TIP3    H228145   2.226   0.709  12.617 -0.3160  0.4093  1.8773
 2244TIP3   OH228146   4.151   3.530  16.433 -0.2343  0.0441  0.3302
 2244TIP3    H128147   4.126   3.517  16.524 -0.5030  0.5900  0.3356
 2244TIP3    H228148   4.093   3.599  16.401  0.1565  0.1725 -0.1251
 2245TIP3   OH228149   2.165   4.286  13.482 -0.2405 -0.0650 -0.2917
 2245TIP3    H128150   2.193   4.268  13.393 -0.7726 -1.7050 -0.1658
 2245TIP3    H228151   2.246   4.294  13.532  0.0555 -1.3342 -0.5433
 2246TIP3   OH228152   6.169   2.511  14.714  0.0334 -0.2437  0.3514
 2246TIP3    H128153   6.172   2.543  14.624  0.4187  0.5740  0.6435
 2246TIP3    H228154   6.253   2.469  14.728  1.3379  2.4443  1.3024
 2247TIP3   OH228155   2.778   4.739   6.113  0.2281  0.2076 -0.3864
 2247TIP3    H128156   2.806   4.829   6.130  0.7071  0.1048 -0.6362
 2247TIP3    H228157   2.794   4.692   6.195 -2.6684  0.9699  0.7479
 2248TIP3   OH228158   3.043   1.443   4.159  0.1317 -0.5491  0.5482
 2248TIP3    H128159   3.090   1.373   4.114  0.4859 -0.3463  0.5989
 2248TIP3    H228160   2.962   1.453   4.109  0.4239 -0.4702  0.0797
 2249TIP3   OH228161   1.565   3.530  13.615  0.2683 -0.1636  0.1579
 2249TIP3    H128162   1.540   3.552  13.525  1.5411  0.7508  0.0158
 2249TIP3    H228163   1.503   3.462  13.640  0.7902 -1.5161 -1.9409
 2250TIP3   OH228164   3.692   3.479  12.386 -0.3312 -0.1534 -0.2458
 2250TIP3    H128165   3.697   3.526  12.303 -2.7303 -1.0132 -0.9535
 2250TIP3    H228166   3.671   3.546  12.451  0.3050  0.3248 -0.5215
 2251TIP3   OH228167   2.735   0.753   3.000 -0.3409 -0.3361 -0.2887
 2251TIP3    H128168   2.716   0.690   2.931 -0.9958 -0.2638 -0.1755
 2251TIP3    H228169   2.704   0.837   2.965 -1.0388 -0.3637  0.2432
 2252TIP3   OH228170   4.265   3.057   1.875 -0.0190  0.7194 -0.6167
 2252TIP3    H128171   4.304   3.012   1.950  0.7321  0.8763 -0.9000
 2252TIP3    H228172   4.339   3.103   1.834 -0.6387  1.6635 -0.7191
 2253TIP3   OH228173   4.755   6.160  16.951  0.9417 -0.5736 -0.2815
 2253TIP3    H128174   4.829   6.131  17.004  1.0841 -0.5897 -0.4895
 2253TIP3    H228175   4.783   6.244  16.915  1.2088 -0.9923 -1.0745
 2254TIP3   OH228176   6.558   0.395  15.319 -0.5834 -0.0356 -0.0331
 2254TIP3    H128177   6.545   0.477  15.365  1.1435 -0.0390  0.5367
 2254TIP3    H228178   6.560   0.419  15.226  2.6750  1.0862  0.2019
 2255TIP3   OH228179   2.178   0.558   2.409  0.9039  0.2178  0.2046
 2255TIP3    H128180   2.244   0.627   2.404  2.4656 -1.3234 -2.3551
 2255TIP3    H228181   2.227   0.477   2.398 -0.8523 -1.4441  3.1144
 2256TIP3   OH228182   0.797   1.996   0.776  0.6045 -0.2190  0.3960
 2256TIP3    H128183   0.820   2.058   0.706  1.1163  0.7592  1.3907
 2256TIP3    H228184   0.731   1.939   0.737 -0.7190  1.6451 -0.2607
 2257TIP3   OH228185   0.523   2.966   4.810 -0.1514 -0.0417 -0.0890
 2257TIP3    H128186   0.473   2.936   4.886  1.0816  1.8907  1.5854
 2257TIP3    H228187   0.587   2.896   4.795  1.2057  0.5748  2.2936
 2258TIP3   OH228188   3.086   6.190  16.449  0.5104  0.3751  0.1171
 2258TIP3    H128189   3.101   6.214  16.540  1.4810 -2.1307  0.6941
 2258TIP3    H228190   3.149   6.242  16.399  1.1509  0.5087  1.0511
 2259TIP3   OH228191   6.248   1.694  16.983  0.0951  0.1859  0.2179
 2259TIP3    H128192   6.272   1.669  17.072  1.2789 -0.7114 -0.3163
 2259TIP3    H228193   6.168   1.645  16.965  1.0938 -1.4456  0.0249
 2260TIP3   OH228194   6.025   5.169  16.107  0.9592 -0.2222 -0.0881
 2260TIP3    H128195   5.959   5.117  16.061  0.6281 -0.9075  1.1240
 2260TIP3    H228196   5.987   5.257  16.111  0.0029 -0.6555  0.7742
 2261TIP3   OH228197   3.193   2.129   2.328 -0.2919  0.7075 -0.4055
 2261TIP3    H128198   3.126   2.075   2.369  0.4162  0.4498  0.4583
 2261TIP3    H228199   3.251   2.154   2.401  1.4585 -0.4205 -1.3620
 2262TIP3   OH228200   1.286   0.617   1.850 -0.2325 -0.3503 -0.5390
 2262TIP3    H128201   1.268   0.656   1.935  1.7360  0.7642 -0.5716
 2262TIP3    H228202   1.258   0.684   1.787 -1.4703 -1.0763 -0.8031
 2263TIP3   OH228203   3.484   4.593   3.975 -0.1103 -0.2007  0.2883
 2263TIP3    H128204   3.449   4.659   4.035 -0.6473  0.9613 -1.2511
 2263TIP3    H228205   3.532   4.643   3.909 -0.5925 -1.3178 -0.9638
 2264TIP3   OH228206   5.238   0.493  15.442 -0.3949  0.5239  0.3494
 2264TIP3    H128207   5.186   0.430  15.492 -0.5143  0.1525 -0.2338
 2264TIP3    H228208   5.314   0.510  15.497 -0.1499 -0.4635  0.3328
 2265TIP3   OH228209   5.499   0.071  14.319 -0.3813 -0.0946  0.1976
 2265TIP3    H128210   5.467  -0.015  14.292  1.5228 -0.6069 -0.6000
 2265TIP3    H228211   5.514   0.118  14.237 -0.2022  0.5329  0.5843
 2266TIP3   OH228212   1.189   0.163  15.614  0.2956  0.8936  0.1303
 2266TIP3    H128213   1.229   0.213  15.685  1.7247 -0.1760  0.1193
 2266TIP3    H228214   1.193   0.072  15.643  0.3861  0.4957 -1.0781
 2267TIP3   OH228215   0.959   0.894  15.765 -0.4080  0.4165 -0.3364
 2267TIP3    H128216   0.941   0.858  15.852 -0.4827 -0.5204 -0.7283
 2267TIP3    H228217   1.043   0.856  15.740 -0.8213 -0.0535 -1.0488
 2268TIP3   OH228218   1.101   3.138   0.146 -0.3303 -0.3088  0.4105
 2268TIP3    H128219   1.149   3.144   0.229  1.3415  1.2067 -0.6091
 2268TIP3    H228220   1.105   3.045   0.123 -0.2977 -0.6538  1.7004
 2269TIP3   OH228221   5.652   5.739   4.838 -0.6032  0.1474  0.5468
 2269TIP3    H128222   5.725   5.752   4.898 -0.3500 -1.0350  0.5157
 2269TIP3    H228223   5.671   5.657   4.794 -2.3772 -0.6527  1.1561
 2270TIP3   OH228224   2.975   6.337   0.765 -0.2005 -0.3718 -0.6104
 2270TIP3    H128225   2.944   6.402   0.702  1.6652  4.0657  2.5041
 2270TIP3    H228226   2.905   6.330   0.830  0.7551  1.1013  0.6616
 2271TIP3   OH228227   2.370   1.520  10.853 -0.1980  0.0768 -0.2219
 2271TIP3    H128228   2.302   1.505  10.919 -0.8320  0.7116 -0.7132
 2271TIP3    H228229   2.435   1.575  10.897  1.3951 -2.7123  1.1160
 2272TIP3   OH228230   3.526   1.820   2.397  0.0634 -0.3609  0.1923
 2272TIP3    H128231   3.535   1.846   2.489  0.0150  0.0064  0.0974
 2272TIP3    H228232   3.494   1.730   2.400  0.2699 -0.4220  0.5352
 2273TIP3   OH228233   3.299   1.308  14.731 -0.2341  0.0530  0.4016
 2273TIP3    H128234   3.379   1.358  14.721 -0.6375  0.5438 -0.5671
 2273TIP3    H228235   3.323   1.234  14.787  0.8198  0.3392  0.3446
 2274TIP3   OH228236   6.290   3.829   2.894 -0.3392  0.8199  0.3235
 2274TIP3    H128237   6.272   3.856   2.984  1.9720 -1.0998  1.4832
 2274TIP3    H228238   6.274   3.735   2.893  0.1212  0.7256 -1.1472
 2275TIP3   OH228239   4.487   0.070  13.851  0.0669 -0.3561 -0.1264
 2275TIP3    H128240   4.463  -0.020  13.873 -0.0905  0.0608  1.5250
 2275TIP3    H228241   4.419   0.123  13.890  1.1592  0.5914  0.5425
 2276TIP3   OH228242   4.127   4.211   3.917  0.2260  0.3114  0.6910
 2276TIP3    H128243   4.180   4.226   3.996  0.4827 -1.9436  1.0043
 2276TIP3    H228244   4.178   4.149   3.866 -0.1871  1.3573 -1.0642
 2277TIP3   OH228245   4.970   3.048   0.149  0.1962 -0.2058  0.2580
 2277TIP3    H128246   4.885   3.016   0.120  1.2512 -1.5314 -1.5571
 2277TIP3    H228247   5.017   2.970   0.178  0.0481  0.7838  3.5826
 2278TIP3   OH228248   1.002   1.230   3.690 -0.3971 -0.0868  0.2621
 2278TIP3    H128249   0.949   1.246   3.613 -0.2407 -0.2099  0.1279
 2278TIP3    H228250   1.088   1.206   3.656  0.3210  1.9794  0.4849
 2279TIP3   OH228251   4.327   1.173  13.561  0.1072  0.1107 -0.1003
 2279TIP3    H128252   4.270   1.249  13.545  1.9438  2.0341  1.8990
 2279TIP3    H228253   4.293   1.135  13.642 -0.0638 -0.4866 -0.4480
 2280TIP3   OH228254   3.179   4.967  16.246  0.0643  0.0578  0.4805
 2280TIP3    H128255   3.184   5.026  16.322  1.2686 -0.2989  0.6973
 2280TIP3    H228256   3.263   4.977  16.203  0.6867 -2.1827  1.0342
 2281TIP3   OH228257   6.765   2.657   5.547 -0.0111  0.1160  0.0956
 2281TIP3    H128258   6.736   2.609   5.470 -1.8719  0.0583  0.7806
 2281TIP3    H228259   6.741   2.601   5.621  1.2150  0.4293  0.7587
 2282TIP3   OH228260   5.491   4.772  12.684  0.5584  0.0216 -0.0902
 2282TIP3    H128261   5.465   4.684  12.710 -0.9287 -0.0936 -1.7655
 2282TIP3    H228262   5.456   4.829  12.753 -0.0375 -0.5665  0.1072
 2283TIP3   OH228263   1.389   5.966  12.772 -0.1522  0.1207  0.4557
 2283TIP3    H128264   1.305   6.010  12.781  0.1737  0.6293  1.1180
 2283TIP3    H228265   1.408   5.932  12.860  1.0128  1.3070  0.7035
 2284TIP3   OH228266   4.428   1.584  14.349  0.2934  0.0188  0.0399
 2284TIP3    H128267   4.483   1.565  14.273 -0.6636  0.1487 -0.7012
 2284TIP3    H228268   4.348   1.534  14.334 -0.1151  0.4588  0.6996
 2285TIP3   OH228269   3.533   1.674   3.788  0.0877  0.2304 -0.3628
 2285TIP3    H128270   3.604   1.716   3.740  0.3877 -1.9910 -2.0411
 2285TIP3    H228271   3.577   1.619   3.853 -0.1766  0.3170 -0.1081
 2286TIP3   OH228272   5.440   0.542   4.336 -0.1418  0.1468  0.5153
 2286TIP3    H128273   5.435   0.481   4.262  0.5521 -0.4945  0.9790
 2286TIP3    H228274   5.350   0.548   4.369 -0.3742  0.0878 -0.1024
 2287TIP3   OH228275   1.754   0.630   2.225  0.0023 -0.3450 -0.6421
 2287TIP3    H128276   1.753   0.725   2.235  3.6345  0.1817 -3.1266
 2287TIP3    H228277   1.776   0.596   2.312 -1.8608  0.9639  0.3908
 2288TIP3   OH228278   5.864   0.213  15.219 -0.4154 -0.1654 -0.0849
 2288TIP3    H128279   5.792   0.258  15.263  1.1713  1.1473  1.3776
 2288TIP3    H228280   5.924   0.190  15.291  0.8794 -0.6641 -1.2832
 2289TIP3   OH228281   4.699   3.418  14.796  0.6380 -0.4389 -0.2326
 2289TIP3    H128282   4.702   3.401  14.702 -1.7593  1.3736 -0.7326
 2289TIP3    H228283   4.741   3.504  14.806 -1.2569  0.5221 -0.0707
 2290TIP3   OH228284   1.654   0.891   5.209 -0.0335  0.0607 -0.0790
 2290TIP3    H128285   1.700   0.895   5.293  0.3529  2.5801 -0.3363
 2290TIP3    H228286   1.688   0.811   5.168  1.1407 -0.2589  1.3986
 2291TIP3   OH228287   5.456   4.710   0.344 -0.0210 -0.2657  0.0721
 2291TIP3    H128288   5.503   4.628   0.359  1.0626  0.3234 -0.0014
 2291TIP3    H228289   5.411   4.696   0.260  0.2784 -0.7322 -0.0187
 2292TIP3   OH228290   6.348   4.733  14.046  0.2503  0.4363  0.3126
 2292TIP3    H128291   6.298   4.738  13.964  0.5807  0.1159  0.0920
 2292TIP3    H228292   6.280   4.726  14.114 -0.0066 -0.6644 -0.0360
 2293TIP3   OH228293   1.343   1.804  16.731 -0.3341  0.4456  0.1902
 2293TIP3    H128294   1.334   1.721  16.684 -0.7756  1.0533 -0.8106
 2293TIP3    H228295   1.331   1.872  16.665  1.8018  1.3397  0.6157
 2294TIP3   OH228296   3.263   1.373   1.674 -0.0821  0.1357 -0.1696
 2294TIP3    H128297   3.170   1.366   1.698  0.4066 -2.5717  1.2563
 2294TIP3    H228298   3.292   1.454   1.716 -1.5626  0.5017  0.2110
 2295TIP3   OH228299   6.088   3.201   3.969 -0.6286  0.4297 -0.1927
 2295TIP3    H128300   6.085   3.165   4.058  0.5007 -1.1227 -0.7480
 2295TIP3    H228301   6.166   3.256   3.970  1.0350 -1.7795 -0.9460
 2296TIP3   OH228302   0.860   4.347   3.649 -0.4349 -0.2176  0.1956
 2296TIP3    H128303   0.829   4.428   3.609 -1.6472  0.8854  3.1105
 2296TIP3    H228304   0.784   4.289   3.649  0.0625 -0.8960 -0.6776
 2297TIP3   OH228305   5.701   1.086  11.586 -0.3079 -0.1979 -0.1615
 2297TIP3    H128306   5.725   1.059  11.497  3.5900  2.5152 -0.1703
 2297TIP3    H228307   5.729   1.014  11.641 -0.2344 -0.7704 -0.9254
 2298TIP3   OH228308   2.059   0.497  17.122  0.0473 -0.0376 -0.2322
 2298TIP3    H128309   2.075   0.490  17.028  0.7538  0.2724 -0.1405
 2298TIP3    H228310   2.138   0.538  17.157 -0.7106  0.9990  0.3279
 2299TIP3   OH228311   3.864   2.936  13.029  0.5336  0.3994 -0.6524
 2299TIP3    H128312   3.807   2.918  13.104 -2.3068  0.5385 -2.6107
 2299TIP3    H228313   3.853   3.029  13.013 -0.4072  0.0459 -2.2954
 2300TIP3   OH228314   0.751   3.518  16.640  0.2266 -0.3472 -0.2567
 2300TIP3    H128315   0.718   3.451  16.699  1.8145 -1.6088 -0.7397
 2300TIP3    H228316   0.820   3.563  16.689  0.5447 -0.4204 -0.6318
 2301TIP3   OH228317   0.312   3.040  12.079  0.0558 -0.2510 -0.2819
 2301TIP3    H128318   0.399   3.071  12.104  0.4320 -1.0417 -0.5772
 2301TIP3    H228319   0.281   2.993  12.156  0.8593 -1.9442 -0.9330
 2302TIP3   OH228320   1.181   6.265   6.249  0.4602 -0.2488 -0.4632
 2302TIP3    H128321   1.216   6.193   6.301 -1.0972 -0.3464  0.5250
 2302TIP3    H228322   1.119   6.223   6.189  0.9031  0.0778 -1.1644
 2303TIP3   OH228323   0.322   4.858   0.081  0.3192 -0.2380  0.2035
 2303TIP3    H128324   0.356   4.947   0.073  0.6260 -0.4427 -1.0841
 2303TIP3    H228325   0.313   4.844   0.175 -1.5930  1.8144  0.3870
 2304TIP3   OH228326   2.029   3.474   0.133 -0.3607  0.2278  0.1843
 2304TIP3    H128327   1.956   3.429   0.090 -1.3561 -1.0772  2.9322
 2304TIP3    H228328   2.102   3.467   0.072 -2.5099  1.8122 -2.8003
 2305TIP3   OH228329   2.588   3.551   3.655 -0.6902 -0.1807  0.1144
 2305TIP3    H128330   2.583   3.511   3.569  0.3179 -0.5844  0.2243
 2305TIP3    H228331   2.503   3.535   3.695 -1.7475  1.3699 -1.3753
 2306TIP3   OH228332   3.091   5.181  16.740 -0.6337 -0.6571 -0.3152
 2306TIP3    H128333   2.997   5.178  16.757 -0.6699 -0.3915 -0.4714
 2306TIP3    H228334   3.108   5.271  16.714  0.2666  0.3153  3.1345
 2307TIP3   OH228335   4.610   0.330   1.882  0.0133  0.3966 -0.0102
 2307TIP3    H128336   4.531   0.298   1.838  0.0017  0.9862 -0.4378
 2307TIP3    H228337   4.580   0.403   1.936  0.3501  1.0360 -0.6639
 2308TIP3   OH228338   0.249   5.386   3.643 -0.0420  0.0799 -0.6340
 2308TIP3    H128339   0.178   5.324   3.626  0.0234 -0.0418 -0.4611
 2308TIP3    H228340   0.255   5.390   3.738 -0.8496  1.2603 -0.6002
 2309TIP3   OH228341   1.793   2.908  15.819 -0.4672 -0.1057 -0.5797
 2309TIP3    H128342   1.728   2.909  15.748 -0.6439  1.2734 -0.4185
 2309TIP3    H228343   1.747   2.942  15.895  0.4273  0.9058 -0.4639
 2310TIP3   OH228344   1.543   4.079   1.893 -0.2095 -0.9004 -0.0776
 2310TIP3    H128345   1.525   4.027   1.814  0.5929  0.1244 -0.9692
 2310TIP3    H228346   1.635   4.064   1.910  0.0688  0.2993 -0.4256
 2311TIP3   OH228347   3.759   1.190  13.641 -1.3297  0.2051  0.3322
 2311TIP3    H128348   3.782   1.116  13.698  0.7304 -0.8478 -1.6747
 2311TIP3    H228349   3.684   1.158  13.591 -1.6736  0.2316  0.8270
 2312TIP3   OH228350   6.129   6.187  13.655 -0.2872  0.8199  0.6425
 2312TIP3    H128351   6.181   6.144  13.723  1.8006 -0.3983 -1.5848
 2312TIP3    H228352   6.074   6.118  13.619  1.6369  0.3198 -1.6011
 2313TIP3   OH228353   0.718   6.785  11.184 -0.5443 -0.1819  0.0896
 2313TIP3    H128354   0.630   6.750  11.195 -0.6372  0.5043  1.8010
 2313TIP3    H228355   0.710   6.851  11.115 -1.1880 -0.6559 -0.3048
 2314TIP3   OH228356   6.274   6.154   2.974  0.2134  0.5684 -0.6069
 2314TIP3    H128357   6.350   6.162   3.031  0.5586  2.3245 -1.2384
 2314TIP3    H228358   6.234   6.241   2.974 -1.6635 -0.2303 -0.5037
 2315TIP3   OH228359   5.826   0.631  12.124 -0.2101  0.1842  0.3834
 2315TIP3    H128360   5.890   0.575  12.079 -1.2489 -1.4965  0.9200
 2315TIP3    H228361   5.860   0.720  12.112  1.3763 -0.5178 -0.7040
 2316TIP3   OH228362   3.182   3.790   1.717 -0.1691 -0.1493  0.0946
 2316TIP3    H128363   3.167   3.820   1.807  1.9054  2.4143 -0.2875
 2316TIP3    H228364   3.276   3.805   1.702 -0.0702 -2.1952 -1.9663
 2317TIP3   OH228365   0.129   6.286  13.707 -0.1946 -0.3353  0.0751
 2317TIP3    H128366   0.107   6.368  13.752 -0.6198 -0.4142  0.0080
 2317TIP3    H228367   0.050   6.261  13.660 -0.0034 -0.6819 -0.0723
 2318TIP3   OH228368   2.159   3.862  16.734 -0.0887  0.0547 -0.2014
 2318TIP3    H128369   2.089   3.842  16.796  0.6359  1.0772  0.9879
 2318TIP3    H228370   2.138   3.950  16.702  1.0983  0.7558  0.8563
 2319TIP3   OH228371   4.235   2.908  11.189  0.7062  0.1161 -0.1856
 2319TIP3    H128372   4.269   2.994  11.214 -1.6362  1.0469  0.0242
 2319TIP3    H228373   4.174   2.885  11.258  0.1338 -0.9888 -1.0238
 2320TIP3   OH228374   5.917   4.407  15.287  0.1858  0.1485 -0.3632
 2320TIP3    H128375   5.952   4.380  15.202 -1.3749 -1.6391 -0.5163
 2320TIP3    H228376   5.894   4.499  15.275  2.0654  0.5643 -1.1274
 2321TIP3   OH228377   0.341   0.002  15.535  0.2315 -0.3772 -0.3274
 2321TIP3    H128378   0.349   0.015  15.630  0.2775  2.4195 -0.6507
 2321TIP3    H228379   0.379  -0.085  15.520  0.2050 -0.9005  2.2032
 2322TIP3   OH228380   6.369   2.484  11.861  0.4695  0.1304 -0.5401
 2322TIP3    H128381   6.416   2.533  11.927 -1.0697  0.2150  0.5525
 2322TIP3    H228382   6.369   2.394  11.893 -0.8253  0.2789 -0.0554
 2323TIP3   OH228383   4.638   6.427  13.868 -0.1896 -0.5146  0.1340
 2323TIP3    H128384   4.641   6.332  13.881 -0.4195 -0.8331 -1.7958
 2323TIP3    H228385   4.728   6.456  13.884 -0.1910 -0.9895  1.0717
 2324TIP3   OH228386   1.877   4.278   3.098  0.0717 -0.0057 -0.0770
 2324TIP3    H128387   1.954   4.255   3.151 -0.3394  0.0939  0.5800
 2324TIP3    H228388   1.831   4.344   3.151  0.0042  0.5984 -0.8690
 2325TIP3   OH228389   1.666   5.627  13.644 -0.0922  0.0004  0.1237
 2325TIP3    H128390   1.626   5.556  13.695  1.1026 -1.0640 -0.3679
 2325TIP3    H228391   1.687   5.588  13.560  0.2617  1.0503 -0.2983
 2326TIP3   OH228392   5.548   2.323  16.095 -0.2268 -0.1905 -0.3375
 2326TIP3    H128393   5.550   2.228  16.106 -1.9744 -0.3666 -1.2603
 2326TIP3    H228394   5.496   2.337  16.016  1.5872  1.4896 -1.3356
 2327TIP3   OH228395   3.414   3.978   3.096  0.7916 -0.5476 -0.7342
 2327TIP3    H128396   3.368   3.934   3.168 -0.1192  0.9652 -0.3379
 2327TIP3    H228397   3.491   3.923   3.080  0.2796 -1.6802  0.4427
 2328TIP3   OH228398   6.387   3.405   4.988 -0.8092  0.2113 -0.0480
 2328TIP3    H128399   6.423   3.451   4.912  0.3148 -1.9054 -0.8737
 2328TIP3    H228400   6.463   3.391   5.045 -1.0410 -0.8880  0.0139
 2329TIP3   OH228401   3.436   3.292   4.112 -0.7917 -0.4212 -0.0452
 2329TIP3    H128402   3.402   3.339   4.036  2.5553 -0.4088 -1.7511
 2329TIP3    H228403   3.417   3.200   4.094  0.6856 -0.5050 -1.4410
 2330TIP3   OH228404   0.539   4.933  15.720  0.6506 -0.2790  0.2169
 2330TIP3    H128405   0.453   4.924  15.678  0.6728 -0.0089  0.1086
 2330TIP3    H228406   0.543   5.026  15.744  1.1535 -0.1642 -0.2996
 2331TIP3   OH228407   3.512   6.327  15.683  0.0322  0.0152 -0.1485
 2331TIP3    H128408   3.503   6.252  15.742  2.6509 -0.1099  0.1805
 2331TIP3    H228409   3.487   6.292  15.598 -1.5193 -0.4351  0.4516
 2332TIP3   OH228410   6.698   0.163  13.471 -0.4833  0.2123  0.4276
 2332TIP3    H128411   6.614   0.186  13.511 -0.3366 -2.1783  2.3800
 2332TIP3    H228412   6.676   0.132  13.384 -1.5392  0.2713  0.6622
 2333TIP3   OH228413   6.173   6.506  12.248  0.3513  0.4128 -0.3592
 2333TIP3    H128414   6.092   6.505  12.197  0.2895 -2.4346 -0.3476
 2333TIP3    H228415   6.146   6.536  12.335 -0.6419 -0.0751 -0.4840
 2334TIP3   OH228416   2.222   3.458  11.505  0.4981 -0.2169 -0.5284
 2334TIP3    H128417   2.277   3.457  11.583 -0.1520 -1.3261 -0.0646
 2334TIP3    H228418   2.147   3.511  11.530 -0.3471 -1.6365  0.0905
 2335TIP3   OH228419   2.189   3.063  14.643  0.0768  0.5355 -0.0550
 2335TIP3    H128420   2.099   3.033  14.645  0.4018 -0.5115 -0.6241
 2335TIP3    H228421   2.242   2.983  14.643  0.9287  0.9505 -3.4815
 2336TIP3   OH228422   5.492   1.838   0.980  0.3783  0.7195 -0.2820
 2336TIP3    H128423   5.510   1.927   1.013 -1.3565  1.2648 -0.7291
 2336TIP3    H228424   5.513   1.842   0.887  3.1324 -0.2119  0.2001
 2337TIP3   OH228425   1.710   3.840   3.284 -0.1538  0.6413  0.2003
 2337TIP3    H128426   1.704   3.746   3.303 -1.6474  0.9617  1.5129
 2337TIP3    H228427   1.624   3.864   3.252 -0.2469  1.8302  1.2574
 2338TIP3   OH228428   3.311   1.008   2.759  0.5273 -0.2905 -0.5951
 2338TIP3    H128429   3.310   1.056   2.841  0.4182 -1.3101  0.0196
 2338TIP3    H228430   3.219   1.003   2.733  0.6357  0.7693 -1.2414
 2339TIP3   OH228431   1.462   1.971   1.382 -0.0393  0.7626 -0.4324
 2339TIP3    H128432   1.478   1.956   1.475 -0.3761  0.7764 -0.3706
 2339TIP3    H228433   1.370   1.997   1.378  0.0362  0.9883 -0.7430
 2340TIP3   OH228434   4.802   1.897   2.742 -0.8310  0.3276 -0.2021
 2340TIP3    H128435   4.830   1.806   2.757 -0.6472  0.5745  0.9977
 2340TIP3    H228436   4.880   1.940   2.705 -0.3845  0.3890  0.7714
 2341TIP3   OH228437   0.523   2.063   5.186  0.2164 -0.1385 -0.2970
 2341TIP3    H128438   0.574   1.983   5.181 -0.9194 -0.7985 -2.2596
 2341TIP3    H228439   0.504   2.074   5.280  0.8256 -1.8649  0.0553
 2342TIP3   OH228440   2.611   1.777   3.808 -1.0781 -0.3084  0.1477
 2342TIP3    H128441   2.685   1.762   3.867 -0.8940 -2.0540 -0.4536
 2342TIP3    H228442   2.534   1.762   3.863 -1.0923  2.5722  1.0548
 2343TIP3   OH228443   0.652   4.696   4.044 -0.4620 -0.0761 -0.2497
 2343TIP3    H128444   0.739   4.675   4.080 -0.8762  0.7749  1.3429
 2343TIP3    H228445   0.592   4.640   4.094 -0.9972  0.7278  0.0311
 2344TIP3   OH228446   5.946   0.210  10.256  0.0679 -0.0051 -0.4675
 2344TIP3    H128447   5.955   0.305  10.258 -0.6604  0.0650 -0.2887
 2344TIP3    H228448   6.035   0.178  10.249  0.2866  0.7051 -1.0189
 2345TIP3   OH228449   4.155   1.913   4.356 -0.2677  0.5555 -0.1299
 2345TIP3    H128450   4.247   1.929   4.380  0.5006  1.1802 -3.0451
 2345TIP3    H228451   4.111   1.996   4.374  0.0194  0.6344  0.2215
 2346TIP3   OH228452   0.125   4.749  17.096  0.5918 -0.4115 -0.2666
 2346TIP3    H128453   0.131   4.816  17.164 -1.0048 -1.0330  0.5244
 2346TIP3    H228454   0.135   4.797  17.014 -1.4671  0.9831  0.2319
 2347TIP3   OH228455   0.759   5.712   4.780 -0.1196 -0.5871 -0.2528
 2347TIP3    H128456   0.749   5.721   4.875  1.0965 -0.5620 -0.1148
 2347TIP3    H228457   0.835   5.654   4.769  0.1249 -0.1002 -1.2054
 2348TIP3   OH228458   2.658   1.346   3.828  0.0254 -0.5738 -0.1724
 2348TIP3    H128459   2.587   1.290   3.859  0.5616 -1.1229  0.0818
 2348TIP3    H228460   2.714   1.287   3.777  0.2422 -0.1235 -0.4628
 2349TIP3   OH228461   5.905   6.135   1.876 -0.2849 -0.0773  0.2143
 2349TIP3    H128462   5.865   6.053   1.846  2.3248 -0.7231 -1.9508
 2349TIP3    H228463   5.998   6.113   1.886  0.8272  2.9164 -2.0602
 2350TIP3   OH228464   5.841   3.169  11.332  0.0391  0.5114 -0.0600
 2350TIP3    H128465   5.788   3.191  11.408 -0.3401  0.0371 -0.1810
 2350TIP3    H228466   5.779   3.137  11.267  0.6929 -3.4326  0.9889
 2351TIP3   OH228467   1.943   5.357   3.827  0.1859 -0.2115  0.4015
 2351TIP3    H128468   2.005   5.428   3.810  0.7975 -0.6000  0.9529
 2351TIP3    H228469   1.998   5.278   3.829 -0.3220 -0.5547  0.9447
 2352TIP3   OH228470   4.285   0.251  16.907  0.0297 -0.1961  0.8703
 2352TIP3    H128471   4.225   0.312  16.950  0.0194  0.1469  0.3664
 2352TIP3    H228472   4.279   0.171  16.961 -0.4836  0.0077  1.1261
 2353TIP3   OH228473   2.693   1.424  14.827 -0.2596 -0.0998  0.2612
 2353TIP3    H128474   2.698   1.519  14.836 -0.8221 -0.0081 -0.2848
 2353TIP3    H228475   2.730   1.390  14.909 -2.1590  0.6324  1.5037
 2354TIP3   OH228476   0.953   5.133   5.759  0.6927 -0.2035 -0.0407
 2354TIP3    H128477   0.925   5.208   5.811  1.4714  1.1971 -1.5766
 2354TIP3    H228478   1.022   5.092   5.811 -0.9320 -0.9711  1.6346
 2355TIP3   OH228479   5.139   4.978   4.965  0.3738  0.2160 -0.2767
 2355TIP3    H128480   5.128   4.926   4.886  2.1388  0.0888 -0.4796
 2355TIP3    H228481   5.222   5.023   4.953 -0.0666  1.3900  0.8535
 2356TIP3   OH228482   1.695   2.236   4.082 -0.1955 -0.6114  0.3375
 2356TIP3    H128483   1.781   2.279   4.082  0.2035 -1.3354 -0.8153
 2356TIP3    H228484   1.709   2.154   4.129 -0.7240  0.0806  1.7308
 2357TIP3   OH228485   4.638   3.720  15.057  0.2330  0.2630  0.2470
 2357TIP3    H128486   4.705   3.653  15.050  1.3372  1.3200  0.4693
 2357TIP3    H228487   4.665   3.788  14.995 -1.6250 -0.0938 -1.0642
 2358TIP3   OH228488   6.063   1.508  15.891  0.3820 -0.4004  0.8729
 2358TIP3    H128489   6.031   1.530  15.978  0.4036  1.9103  0.3773
 2358TIP3    H228490   6.017   1.428  15.868 -1.0408 -0.0422  2.2763
 2359TIP3   OH228491   1.268   2.355  13.942 -0.7142  0.6426  0.6313
 2359TIP3    H128492   1.244   2.279  13.889  1.6876  0.1462  0.1503
 2359TIP3    H228493   1.240   2.430  13.889 -0.2524  0.1169 -0.3911
 2360TIP3   OH228494   5.905   1.395  13.320 -0.3857  0.1653  0.3038
 2360TIP3    H128495   5.992   1.369  13.350 -0.7414  0.5430  1.7870
 2360TIP3    H228496   5.854   1.314  13.324 -0.4073  0.1927  0.7040
 2361TIP3   OH228497   0.782   3.128   4.889  0.1520  0.2794 -0.1442
 2361TIP3    H128498   0.816   3.086   4.810  0.1290 -0.0596  0.0218
 2361TIP3    H228499   0.692   3.097   4.894  0.6295 -1.0614  0.9156
 2362TIP3   OH228500   2.049   2.607   2.182  0.4917 -0.1416 -0.1486
 2362TIP3    H128501   1.989   2.665   2.136  0.3485 -0.8176 -0.8386
 2362TIP3    H228502   2.052   2.528   2.128  1.1915 -0.5207  0.4251
 2363TIP3   OH228503   0.601   6.706   0.854  0.4324 -0.0402 -0.6898
 2363TIP3    H128504   0.655   6.686   0.930  2.5454  0.5081 -1.9679
 2363TIP3    H228505   0.526   6.753   0.890  0.1995 -1.7447  1.2610
 2364TIP3   OH228506   1.917   3.643  13.886 -0.2481  0.2496 -0.1263
 2364TIP3    H128507   1.854   3.712  13.906 -1.4265 -0.9694  0.5453
 2364TIP3    H228508   1.882   3.565  13.929  1.6132 -0.5325  0.0621
 2365TIP3   OH228509   5.319   1.372  17.200 -0.1892  0.0276  0.1412
 2365TIP3    H128510   5.348   1.322  17.123  0.8195 -0.2857  0.7003
 2365TIP3    H228511   5.226   1.351  17.209 -0.5865  0.8479 -1.5707
 2366TIP3   OH228512   6.542   2.481   1.608  0.5289 -0.4075  0.2268
 2366TIP3    H128513   6.483   2.469   1.534 -0.5135 -3.6946  1.4010
 2366TIP3    H228514   6.628   2.495   1.568 -0.2923 -0.1714 -1.5619
 2367TIP3   OH228515   3.471   5.560  13.731  0.0675  0.0132 -0.2698
 2367TIP3    H128516   3.529   5.636  13.723 -0.6521  0.6951  0.7843
 2367TIP3    H228517   3.516   5.491  13.682  1.0724  0.9155 -0.6734
 2368TIP3   OH228518   1.569   5.574  11.127  0.3389  0.2016 -0.0419
 2368TIP3    H128519   1.626   5.580  11.050  1.0088 -1.8939  0.2407
 2368TIP3    H228520   1.542   5.482  11.130 -1.6592  0.7543  0.8572
 2369TIP3   OH228521   5.862   3.489   1.696  0.0023 -0.1904 -0.0418
 2369TIP3    H128522   5.816   3.570   1.719 -1.9905 -1.7517  1.9945
 2369TIP3    H228523   5.800   3.443   1.639  0.5789 -0.8022 -0.1758
 2370TIP3   OH228524   2.770   5.875  15.160 -0.4341  0.5920 -0.3435
 2370TIP3    H128525   2.729   5.792  15.137 -0.6054 -0.0156  1.9202
 2370TIP3    H228526   2.849   5.879  15.108 -1.4207 -0.0333 -1.9518
 2371TIP3   OH228527   4.531   5.056   3.909 -0.1448  0.5302  0.1674
 2371TIP3    H128528   4.542   4.986   3.973 -2.8663  1.5738  1.9531
 2371TIP3    H228529   4.546   5.013   3.824  1.3992 -1.4063  1.3380
 2372TIP3   OH228530   5.404   2.728  12.929 -0.0659  0.6634  0.2948
 2372TIP3    H128531   5.316   2.698  12.908  0.9249 -2.3451 -0.0102
 2372TIP3    H228532   5.397   2.823  12.933 -2.9486  0.6101 -1.3204
 2373TIP3   OH228533   2.227   5.971   2.431 -0.2769 -0.6652  0.7385
 2373TIP3    H128534   2.252   6.059   2.460  1.2162 -0.5948 -0.6673
 2373TIP3    H228535   2.151   5.949   2.486 -1.2502  1.8361  0.5261
 2374TIP3   OH228536   0.732   3.389  15.988 -0.1759 -0.2780  0.2580
 2374TIP3    H128537   0.752   3.404  16.080  1.0313  1.1329 -0.1836
 2374TIP3    H228538   0.744   3.295  15.976  2.5214 -0.1293  0.9787
 2375TIP3   OH228539   0.087   6.224   0.409  0.5157  0.4833  0.1423
 2375TIP3    H128540   0.095   6.247   0.316 -0.5292 -0.9717 -0.3259
 2375TIP3    H228541   0.174   6.191   0.432  0.7117  0.6149 -0.3866
 2376TIP3   OH228542   0.410   0.678  12.224 -0.0489 -0.5480  0.3800
 2376TIP3    H128543   0.341   0.682  12.290 -0.0206 -0.2031  0.3899
 2376TIP3    H228544   0.382   0.740  12.157  0.6604  0.2183  0.7728
 2377TIP3   OH228545   0.789   5.507   3.400 -0.1844 -0.3072  0.1716
 2377TIP3    H128546   0.880   5.535   3.401 -0.8557  2.0935 -0.5560
 2377TIP3    H228547   0.743   5.572   3.454 -1.7127 -0.4673 -0.8781
 2378TIP3   OH228548   2.503   5.019  15.038 -0.8296  0.0695  0.2878
 2378TIP3    H128549   2.411   5.023  15.065 -1.3440  3.7380 -1.4742
 2378TIP3    H228550   2.530   5.110  15.031  3.1094 -0.8635  0.9481
 2379TIP3   OH228551   1.588   2.292  11.528 -0.6205  0.5111 -0.6180
 2379TIP3    H128552   1.640   2.305  11.448  1.3150 -3.3643 -0.2393
 2379TIP3    H228553   1.627   2.352  11.591 -1.5832  2.9796 -2.2207
 2380TIP3   OH228554   3.976   5.217   5.785  0.1888  0.1270  0.0456
 2380TIP3    H128555   4.004   5.165   5.860  1.4578 -0.7248 -0.9672
 2380TIP3    H228556   3.887   5.244   5.806  0.7531  0.4986  2.1412
 2381TIP3   OH228557   4.877   4.707   3.670 -0.1428 -0.2101 -0.3652
 2381TIP3    H128558   4.891   4.614   3.654  0.9216 -0.1047 -0.1479
 2381TIP3    H228559   4.964   4.741   3.693 -0.5022  0.8430 -0.4780
 2382TIP3   OH228560   2.716   6.438  15.394  0.4772 -0.3991 -0.5368
 2382TIP3    H128561   2.638   6.482  15.362 -1.2941 -1.9873  1.3020
 2382TIP3    H228562   2.748   6.495  15.465  0.1263 -0.4478 -0.3369
 2383TIP3   OH228563   5.455   2.341   2.185  0.5263  0.0778 -0.0514
 2383TIP3    H128564   5.465   2.264   2.241 -0.3196 -0.5087 -0.6875
 2383TIP3    H228565   5.500   2.411   2.233  0.9843 -0.7156  0.7138
 2384TIP3   OH228566   1.403   6.435   3.457 -0.5250 -0.2036  0.3830
 2384TIP3    H128567   1.371   6.502   3.396 -0.7184  0.6732  1.4224
 2384TIP3    H228568   1.323   6.396   3.493 -0.4155 -0.3136  0.5040
 2385TIP3   OH228569   2.341   3.739  12.877 -0.5813 -0.2466 -0.1097
 2385TIP3    H128570   2.271   3.780  12.928 -0.0053  1.6150 -0.7562
 2385TIP3    H228571   2.386   3.683  12.940 -1.3017  0.2243  0.8538
 2386TIP3   OH228572   1.465   3.989  15.941  0.1699  0.4043 -0.4246
 2386TIP3    H128573   1.470   3.987  16.037 -1.7872 -1.7712 -0.2851
 2386TIP3    H228574   1.536   4.048  15.915  0.6518  1.2077  2.3485
 2387TIP3   OH228575   6.521   6.609  13.666  0.0966  0.1773  0.8919
 2387TIP3    H128576   6.549   6.548  13.735  0.2915 -0.1520  0.5288
 2387TIP3    H228577   6.519   6.694  13.709  2.7519  0.4313  0.7218
 2388TIP3   OH228578   3.304   5.215  14.777  0.2137  0.2735 -0.1065
 2388TIP3    H128579   3.289   5.128  14.741  2.3027  0.0473 -0.5432
 2388TIP3    H228580   3.219   5.259  14.770 -1.9045 -2.7294  3.1778
 2389TIP3   OH228581   6.420   0.526  13.915  0.0134 -0.1845  0.2033
 2389TIP3    H128582   6.487   0.483  13.968 -0.7204 -1.4626  0.1071
 2389TIP3    H228583   6.425   0.483  13.830 -2.2836 -1.7347  0.7886
 2390TIP3   OH228584   1.434   6.488   0.404 -0.4607  0.3006 -0.4460
 2390TIP3    H128585   1.467   6.408   0.364  0.0739  0.7040 -0.8186
 2390TIP3    H228586   1.462   6.483   0.496  0.0999  0.3535 -0.6174
 2391TIP3   OH228587   6.133   2.447   6.093  0.4358 -0.2475  0.4055
 2391TIP3    H128588   6.204   2.463   6.155  0.6393  0.0938  0.0850
 2391TIP3    H228589   6.175   2.451   6.007 -0.2104  1.3906  0.1262
 2392TIP3   OH228590   3.392   3.518  12.951 -0.3198  0.9051 -0.6515
 2392TIP3    H128591   3.337   3.445  12.979  0.8828  0.3440  0.3767
 2392TIP3    H228592   3.417   3.496  12.861 -2.1914  1.4589 -1.3442
 2393TIP3   OH228593   4.191   4.508  14.067  0.5195 -0.2477  0.4100
 2393TIP3    H128594   4.100   4.499  14.038  0.1106  1.3181  1.0834
 2393TIP3    H228595   4.184   4.523  14.162  1.5050 -0.3921  0.5154
 2394TIP3   OH228596   4.926   3.999  13.947 -0.3930  0.3535 -0.2595
 2394TIP3    H128597   4.866   4.069  13.922 -2.0129 -0.4144  1.2749
 2394TIP3    H228598   4.886   3.920  13.911  0.8987  0.0656 -1.1215
 2395TIP3   OH228599   5.302   2.366   3.929  0.0978  0.2181 -0.1102
 2395TIP3    H128600   5.386   2.389   3.969 -0.0514  1.5976 -0.5552
 2395TIP3    H228601   5.317   2.376   3.835 -0.6414  0.7449 -0.1737
 2396TIP3   OH228602   6.629   2.048   1.034 -0.4518  0.2910 -0.1830
 2396TIP3    H128603   6.702   2.098   0.997  0.9197 -1.0084  0.6800
 2396TIP3    H228604   6.569   2.036   0.960  1.1235 -0.2441 -1.4268
 2397TIP3   OH228605   1.524   1.894   0.217 -0.4356  0.2941 -0.3193
 2397TIP3    H128606   1.536   1.805   0.183  0.0369 -0.3140  1.3102
 2397TIP3    H228607   1.462   1.935   0.157  0.7924 -0.4725 -2.2112
 2398TIP3   OH228608   6.609   6.459   2.489 -0.9627 -0.3179  0.0794
 2398TIP3    H128609   6.575   6.543   2.519 -0.8478 -0.1303 -0.3042
 2398TIP3    H228610   6.632   6.474   2.397 -0.0567 -0.4946  0.2620
 2399TIP3   OH228611   0.717   4.111   6.248  0.3302 -0.3565  0.0318
 2399TIP3    H128612   0.634   4.087   6.207  0.2508  0.0026 -0.0212
 2399TIP3    H228613   0.766   4.028   6.253 -0.3070 -0.7007  0.7123
 2400TIP3   OH228614   4.391   5.687   0.277  0.3638  0.1817 -0.3553
 2400TIP3    H128615   4.361   5.767   0.234 -0.3502  0.3912  0.5045
 2400TIP3    H228616   4.335   5.618   0.242 -0.4478  0.4057  0.4614
 2401TIP3   OH228617   0.385   1.748  15.661 -0.4005  0.5040 -0.4134
 2401TIP3    H128618   0.410   1.749  15.754 -0.7611  2.4648 -0.2775
 2401TIP3    H228619   0.344   1.834  15.647 -2.5099 -0.6531 -1.8360
 2402TIP3   OH228620   3.851   0.253  16.234 -0.0380 -0.8112  0.5268
 2402TIP3    H128621   3.770   0.249  16.184  0.1668 -2.1399  0.2857
 2402TIP3    H228622   3.845   0.336  16.282 -0.2941  0.4414 -1.5428
 2403TIP3   OH228623   5.916   3.405  13.584  0.0225  0.0584 -0.0791
 2403TIP3    H128624   5.979   3.393  13.655  0.8433  1.5334 -0.5256
 2403TIP3    H228625   5.934   3.331  13.525 -0.3710 -0.9258  0.9838
 2404TIP3   OH228626   6.436   5.705   4.603  0.1674  0.2368 -0.3518
 2404TIP3    H128627   6.487   5.656   4.538 -0.5814 -0.1618 -0.6581
 2404TIP3    H228628   6.385   5.638   4.649 -2.1241  0.8061 -1.8796
 2405TIP3   OH228629   2.963   0.752   2.782 -0.0012 -0.0762 -0.3757
 2405TIP3    H128630   2.931   0.680   2.727  1.4300 -0.8866 -0.2054
 2405TIP3    H228631   3.036   0.714   2.831 -0.2502  1.0582  0.9421
 2406TIP3   OH228632   3.981   1.000  16.581 -0.0122  0.3488 -0.1868
 2406TIP3    H128633   3.891   1.028  16.561 -0.0557 -0.0926 -0.6183
 2406TIP3    H228634   4.027   1.007  16.498  0.0371 -0.6174 -0.2502
 2407TIP3   OH228635   2.917   1.032   3.432  0.1254 -0.4406  0.2406
 2407TIP3    H128636   2.847   0.978   3.394 -0.3998  2.7280 -4.0780
 2407TIP3    H228637   2.998   0.994   3.399 -0.0943 -0.0419 -0.7979
 2408TIP3   OH228638   0.081   2.750  16.394 -0.3405  0.2920 -0.4116
 2408TIP3    H128639   0.115   2.744  16.305 -0.2856  1.0062 -0.4471
 2408TIP3    H228640   0.023   2.827  16.393 -0.3669  0.2885  0.1554
 2409TIP3   OH228641   3.221   6.744  13.546  0.9472 -0.6157  0.6593
 2409TIP3    H128642   3.202   6.804  13.617 -1.3100  0.4066 -0.6733
 2409TIP3    H228643   3.243   6.800  13.471  0.5159 -1.4976 -0.1600
 2410TIP3   OH228644   4.893   0.462  12.162 -0.1852 -0.3856  0.1538
 2410TIP3    H128645   4.958   0.462  12.232  0.4772 -0.6751 -0.4402
 2410TIP3    H228646   4.912   0.542  12.113 -2.4538  1.3567  1.8933
 2411TIP3   OH228647   4.532   6.641   1.420 -0.4247  0.6413 -0.0455
 2411TIP3    H128648   4.459   6.581   1.438 -0.0534 -0.6222 -2.3231
 2411TIP3    H228649   4.500   6.696   1.348  1.1322 -0.5653 -1.7342
 2412TIP3   OH228650   6.730   6.334   0.611  0.3957 -0.2231  0.6559
 2412TIP3    H128651   6.676   6.256   0.601  1.0866 -0.6556  0.2280
 2412TIP3    H228652   6.800   6.324   0.546  1.9953 -0.5392  2.3243
 2413TIP3   OH228653   5.772   2.794   0.688  0.5496  0.1769  0.0023
 2413TIP3    H128654   5.782   2.888   0.707  1.2888  0.1024  0.0173
 2413TIP3    H228655   5.689   2.788   0.641  0.5951  0.8718 -0.1850
 2414TIP3   OH228656   5.801   2.449  16.150  0.0888  0.2099  0.3093
 2414TIP3    H128657   5.830   2.443  16.241 -0.5629 -2.3491  0.4102
 2414TIP3    H228658   5.718   2.402  16.148  0.0879  0.2184 -1.6111
 2415TIP3   OH228659   1.430   1.178   2.042 -0.7185 -0.4946  0.5082
 2415TIP3    H128660   1.479   1.249   2.084  1.5823 -1.0635 -1.0398
 2415TIP3    H228661   1.397   1.217   1.961 -0.5936 -0.8239  0.2986
 2416TIP3   OH228662   2.772   3.035   4.303 -0.5701  0.5042  0.6069
 2416TIP3    H128663   2.696   3.085   4.274  0.1751  2.0621  1.2448
 2416TIP3    H228664   2.786   2.969   4.235 -0.9697  1.8097 -0.7719
 2417TIP3   OH228665   3.853   3.371   2.277 -0.3753  0.4366 -0.3497
 2417TIP3    H128666   3.917   3.300   2.267 -0.3173  0.5648 -0.9667
 2417TIP3    H228667   3.833   3.373   2.370  2.4461  2.0593  0.3665
 2418TIP3   OH228668   5.322   3.614  15.205 -0.3008  0.4539  0.7053
 2418TIP3    H128669   5.351   3.685  15.148 -1.6337 -0.6905 -1.5422
 2418TIP3    H228670   5.369   3.537  15.173 -2.7336 -0.6636 -0.4872
 2419TIP3   OH228671   5.207   3.043   4.216 -0.8272  0.5263  0.1520
 2419TIP3    H128672   5.158   2.969   4.253  1.1440 -1.0066 -0.1506
 2419TIP3    H228673   5.249   3.085   4.291 -0.3579  0.1112  0.1247
 2420TIP3   OH228674   5.410   6.122  10.686 -0.4153 -0.4697 -0.2538
 2420TIP3    H128675   5.429   6.215  10.670  1.2464 -0.3955  1.8332
 2420TIP3    H228676   5.490   6.076  10.660 -0.5428 -1.1224  0.4797
 2421TIP3   OH228677   5.853   1.031  17.150  0.0804  0.6340 -0.1041
 2421TIP3    H128678   5.919   0.988  17.204 -1.0741 -0.8105  0.2286
 2421TIP3    H228679   5.901   1.064  17.074  1.3255  0.5193  0.6100
 2422TIP3   OH228680   5.442   6.443  16.335 -0.1741 -0.0095  0.3595
 2422TIP3    H128681   5.369   6.501  16.311 -1.0441 -0.6731  1.3056
 2422TIP3    H228682   5.417   6.358  16.301 -1.0175 -0.7772  2.6948
 2423TIP3   OH228683   1.002   5.229   0.613  0.1929 -0.6438  0.1361
 2423TIP3    H128684   0.969   5.307   0.567 -0.3136 -1.0401 -0.1822
 2423TIP3    H228685   1.024   5.168   0.543 -1.4228 -1.5925  0.4137
 2424TIP3   OH228686   3.687   2.160  15.101 -0.0393  0.2549 -0.2992
 2424TIP3    H128687   3.703   2.151  15.007  0.0219 -0.0700 -0.2563
 2424TIP3    H228688   3.771   2.141  15.142 -0.4266 -1.1464 -0.0913
 2425TIP3   OH228689   0.965   5.077  12.434  0.4800 -0.2864 -0.1431
 2425TIP3    H128690   1.004   5.156  12.397 -1.2162  0.7934  0.2706
 2425TIP3    H228691   0.995   5.075  12.524  0.2325  0.1024 -0.0502
 2426TIP3   OH228692   1.272   0.788   6.006 -0.1078 -0.3535  0.5571
 2426TIP3    H128693   1.250   0.825   5.920 -0.4283  0.3626  0.9339
 2426TIP3    H228694   1.317   0.859   6.052  1.0042 -1.0789  0.6084
 2427TIP3   OH228695   3.538   1.257  12.930  0.0382 -0.0863  0.6546
 2427TIP3    H128696   3.619   1.224  12.892  0.4631  2.6236 -1.1133
 2427TIP3    H228697   3.567   1.316  13.000 -0.2179  1.9560 -0.8613
 2428TIP3   OH228698   3.883   4.432  14.444 -0.3976 -0.0654  0.5671
 2428TIP3    H128699   3.948   4.372  14.408 -0.6096  0.2270 -0.3258
 2428TIP3    H228700   3.800   4.383  14.441 -0.4851  0.0975  0.2867
 2429TIP3   OH228701   2.889   6.109   6.115 -0.9951  0.4771  0.2936
 2429TIP3    H128702   2.820   6.173   6.098 -1.6984 -0.2329  0.4003
 2429TIP3    H228703   2.923   6.132   6.201 -0.3754  1.4657 -0.1984
 2430TIP3   OH228704   2.692   5.155   2.039  0.1856 -0.3783  0.1270
 2430TIP3    H128705   2.631   5.224   2.066  1.2015  0.4269  0.4427
 2430TIP3    H228706   2.660   5.076   2.084 -1.1974 -0.2150 -0.5140
 2431TIP3   OH228707   3.530   4.356  16.861  0.5080  0.8780  0.3082
 2431TIP3    H128708   3.621   4.327  16.868  0.1612  0.0391  1.7247
 2431TIP3    H228709   3.520   4.380  16.769  2.1755  1.0615  0.1331
 2432TIP3   OH228710   5.509   4.033   1.704  0.0059  0.2968  0.1469
 2432TIP3    H128711   5.447   3.961   1.694  1.2658 -0.8374  0.2346
 2432TIP3    H228712   5.503   4.058   1.796  0.2795 -0.3852  0.3577
 2433TIP3   OH228713   0.818   2.472   4.593  0.1686 -0.1820 -0.0104
 2433TIP3    H128714   0.843   2.426   4.513  0.0513  1.0505 -0.7841
 2433TIP3    H228715   0.887   2.538   4.605 -1.0334  1.1733 -0.4009
 2434TIP3   OH228716   1.075   5.228   0.874  0.1395 -0.5094  0.3849
 2434TIP3    H128717   1.086   5.319   0.902  0.4682 -0.9717  1.8448
 2434TIP3    H228718   1.078   5.232   0.778 -1.1705  1.1809  0.3574
 2435TIP3   OH228719   2.455   3.682   0.321 -0.1148 -0.4213 -0.4228
 2435TIP3    H128720   2.369   3.704   0.286 -0.9883  2.8956  3.1832
 2435TIP3    H228721   2.515   3.742   0.277 -0.3082  0.0003 -0.1137
 2436TIP3   OH228722   3.161   4.466  12.387 -0.4141  0.2939 -0.9606
 2436TIP3    H128723   3.239   4.428  12.346 -0.3195 -0.9995  0.3616
 2436TIP3    H228724   3.138   4.405  12.457 -2.1232  1.0930 -0.7758
 2437TIP3   OH228725   3.132   2.325  12.228 -0.0370 -0.8236  0.0785
 2437TIP3    H128726   3.174   2.279  12.156  1.6608 -0.3657  0.7206
 2437TIP3    H228727   3.176   2.293  12.307 -0.4714  0.1296  0.7393
 2438TIP3   OH228728   5.048   0.171   3.973 -0.4037 -0.4561 -0.1417
 2438TIP3    H128729   5.000   0.174   4.056 -1.7365 -1.2653 -0.8467
 2438TIP3    H228730   5.018   0.247   3.924  1.4324  0.8397  0.6036
 2439TIP3   OH228731   4.043   3.642   3.563  0.1092  0.3148 -0.3537
 2439TIP3    H128732   4.001   3.591   3.493 -0.0077 -0.6215  0.3848
 2439TIP3    H228733   4.061   3.727   3.522 -1.4604  0.3632 -1.0517
 2440TIP3   OH228734   2.803   5.418   1.164 -0.2752  0.2554  0.2770
 2440TIP3    H128735   2.873   5.421   1.229 -0.1040 -1.6150  0.2493
 2440TIP3    H228736   2.825   5.487   1.102  0.6754  0.7349  1.1124
 2441TIP3   OH228737   2.654   5.791   5.463 -0.0210 -0.3715  0.2085
 2441TIP3    H128738   2.709   5.869   5.461  0.1110 -0.4358  0.9488
 2441TIP3    H228739   2.597   5.799   5.387  0.9910 -0.2809 -0.5589
 2442TIP3   OH228740   1.396   1.247  15.902  0.1530 -0.1764  0.2374
 2442TIP3    H128741   1.337   1.295  15.960  0.0163  0.3479 -0.3240
 2442TIP3    H228742   1.448   1.191  15.961 -0.4784 -0.1942  0.7917
 2443TIP3   OH228743   2.749   5.548   0.080  0.3023  0.2764  0.3267
 2443TIP3    H128744   2.811   5.618   0.058  1.5680 -0.1262  2.3260
 2443TIP3    H228745   2.743   5.495   0.001  1.4967  1.0670 -0.3327
 2444TIP3   OH228746   3.951   2.170   1.568 -0.0366  0.6440  0.3298
 2444TIP3    H128747   3.930   2.091   1.518 -2.5429  2.4795 -1.7929
 2444TIP3    H228748   4.041   2.155   1.599 -0.3938 -3.0020  0.1395
 2445TIP3   OH228749   6.057   1.150   4.842 -0.1821  0.7977  0.2758
 2445TIP3    H128750   6.089   1.161   4.753  0.6303  1.0462  0.5942
 2445TIP3    H228751   5.983   1.211   4.848  0.2666  1.3825  0.0139
 2446TIP3   OH228752   4.773   4.307   5.105 -0.1243  0.0689 -0.3527
 2446TIP3    H128753   4.685   4.272   5.119 -0.0671  0.5677  1.3552
 2446TIP3    H228754   4.783   4.376   5.170  2.6009 -1.9439  1.5686
 2447TIP3   OH228755   3.245   3.838   3.603 -0.1899 -0.1523 -0.0394
 2447TIP3    H128756   3.164   3.845   3.551 -0.9743 -1.4835  0.9250
 2447TIP3    H228757   3.221   3.876   3.688  0.1867 -0.5873  0.2603
 2448TIP3   OH228758   0.499   6.536   3.825 -0.7041 -0.5464 -0.2393
 2448TIP3    H128759   0.439   6.489   3.767  0.4001 -0.3737 -1.5754
 2448TIP3    H228760   0.586   6.505   3.799 -0.0716  0.8287  0.1515
 2449TIP3   OH228761   1.027   6.640   5.615  0.3982  0.4816  0.5211
 2449TIP3    H128762   1.075   6.624   5.696  1.0236 -0.6820 -0.0463
 2449TIP3    H228763   1.007   6.552   5.582  0.5845  0.9216 -0.8285
 2450TIP3   OH228764   3.501   1.715   1.614  0.0040  0.0737 -0.4463
 2450TIP3    H128765   3.473   1.652   1.547  0.5042 -1.1552  0.4691
 2450TIP3    H228766   3.579   1.676   1.653 -0.8682  0.2362  1.5734
 2451TIP3   OH228767   0.329   2.057   0.905 -0.2355 -0.4766  0.1971
 2451TIP3    H128768   0.266   2.008   0.958 -2.2352  0.4013 -1.2406
 2451TIP3    H228769   0.414   2.020   0.928 -1.4983 -3.5653  0.2891
 2452TIP3   OH228770   2.480   3.892   2.627 -0.0361 -0.2075 -0.5310
 2452TIP3    H128771   2.426   3.950   2.681 -0.2544  1.8795 -2.7947
 2452TIP3    H228772   2.569   3.926   2.636  0.1924 -0.8698 -0.2400
 2453TIP3   OH228773   1.463   6.067   2.075 -0.2150 -0.2614  0.1831
 2453TIP3    H128774   1.521   5.991   2.074 -0.3079 -0.3330 -0.4561
 2453TIP3    H228775   1.437   6.077   2.167  0.0075 -0.8393  0.3115
 2454TIP3   OH228776   2.797   6.627   2.255  0.6291 -0.4468 -0.1605
 2454TIP3    H128777   2.744   6.572   2.313 -0.0338 -0.2976 -0.6166
 2454TIP3    H228778   2.823   6.702   2.309 -0.6793  0.1100 -0.2831
 2455TIP3   OH228779   2.872   6.714  10.749  0.0306 -1.0112  0.0210
 2455TIP3    H128780   2.892   6.767  10.826 -0.2106  0.0916 -0.6508
 2455TIP3    H228781   2.865   6.777  10.678 -0.9179 -1.8905 -0.6876
 2456TIP3   OH228782   3.284   3.225   4.518 -0.3415  0.5139  0.5255
 2456TIP3    H128783   3.227   3.271   4.456 -2.7834 -1.4867  1.1298
 2456TIP3    H228784   3.363   3.279   4.522 -1.9467  3.1764 -0.7739
 2457TIP3   OH228785   6.700   3.559   5.361  0.2835  0.2663  0.6334
 2457TIP3    H128786   6.698   3.509   5.443  1.3477 -0.9423 -0.0373
 2457TIP3    H228787   6.733   3.645   5.387  0.3008  0.0061  1.5197
 2458TIP3   OH228788   5.889   1.130  12.616 -0.1392 -0.6054 -0.1819
 2458TIP3    H128789   5.960   1.072  12.586 -0.5442 -1.3222  0.2149
 2458TIP3    H228790   5.818   1.114  12.554 -0.1375 -0.2783 -0.2676
 2459TIP3   OH228791   3.133   4.308  14.754 -0.0665 -0.6144 -0.3040
 2459TIP3    H128792   3.194   4.298  14.827  2.8661 -1.4244 -2.6864
 2459TIP3    H228793   3.140   4.227  14.705 -1.0340  0.3741 -2.1682
 2460TIP3   OH228794   3.055   0.506   2.591  0.2699  0.2208 -0.5871
 2460TIP3    H128795   3.026   0.451   2.518 -0.2456  0.2672 -0.4223
 2460TIP3    H228796   3.049   0.450   2.668 -1.7146  0.8990 -0.1716
 2461TIP3   OH228797   4.561   0.749  16.194 -0.0528  0.2676  0.2539
 2461TIP3    H128798   4.633   0.811  16.181  0.4264  0.3746  2.8439
 2461TIP3    H228799   4.487   0.804  16.218 -0.4406 -0.0022 -0.2902
 2462TIP3   OH228800   1.380   3.106   4.079 -0.2393 -0.3216 -0.9554
 2462TIP3    H128801   1.415   3.035   4.133 -0.3744 -1.4480 -2.2876
 2462TIP3    H228802   1.437   3.107   4.002 -0.4246  0.8278 -1.0918
 2463TIP3   OH228803   4.293   5.047  12.244 -0.4042  0.5803  0.2425
 2463TIP3    H128804   4.364   5.090  12.196  0.0714 -0.7319 -0.2813
 2463TIP3    H228805   4.237   5.011  12.176 -1.4223  1.3234  0.6610
 2464TIP3   OH228806   2.861   1.637  12.346 -0.4542 -0.0554  0.7683
 2464TIP3    H128807   2.931   1.703  12.338 -0.1202 -0.3796  0.9887
 2464TIP3    H228808   2.805   1.671  12.416  0.0107 -0.2624  1.2513
 2465TIP3   OH228809   3.307   3.399   1.221  0.1446 -0.5816  0.4092
 2465TIP3    H128810   3.320   3.453   1.299  0.3764 -1.0462  0.6969
 2465TIP3    H228811   3.257   3.324   1.252  0.1232 -0.7033  0.0829
 2466TIP3   OH228812   3.779   2.424  16.373  0.2595 -0.4383  0.2142
 2466TIP3    H128813   3.812   2.493  16.430  1.6557 -0.0938 -0.9450
 2466TIP3    H228814   3.789   2.344  16.424  0.8561 -0.0610  0.7049
 2467TIP3   OH228815   5.022   5.535   0.897  0.1712 -0.1290  0.4646
 2467TIP3    H128816   5.050   5.626   0.887  0.5209 -0.3248 -0.4360
 2467TIP3    H228817   5.061   5.507   0.979  3.1612 -0.5438 -0.9530
 2468TIP3   OH228818   3.991   0.994   5.696  0.3723 -0.2506 -0.2788
 2468TIP3    H128819   4.028   0.980   5.783  0.2595  0.3658 -0.1276
 2468TIP3    H228820   4.062   0.969   5.636  0.2056 -1.3627 -0.0314
 2469TIP3   OH228821   2.010   0.901  12.518  0.2820 -0.0848 -0.2616
 2469TIP3    H128822   2.056   0.941  12.444 -0.9996  0.1332 -0.9685
 2469TIP3    H228823   2.009   0.808  12.499  0.5097 -0.1003 -0.1980
 2470TIP3   OH228824   6.187   1.860   3.650 -0.3494  0.1982  0.4388
 2470TIP3    H128825   6.232   1.795   3.597  0.3268  0.4918  0.6467
 2470TIP3    H228826   6.245   1.875   3.725 -0.6608  0.7793  0.5716
 2471TIP3   OH228827   6.787   6.747  17.081 -0.1935 -0.7722 -0.2489
 2471TIP3    H128828   6.724   6.820  17.075  0.0847 -0.3038  1.9512
 2471TIP3    H228829   6.816   6.748  17.172  3.3903 -0.6727 -1.2673
 2472TIP3   OH228830   5.341   5.986  17.186  0.0351 -0.2750  0.1342
 2472TIP3    H128831   5.411   5.974  17.250  0.4141  0.7174 -0.0620
 2472TIP3    H228832   5.357   6.074  17.150 -1.5830  0.1772  0.4208
 2473TIP3   OH228833   1.545   4.962  16.833 -0.3599  0.3665 -0.0664
 2473TIP3    H128834   1.469   4.999  16.788 -2.2906  0.6542  3.1117
 2473TIP3    H228835   1.563   5.024  16.903  3.3675  0.6406 -1.0846
 2474TIP3   OH228836   5.554   5.533  16.559 -0.5272  0.3459 -0.3916
 2474TIP3    H128837   5.539   5.627  16.549  2.7696  1.1288  0.6459
 2474TIP3    H228838   5.493   5.505  16.626 -1.3169  1.8175 -0.4580
 2475TIP3   OH228839   2.852   1.148  12.762  0.3091 -0.5463 -0.1652
 2475TIP3    H128840   2.843   1.229  12.713 -0.2871 -0.7016 -0.3158
 2475TIP3    H228841   2.860   1.080  12.696  0.2525 -0.6733 -0.0419
 2476TIP3   OH228842   1.343   0.568   6.290 -0.3727  0.3278  0.4004
 2476TIP3    H128843   1.253   0.599   6.280 -0.7592 -0.7761  0.2701
 2476TIP3    H228844   1.388   0.639   6.336 -0.8192  1.6833 -1.1642
 2477TIP3   OH228845   6.098   0.534  12.676  0.0392  0.8187  0.1748
 2477TIP3    H128846   6.030   0.594  12.645 -1.1975 -1.0307 -0.9034
 2477TIP3    H228847   6.065   0.503  12.760 -0.7032 -0.3804 -0.5310
 2478TIP3   OH228848   3.836   4.356  12.718  0.2332 -0.5635 -0.2548
 2478TIP3    H128849   3.921   4.332  12.683  0.6666  0.5717 -0.0009
 2478TIP3    H228850   3.810   4.434  12.668 -0.0515 -0.1269  0.5570
 2479TIP3   OH228851   4.041   4.437   5.449 -0.1986 -0.0720  0.0309
 2479TIP3    H128852   4.135   4.438   5.432 -0.1710  1.8150  0.0805
 2479TIP3    H228853   4.031   4.374   5.521  1.7481  3.0334  3.4068
 2480TIP3   OH228854   2.122   2.946  13.104  0.6911  0.3398  0.0235
 2480TIP3    H128855   2.144   2.853  13.106  0.4246  0.2392 -1.2766
 2480TIP3    H228856   2.206   2.991  13.093  0.8065  0.2600  0.5392
 2481TIP3   OH228857   2.444   3.379  16.045 -0.5599  0.4983  0.3558
 2481TIP3    H128858   2.530   3.339  16.060 -1.0028 -0.3332  0.7028
 2481TIP3    H228859   2.464   3.461  15.999  0.3754  0.0577 -0.0426
 2482TIP3   OH228860   4.554   5.818  12.326 -0.4270  0.3809  0.1230
 2482TIP3    H128861   4.499   5.741  12.345  0.0263 -0.1224 -0.5441
 2482TIP3    H228862   4.498   5.874  12.273 -0.3938 -0.0044 -0.3266
 2483TIP3   OH228863   1.292   1.462  13.079 -0.0205  0.1976  0.6961
 2483TIP3    H128864   1.228   1.526  13.108 -0.0758  0.2919  0.3729
 2483TIP3    H228865   1.357   1.512  13.030 -0.5719 -0.1091 -0.3823
 2484TIP3   OH228866   0.862   3.671  11.348 -1.2256 -0.0017 -0.1920
 2484TIP3    H128867   0.890   3.699  11.261  1.7008 -0.3737  0.5254
 2484TIP3    H228868   0.919   3.719  11.408 -1.2129 -1.8297  1.3657
 2485TIP3   OH228869   6.631   2.753  14.785 -0.5225  0.2003  0.1895
 2485TIP3    H128870   6.626   2.676  14.730 -1.1837  0.5486 -0.2398
 2485TIP3    H228871   6.669   2.721  14.867  1.5106 -0.1282 -0.8075
 2486TIP3   OH228872   4.203   0.154   2.631 -0.2796  0.0637 -0.6201
 2486TIP3    H128873   4.160   0.085   2.581  2.0628 -0.6172 -1.9020
 2486TIP3    H228874   4.170   0.235   2.593 -1.1908 -0.3828 -0.8135
 2487TIP3   OH228875   1.179   3.354  13.917  0.2888  0.0725  0.1730
 2487TIP3    H128876   1.230   3.276  13.895  0.7339  0.4481 -0.1484
 2487TIP3    H228877   1.186   3.362  14.012  1.9543  0.8633  0.0184
 2488TIP3   OH228878   1.783   5.833  16.334  0.3427 -0.1450  0.2259
 2488TIP3    H128879   1.773   5.757  16.392  1.8361 -0.3496  0.2722
 2488TIP3    H228880   1.872   5.825  16.300  0.5012  1.5355  0.1497
 2489TIP3   OH228881   6.175   0.915  15.414  0.4347 -0.3019 -0.0083
 2489TIP3    H128882   6.086   0.947  15.429  0.1551 -1.0160 -0.1097
 2489TIP3    H228883   6.181   0.836  15.468  0.2460 -1.5129 -1.6739
 2490TIP3   OH228884   5.916   4.081  13.247  0.2433  0.2034 -0.3695
 2490TIP3    H128885   5.918   4.014  13.178  1.4875 -0.3631  0.1902
 2490TIP3    H228886   5.828   4.073  13.284 -0.3392  0.3010 -1.6648
 2491TIP3   OH228887   1.174   1.893   2.547 -0.1619  0.5846 -0.1822
 2491TIP3    H128888   1.223   1.975   2.538  0.4302  0.5503  1.9645
 2491TIP3    H228889   1.225   1.842   2.611 -1.8889 -0.3366  0.5291
 2492TIP3   OH228890   5.648   5.726  11.209  0.2650 -0.1217 -0.0453
 2492TIP3    H128891   5.691   5.792  11.263 -1.5658  0.2050  1.0824
 2492TIP3    H228892   5.613   5.776  11.134  1.8749 -0.4093 -1.0373
 2493TIP3   OH228893   2.079   6.124   4.176 -0.0062  0.4697 -0.0412
 2493TIP3    H128894   2.097   6.175   4.097  0.1227  3.0172  1.5152
 2493TIP3    H228895   2.055   6.190   4.241 -0.4275 -1.5710  1.9644
 2494TIP3   OH228896   6.457   5.703   2.007 -0.2789  0.1533 -0.0493
 2494TIP3    H128897   6.445   5.719   2.100  0.6888  0.4018  0.0442
 2494TIP3    H228898   6.421   5.616   1.992  0.0130 -0.0943  0.6598
 2495TIP3   OH228899   5.745   5.951   3.670 -0.1916  0.4336  0.0933
 2495TIP3    H128900   5.791   5.879   3.627 -1.2852 -0.6276  0.6324
 2495TIP3    H228901   5.735   5.922   3.761 -0.9320  1.1190  0.2423
 2496TIP3   OH228902   5.146   1.810  10.707  0.7534  0.3537  0.8286
 2496TIP3    H128903   5.052   1.800  10.690  1.1829 -0.4400 -1.4650
 2496TIP3    H228904   5.184   1.826  10.621  2.6304  1.6917  1.8431
 2497TIP3   OH228905   3.924   5.262   3.307 -0.0420 -0.3586  0.9235
 2497TIP3    H128906   3.959   5.175   3.288  0.5138 -0.5586  2.6825
 2497TIP3    H228907   3.998   5.310   3.344 -0.0712  1.2226 -0.8893
 2498TIP3   OH228908   0.180   2.935  16.980  0.6287 -0.4918  0.4712
 2498TIP3    H128909   0.186   2.887  17.063  1.3760 -0.6213  0.3492
 2498TIP3    H228910   0.129   3.013  17.002 -0.0735 -1.0297  0.8088
 2499TIP3   OH228911   5.741   3.858  16.018  0.1438  0.3465 -0.2496
 2499TIP3    H128912   5.830   3.861  15.981  1.7147 -0.7084  3.0732
 2499TIP3    H228913   5.716   3.950  16.027  1.4772  0.6998  0.0309
 2500TIP3   OH228914   5.964   0.487   6.627 -0.3072 -0.0547 -0.3357
 2500TIP3    H128915   5.975   0.572   6.669  0.6309  0.0876 -0.8479
 2500TIP3    H228916   6.037   0.480   6.565 -0.9619 -0.7753 -1.0642
 2501TIP3   OH228917   5.863   1.902   5.450 -0.1794  0.3065 -0.4147
 2501TIP3    H128918   5.941   1.909   5.395 -0.2498 -0.0485 -0.5650
 2501TIP3    H228919   5.879   1.825   5.505  0.3194  1.2164  0.7652
 2502TIP3   OH228920   6.302   1.399   4.050  0.0868 -1.0828 -0.7184
 2502TIP3    H128921   6.210   1.413   4.072  0.2541  0.7335 -1.0094
 2502TIP3    H228922   6.302   1.376   3.958 -0.1088 -1.7166 -0.5656
 2503TIP3   OH228923   4.110   3.282  13.442 -0.3319  0.4196  0.1579
 2503TIP3    H128924   4.187   3.227  13.424 -0.7157 -0.3132  0.6968
 2503TIP3    H228925   4.054   3.227  13.496 -1.4205  0.8030 -0.5529
 2504TIP3   OH228926   3.301   2.110   1.106  0.3118  0.6817 -0.4293
 2504TIP3    H128927   3.396   2.112   1.114  0.3214  2.0657 -0.6583
 2504TIP3    H228928   3.285   2.098   1.012  0.2495  0.3956 -0.3847
 2505TIP3   OH228929   4.739   1.085   0.864  0.0916 -0.4728  0.2489
 2505TIP3    H128930   4.770   1.175   0.859 -0.0596 -0.3751  0.9202
 2505TIP3    H228931   4.692   1.071   0.782  2.5053 -0.8761 -1.1509
 2506TIP3   OH228932   5.000   0.525   4.751 -0.1493 -0.1512 -0.2316
 2506TIP3    H128933   4.947   0.597   4.782 -0.2485 -0.1909 -0.3092
 2506TIP3    H228934   4.938   0.466   4.708 -0.3044 -0.9938  1.0912
 2507TIP3   OH228935   6.582   2.062  11.607  0.1634  0.2139 -0.5447
 2507TIP3    H128936   6.569   2.010  11.528  1.2697 -0.8970 -0.0319
 2507TIP3    H228937   6.661   2.114  11.590 -1.0371  1.9333 -1.1256
 2508TIP3   OH228938   4.726   6.376  15.335 -0.0957 -0.4636 -0.6928
 2508TIP3    H128939   4.793   6.412  15.393 -0.1864  0.6895 -1.2764
 2508TIP3    H228940   4.770   6.364  15.251 -0.6415  0.4381 -1.1225
 2509TIP3   OH228941   5.262   6.043  16.494  0.3417  0.8601  0.1819
 2509TIP3    H128942   5.235   5.978  16.559 -1.9335 -0.6118 -2.0295
 2509TIP3    H228943   5.248   6.127  16.537 -0.6220 -0.0551  1.7679
 2510TIP3   OH228944   6.130   0.516   1.229 -0.2893 -0.2870 -0.0054
 2510TIP3    H128945   6.103   0.583   1.166  2.7434 -0.0853 -1.2985
 2510TIP3    H228946   6.182   0.564   1.294  0.6627 -1.1300 -0.1138
 2511TIP3   OH228947   0.882   2.565  14.909 -0.0189  0.3912 -0.5530
 2511TIP3    H128948   0.811   2.514  14.948 -0.1142  0.2681 -0.8777
 2511TIP3    H228949   0.838   2.629  14.854  0.1232 -1.2958 -2.7720
 2512TIP3   OH228950   4.206   0.130  11.070  0.0507 -0.4231 -0.0712
 2512TIP3    H128951   4.143   0.098  11.006  0.7374 -0.7367 -0.6016
 2512TIP3    H228952   4.288   0.086  11.048  1.1957  2.0179 -1.1508
 2513TIP3   OH228953   4.005   3.433  17.081 -0.1646  0.0969 -0.1392
 2513TIP3    H128954   3.979   3.379  17.156  2.3390 -1.0922 -0.0398
 2513TIP3    H228955   3.994   3.374  17.005  0.9068  0.0095 -0.2382
 2514TIP3   OH228956   3.312   0.949  12.839 -0.0194  0.2168 -0.2921
 2514TIP3    H128957   3.230   0.958  12.789 -0.4266  0.1016  0.3525
 2514TIP3    H228958   3.369   1.017  12.802 -1.6462  2.8625  1.7142
 2515TIP3   OH228959   2.462   2.802   2.513  0.2441 -0.2925  0.5840
 2515TIP3    H128960   2.487   2.710   2.503 -1.1599 -0.5819 -0.4913
 2515TIP3    H228961   2.511   2.847   2.444 -0.2600 -0.4791  0.0985
 2516TIP3   OH228962   6.351   3.973   0.862  0.6152  0.0817 -0.8481
 2516TIP3    H128963   6.437   4.010   0.884  0.0132  0.5270  0.9112
 2516TIP3    H228964   6.289   4.041   0.888 -0.3794 -1.1352  0.0293
 2517TIP3   OH228965   5.832   0.406   1.117  0.7431 -0.3274 -0.3343
 2517TIP3    H128966   5.903   0.343   1.110  1.4443  0.4169 -0.0988
 2517TIP3    H228967   5.862   0.482   1.067 -0.3275 -0.3743 -1.0858
 2518TIP3   OH228968   6.096   2.067   3.426 -0.3538 -0.6760 -0.1957
 2518TIP3    H128969   6.075   1.990   3.479 -1.5268  0.0939  0.4898
 2518TIP3    H228970   6.128   2.132   3.489  0.8994 -0.6649 -0.8022
 2519TIP3   OH228971   2.372   0.647   1.029 -0.2487 -0.1774  0.0921
 2519TIP3    H128972   2.426   0.628   0.952  1.6512 -0.5542  1.4539
 2519TIP3    H228973   2.332   0.732   1.009  1.8114  0.7283 -0.5167
 2520TIP3   OH228974   4.003   3.212   5.666  0.2361 -0.0057 -0.2060
 2520TIP3    H128975   3.960   3.184   5.746 -1.7437  0.4282 -1.0527
 2520TIP3    H228976   3.932   3.227   5.604  1.4455  2.5094 -1.1665
 2521TIP3   OH228977   5.376   3.938   0.684 -0.3051  0.6770 -0.7839
 2521TIP3    H128978   5.318   4.014   0.687 -0.8049  0.2566  0.5931
 2521TIP3    H228979   5.361   3.892   0.766  0.3265 -0.6805 -1.3960
 2522TIP3   OH228980   0.749   1.951  13.173  0.3999 -0.2011  0.1679
 2522TIP3    H128981   0.812   1.901  13.122  0.0956 -0.5548  0.1399
 2522TIP3    H228982   0.731   1.897  13.250 -0.4741 -0.4714 -0.2118
 2523TIP3   OH228983   2.918   0.177   1.825 -0.7191 -0.1368 -0.2530
 2523TIP3    H128984   2.977   0.104   1.805 -1.3109 -0.7353  0.1583
 2523TIP3    H228985   2.973   0.239   1.873  0.0794  0.2084 -1.5469
 2524TIP3   OH228986   5.805   6.601  12.498  0.4774  0.5505  0.4973
 2524TIP3    H128987   5.868   6.563  12.560  1.0912  1.4708  0.4543
 2524TIP3    H228988   5.730   6.542  12.502 -0.3906  1.6503  3.6932
 2525TIP3   OH228989   6.467   1.164  11.085  0.3947  0.1216  0.6726
 2525TIP3    H128990   6.406   1.100  11.049  0.5933  0.3181 -0.0301
 2525TIP3    H228991   6.499   1.213  11.009 -0.8223  2.0116  1.3072
 2526TIP3   OH228992   0.381   6.258   3.464  0.8278  0.0132  0.3669
 2526TIP3    H128993   0.464   6.239   3.509  0.6581 -1.4881  0.1075
 2526TIP3    H228994   0.402   6.250   3.371  0.4183 -0.2298  0.2948
 2527TIP3   OH228995   2.347   0.270  14.371  0.3392 -0.1716  0.3106
 2527TIP3    H128996   2.347   0.339  14.438 -0.1929 -0.2043  0.3421
 2527TIP3    H228997   2.278   0.295  14.310  0.7533 -0.1934 -0.1826
 2528TIP3   OH228998   6.477   2.200  11.228  0.2652 -0.0378 -0.0460
 2528TIP3    H128999   6.557   2.147  11.224  0.2740 -0.0230 -0.0651
 2528TIP3    H229000   6.442   2.198  11.139  1.6945  2.1704 -0.7388
 2529TIP3   OH229001   5.546   6.483  12.130  0.2395  0.4059  0.3387
 2529TIP3    H129002   5.628   6.438  12.151 -0.3641 -0.0309  1.8991
 2529TIP3    H229003   5.492   6.415  12.090  0.3686  0.5076 -0.0138
 2530TIP3   OH229004   2.247   1.123  15.963  0.5074  0.1965  0.0619
 2530TIP3    H129005   2.155   1.119  15.938  0.4162  0.3790  0.3661
 2530TIP3    H229006   2.264   1.215  15.982  0.9646  0.2921 -0.7603
 2531TIP3   OH229007   4.031   6.418   3.313 -0.4875 -0.3569 -0.1893
 2531TIP3    H129008   4.034   6.506   3.351 -0.8003 -0.5294  0.2484
 2531TIP3    H229009   3.979   6.428   3.234 -0.1235 -0.0574 -0.3942
 2532TIP3   OH229010   3.982   4.561  13.234 -0.6007 -0.2368  0.3672
 2532TIP3    H129011   3.908   4.620  13.217 -0.8774 -0.6927 -0.0355
 2532TIP3    H229012   4.013   4.586  13.321 -0.9299  0.2753  0.3409
 2533TIP3   OH229013   5.102   3.959   5.085 -0.7431 -0.0343  0.3290
 2533TIP3    H129014   5.076   4.046   5.114  0.8455  0.3630  0.6708
 2533TIP3    H229015   5.085   3.959   4.991 -0.2618  0.8588  0.2255
 2534TIP3   OH229016   1.729   0.924  16.484  0.6354 -0.0334 -0.0102
 2534TIP3    H129017   1.789   0.969  16.425  1.1185  2.6265  2.2865
 2534TIP3    H229018   1.784   0.895  16.557 -0.5362  0.7415  1.2240
 2535TIP3   OH229019   4.604   0.701   0.793  0.2862  0.7714  0.3392
 2535TIP3    H129020   4.668   0.738   0.853 -0.8620 -0.2515  2.3065
 2535TIP3    H229021   4.553   0.640   0.846 -0.8168 -0.2070 -1.6904
 2536TIP3   OH229022   5.256   4.591  15.205 -0.3983 -0.4983  0.3227
 2536TIP3    H129023   5.306   4.649  15.262 -0.1570 -1.1062  0.7469
 2536TIP3    H229024   5.175   4.638  15.186 -0.4971 -0.3039  1.2051
 2537TIP3   OH229025   4.772   2.386  14.059 -0.1761 -0.0133  0.0197
 2537TIP3    H129026   4.756   2.330  13.983  0.4957 -0.3176  0.1022
 2537TIP3    H229027   4.693   2.441  14.065 -1.3509 -1.6944  0.6053
 2538TIP3   OH229028   1.738   4.844  15.721 -0.0920  0.6575  0.6944
 2538TIP3    H129029   1.674   4.873  15.656  0.8491  1.2950  0.0291
 2538TIP3    H229030   1.687   4.831  15.801 -0.9533  1.8239  0.3601
 2539TIP3   OH229031   0.704   3.399  16.270  0.0125  0.0584 -0.1538
 2539TIP3    H129032   0.788   3.408  16.316 -0.3934 -0.4660  0.7224
 2539TIP3    H229033   0.638   3.421  16.337 -0.5285  1.0864 -1.0049
 2540TIP3   OH229034   1.741   5.658   3.594 -0.3246  0.1996 -0.0022
 2540TIP3    H129035   1.742   5.683   3.687 -2.8782 -0.3802  0.2424
 2540TIP3    H229036   1.778   5.570   3.593 -0.5780  0.0789  0.5171
 2541TIP3   OH229037   2.729   6.526   3.639 -0.1587  0.5793  0.4360
 2541TIP3    H129038   2.815   6.567   3.637 -0.2203  0.8392  1.8727
 2541TIP3    H229039   2.674   6.589   3.686 -0.4228 -0.8052  2.1101
 2542TIP3   OH229040   4.856   2.014   3.091 -0.1467 -0.1063  0.0634
 2542TIP3    H129041   4.879   2.028   3.183 -1.7489 -1.2759  0.6911
 2542TIP3    H229042   4.909   1.940   3.063  1.3053  1.0573 -0.3875
 2543TIP3   OH229043   6.430   5.074   5.063  0.5439  0.0600  0.4492
 2543TIP3    H129044   6.472   4.988   5.064  0.0960 -0.1739 -0.1875
 2543TIP3    H229045   6.336   5.055   5.061  0.4436  0.5621  0.1870
 2544TIP3   OH229046   3.472   6.679  16.248 -0.8523  0.1344  0.2335
 2544TIP3    H129047   3.421   6.759  16.263 -0.4454  0.5027 -0.3259
 2544TIP3    H229048   3.544   6.684  16.310  0.2273  1.1327 -1.0507
 2545TIP3   OH229049   1.477   5.588   0.107 -0.5887  0.3603  0.4354
 2545TIP3    H129050   1.392   5.627   0.086 -0.1480  0.7956 -0.6450
 2545TIP3    H229051   1.506   5.548   0.025  0.7565  1.2238  0.4539
 2546TIP3   OH229052   6.692   4.183   2.381 -0.1283  0.6024 -0.1865
 2546TIP3    H129053   6.665   4.227   2.462 -0.2224  2.6010 -1.2411
 2546TIP3    H229054   6.612   4.142   2.348 -0.0175 -0.5162  0.8605
 2547TIP3   OH229055   1.938   2.538  12.383 -0.1560  0.3064 -0.4104
 2547TIP3    H129056   1.937   2.457  12.333 -0.1604  0.3955 -0.5534
 2547TIP3    H229057   1.963   2.511  12.471 -1.6272 -0.0834 -0.0725
 2548TIP3   OH229058   1.823   0.167  15.707  0.3622 -0.1598 -0.1724
 2548TIP3    H129059   1.914   0.169  15.681  0.4319  1.4237  0.0745
 2548TIP3    H229060   1.791   0.081  15.678  1.0358  0.5080 -3.2283
 2549TIP3   OH229061   5.594   5.490   1.907  0.2795  0.0757 -0.4203
 2549TIP3    H129062   5.649   5.493   1.829  0.5504 -1.1672 -0.2986
 2549TIP3    H229063   5.640   5.432   1.967 -1.4460 -1.5534 -0.5714
 2550TIP3   OH229064   4.980   0.677   6.088  0.7654 -0.2815 -0.1686
 2550TIP3    H129065   4.983   0.771   6.106  1.7409  0.2912 -2.8377
 2550TIP3    H229066   5.060   0.642   6.125  1.7989  0.4996 -1.5684
 2551TIP3   OH229067   6.449   1.591  16.820 -0.8778 -1.1684 -0.2715
 2551TIP3    H129068   6.384   1.616  16.885 -1.0031 -2.3579  0.0675
 2551TIP3    H229069   6.514   1.662  16.824 -1.0712 -1.0360  0.8757
 2552TIP3   OH229070   0.340   1.402   2.617 -0.0405  0.0063 -0.0403
 2552TIP3    H129071   0.299   1.326   2.656 -1.0487  0.8540  0.6050
 2552TIP3    H229072   0.418   1.418   2.670 -0.9655  0.6705  1.1706
 2553TIP3   OH229073   5.561   1.247  15.366 -0.6613  0.0342 -0.2173
 2553TIP3    H129074   5.551   1.170  15.421 -3.1706 -0.0735 -0.7225
 2553TIP3    H229075   5.594   1.213  15.283 -2.0619 -0.5836 -0.5480
 2554TIP3   OH229076   2.975   5.524  16.974  0.2369  0.0825 -0.1443
 2554TIP3    H129077   2.925   5.604  16.958 -0.7850 -0.0260  2.1122
 2554TIP3    H229078   3.060   5.554  17.005  0.0737  0.2979  0.0990
 2555TIP3   OH229079   4.370   5.465   2.812  0.2658  0.0803 -0.0954
 2555TIP3    H129080   4.375   5.535   2.747  1.6235 -0.4885 -0.6527
 2555TIP3    H229081   4.282   5.472   2.849 -0.4388  0.6185 -1.7792
 2556TIP3   OH229082   2.802   0.974   0.233  0.3747 -0.2162 -0.0537
 2556TIP3    H129083   2.784   1.067   0.218 -0.9905 -0.5675 -0.7877
 2556TIP3    H229084   2.720   0.930   0.210  1.2936 -1.6950 -0.6360
 2557TIP3   OH229085   3.019   4.524  15.551  0.9398 -0.3657  0.5835
 2557TIP3    H129086   2.953   4.558  15.611  0.1499 -1.4495  0.3787
 2557TIP3    H229087   3.073   4.466  15.605  0.2680 -1.2911  0.3004
 2558TIP3   OH229088   3.049   0.442   4.559  0.1154  0.0033 -0.5638
 2558TIP3    H129089   2.955   0.426   4.571  0.0572  1.7642  2.2236
 2558TIP3    H229090   3.088   0.424   4.645  1.9623  1.4751 -1.0141
 2559TIP3   OH229091   6.159   1.624  16.345 -0.5455  0.3096 -0.1840
 2559TIP3    H129092   6.206   1.614  16.428  2.2345 -0.2019 -1.6958
 2559TIP3    H229093   6.196   1.556  16.288 -1.4423  1.4425 -2.2117
 2560TIP3   OH229094   2.990   6.785  12.511  0.2815 -0.4551  0.2578
 2560TIP3    H129095   2.957   6.841  12.581  0.2271 -1.7845  1.3407
 2560TIP3    H229096   2.979   6.837  12.431 -1.8500  0.2191  0.9264
 2561TIP3   OH229097   5.101   4.343  15.236 -0.4261 -0.2769 -0.2610
 2561TIP3    H129098   5.190   4.310  15.254  0.2109  2.1070  1.5587
 2561TIP3    H229099   5.115   4.427  15.192 -1.6975  0.6824  1.0654
 2562TIP3   OH229100   0.945   6.471   2.146 -0.1261 -0.1483  0.3545
 2562TIP3    H129101   0.936   6.493   2.053  1.1484  0.6703  0.4036
 2562TIP3    H229102   0.957   6.555   2.190  3.2854 -0.6797  0.7431
 2563TIP3   OH229103   3.442   2.633   5.388 -0.2367  0.0117  0.1281
 2563TIP3    H129104   3.363   2.641   5.334 -0.5935  1.6555  0.8134
 2563TIP3    H229105   3.424   2.686   5.465  0.6369 -1.5161  1.4465
 2564TIP3   OH229106   5.971   2.691   0.363 -0.3430 -0.1341 -0.1143
 2564TIP3    H129107   6.042   2.665   0.421  0.5537  1.0396 -0.6348
 2564TIP3    H229108   5.892   2.684   0.417  0.3838  0.2653  1.0513
 2565TIP3   OH229109   3.079   0.000   0.729  0.8752 -0.3095  0.0095
 2565TIP3    H129110   3.120  -0.079   0.764 -0.3442 -1.0580 -0.1782
 2565TIP3    H229111   3.071  -0.016   0.635  2.2509  0.8183 -0.3317
 2566TIP3   OH229112   5.647   1.775   3.380 -0.1099 -0.0252  0.3557
 2566TIP3    H129113   5.733   1.811   3.399 -0.0645 -0.7592  1.5998
 2566TIP3    H229114   5.589   1.812   3.446 -0.3703 -0.9905  0.6862
 2567TIP3   OH229115   3.174   3.579   2.402  0.2598 -0.3418 -0.0440
 2567TIP3    H129116   3.126   3.534   2.472 -1.6605  0.2937 -0.8724
 2567TIP3    H229117   3.218   3.509   2.354 -1.3284 -1.2033 -0.3223
 2568TIP3   OH229118   5.136   3.633   4.704 -0.3560 -0.4474  0.2320
 2568TIP3    H129119   5.131   3.632   4.800 -0.4620 -1.2453  0.2239
 2568TIP3    H229120   5.194   3.706   4.684  1.4134 -1.5715  1.0020
 2569TIP3   OH229121   5.142   6.489  17.044  1.0501 -0.2916  0.2622
 2569TIP3    H129122   5.234   6.503  17.068  1.0036 -0.8709  0.8088
 2569TIP3    H229123   5.094   6.500  17.126  0.6940 -0.5476  0.0892
 2570TIP3   OH229124   2.763   5.281  14.468 -0.5364 -0.1398  0.2695
 2570TIP3    H129125   2.801   5.195  14.488  0.9711  0.9431  2.5089
 2570TIP3    H229126   2.795   5.301  14.380 -1.6442 -2.1692 -0.6882
 2571TIP3   OH229127   5.606   3.915   0.865  0.5121 -0.2698  0.5573
 2571TIP3    H129128   5.543   3.965   0.813  0.2076 -0.4635  0.7440
 2571TIP3    H229129   5.601   3.826   0.831  0.7439 -0.2697  0.5187
 2572TIP3   OH229130   0.042   0.882   1.546  0.0738  0.5662  1.0362
 2572TIP3    H129131   0.042   0.852   1.636 -1.7778 -0.8209  0.6384
 2572TIP3    H229132   0.021   0.803   1.495 -1.3225  1.7899 -0.3771
 2573TIP3   OH229133   3.547   3.632  11.226  0.6029 -0.0702 -0.2579
 2573TIP3    H129134   3.584   3.721  11.227 -1.1507  0.7164  1.2117
 2573TIP3    H229135   3.504   3.625  11.141  2.0514 -0.1204 -1.0171
 2574TIP3   OH229136   6.500   6.458  14.168 -0.6216  0.2174  0.2009
 2574TIP3    H129137   6.462   6.535  14.212 -0.4744  0.2162  0.3329
 2574TIP3    H229138   6.429   6.421  14.117 -0.3320  1.3026 -1.0438
 2575TIP3   OH229139   0.244   4.968   4.520  0.0164 -0.3134  1.1753
 2575TIP3    H129140   0.320   4.911   4.536  0.3448 -0.2975 -0.2326
 2575TIP3    H229141   0.175   4.931   4.575  0.0468 -2.4231 -0.0909
 2576TIP3   OH229142   5.980   3.858   6.309  0.6035  0.0131 -0.0314
 2576TIP3    H129143   6.059   3.807   6.294 -0.0100 -1.3640  1.1935
 2576TIP3    H229144   5.960   3.844   6.402 -1.3645 -0.1049 -0.4384
 2577TIP3   OH229145   1.034   1.331  12.193 -0.1296 -0.3417  0.2407
 2577TIP3    H129146   0.973   1.259  12.207  0.9279 -1.4285 -0.5226
 2577TIP3    H229147   1.029   1.383  12.274 -2.1811 -0.2618  0.1108
 2578TIP3   OH229148   6.145   6.015  16.540 -0.2447  0.0807 -0.2990
 2578TIP3    H129149   6.239   5.996  16.543  0.7341  3.8655 -1.2591
 2578TIP3    H229150   6.120   5.992  16.451  0.8148  2.4933 -1.3208
 2579TIP3   OH229151   2.411   4.974   3.978 -0.2560  0.0202 -0.0514
 2579TIP3    H129152   2.436   4.941   4.064 -0.2875  0.4818  0.1384
 2579TIP3    H229153   2.465   4.924   3.917  0.3210  0.2160  0.2837
 2580TIP3   OH229154   4.871   0.434  14.020 -0.4858  0.3264 -0.4774
 2580TIP3    H129155   4.810   0.506  14.031 -0.9655 -0.0923 -0.3385
 2580TIP3    H229156   4.856   0.402  13.931 -1.9755 -1.1095  0.2421
 2581TIP3   OH229157   5.595   0.194   0.353  0.5230 -0.2964  0.1848
 2581TIP3    H129158   5.591   0.104   0.384  1.3118 -0.5982 -0.5342
 2581TIP3    H229159   5.653   0.238   0.415  1.0160 -0.5659 -0.0729
 2582TIP3   OH229160   1.665   6.023   1.101 -0.0014 -0.1401 -0.4192
 2582TIP3    H129161   1.654   6.112   1.067  2.4724  1.3072  2.1851
 2582TIP3    H229162   1.742   5.989   1.055 -0.4200 -0.6354 -0.7717
 2583TIP3   OH229163   1.518   6.365  15.708 -0.0719  0.2269 -0.6208
 2583TIP3    H129164   1.431   6.404  15.714 -0.6067 -0.4308 -3.0486
 2583TIP3    H229165   1.556   6.379  15.795 -2.2252  1.3457  0.2316
 2584TIP3   OH229166   2.983   2.879   6.927  0.1153 -0.0030 -0.2857
 2584TIP3    H129167   2.920   2.808   6.940  0.6740 -0.4297  0.1005
 2584TIP3    H229168   3.006   2.907   7.016 -0.0337  0.6121 -0.4307
 2585TIP3   OH229169   3.457   4.336  12.859 -0.2636 -0.3436 -0.3301
 2585TIP3    H129170   3.466   4.347  12.765  0.7982  1.7812 -0.0542
 2585TIP3    H229171   3.537   4.292  12.887  0.0673  0.2741 -0.2815
 2586TIP3   OH229172   1.052   3.426   4.632  0.5041  0.2849  0.1664
 2586TIP3    H129173   1.043   3.342   4.676 -3.4829  0.7093  0.5671
 2586TIP3    H229174   1.085   3.485   4.700  0.3836 -0.3462  0.7852
 2587TIP3   OH229175   3.376   2.797   4.899  0.5290  0.0767  0.1067
 2587TIP3    H129176   3.281   2.796   4.908  0.6115 -1.0387  1.1652
 2587TIP3    H229177   3.396   2.880   4.858 -0.9629  0.0203 -0.7857
 2588TIP3   OH229178   2.982   3.217  16.980  0.2404  0.1046  0.2370
 2588TIP3    H129179   3.063   3.194  17.025 -0.8441 -1.6999  1.4049
 2588TIP3    H229180   2.941   3.283  17.036  0.6273  0.6032 -0.0626
 2589TIP3   OH229181   6.445   0.433   5.476  0.6978 -0.1132 -0.0290
 2589TIP3    H129182   6.506   0.422   5.403  0.6289 -1.2923  0.0746
 2589TIP3    H229183   6.440   0.347   5.516  0.0250  0.3063  0.8151
 2590TIP3   OH229184   5.882   2.405   3.998  0.2279  0.6355 -0.2720
 2590TIP3    H129185   5.795   2.440   3.977 -0.2707  0.3596  1.2255
 2590TIP3    H229186   5.902   2.347   3.924  0.6284  3.1556 -2.3108
 2591TIP3   OH229187   3.794   3.884   5.268 -0.1926 -0.1742  0.1729
 2591TIP3    H129188   3.805   3.977   5.285  0.5525 -0.2389  0.0702
 2591TIP3    H229189   3.853   3.866   5.195 -1.0789 -0.5230 -0.4840
 2592TIP3   OH229190   1.171   5.157   2.996 -0.4779  0.0848  0.3384
 2592TIP3    H129191   1.228   5.112   2.935 -0.0918  0.0431  0.7206
 2592TIP3    H229192   1.122   5.088   3.040 -0.1848  0.0618  0.6319
 2593TIP3   OH229193   6.188   3.711  11.072  0.1643  0.2094  0.0447
 2593TIP3    H129194   6.156   3.702  11.162 -2.3265  1.8193 -0.5755
 2593TIP3    H229195   6.109   3.703  11.018  1.5423 -0.2986 -1.9819
 2594TIP3   OH229196   5.106   4.279  14.861  0.3770 -0.5313 -0.7209
 2594TIP3    H129197   5.180   4.312  14.911  1.4340 -1.6578 -1.4986
 2594TIP3    H229198   5.029   4.314  14.906  1.3296 -0.3965  0.8505
 2595TIP3   OH229199   4.654   6.469   0.916 -0.4779 -0.0540  0.1159
 2595TIP3    H129200   4.614   6.549   0.883 -1.8270 -0.0631  1.5887
 2595TIP3    H229201   4.675   6.488   1.007 -1.7314 -1.6318  0.7950
 2596TIP3   OH229202   0.886   2.169   5.858  0.4660 -0.0581 -0.1052
 2596TIP3    H129203   0.929   2.223   5.924  1.3274  0.2361 -0.8954
 2596TIP3    H229204   0.948   2.098   5.841  0.5440  0.2222 -1.0531
 2597TIP3   OH229205   2.869   1.789   1.846  0.1269  0.1418  0.1757
 2597TIP3    H129206   2.928   1.744   1.787  0.5769 -0.8407  1.3344
 2597TIP3    H229207   2.798   1.727   1.862  0.6976 -0.1586  1.7076
 2598TIP3   OH229208   0.585   4.682  12.948  0.3068 -0.2387 -0.2770
 2598TIP3    H129209   0.581   4.777  12.940  0.2298 -0.2386 -0.2470
 2598TIP3    H229210   0.675   4.659  12.926  0.9435  0.0441  1.7890
 2599TIP3   OH229211   4.646   1.757  12.534 -0.4458 -0.0396 -0.4828
 2599TIP3    H129212   4.682   1.830  12.482 -1.4025  0.4104 -0.5436
 2599TIP3    H229213   4.644   1.683  12.473  1.1192 -0.3103 -0.2426
 2600TIP3   OH229214   5.239   2.893  14.315 -0.1602  0.2663 -0.6625
 2600TIP3    H129215   5.234   2.942  14.397  1.2029  0.9121 -0.9304
 2600TIP3    H229216   5.232   2.801  14.342  1.0845  0.4225  0.2928
 2601TIP3   OH229217   1.819   5.621   2.119  0.3556  0.3310 -0.3409
 2601TIP3    H129218   1.836   5.580   2.204 -1.8937  0.3102  0.1630
 2601TIP3    H229219   1.770   5.701   2.141 -1.9267 -0.6339 -1.6705
 2602TIP3   OH229220   1.814   0.977   1.758 -0.8014  0.3930 -0.2605
 2602TIP3    H129221   1.894   0.969   1.705 -1.4764 -2.7140 -1.0196
 2602TIP3    H229222   1.751   0.918   1.716 -3.2301  2.0369  0.8631
 2603TIP3   OH229223   5.346   4.634   0.015 -0.3787  0.0452  0.1026
 2603TIP3    H129224   5.340   4.567  -0.053 -2.2710 -0.3000  0.5784
 2603TIP3    H229225   5.434   4.670   0.004  0.4912 -2.1169 -0.5128
 2604TIP3   OH229226   6.520   2.289   3.430  0.7439 -0.3470 -0.0386
 2604TIP3    H129227   6.487   2.378   3.439 -0.1188 -0.8589  3.3329
 2604TIP3    H229228   6.479   2.256   3.350 -0.5777  1.6285 -0.2386
 2605TIP3   OH229229   4.714   6.384  11.591 -0.2504 -0.2496  0.0674
 2605TIP3    H129230   4.716   6.469  11.635 -1.3737 -1.2728  2.2673
 2605TIP3    H229231   4.741   6.403  11.502  2.4209  1.9383  1.1968
 2606TIP3   OH229232   6.162   0.542  12.094  0.0825  0.6444 -0.5914
 2606TIP3    H129233   6.124   0.502  12.015 -1.9345  0.3010  0.4849
 2606TIP3    H229234   6.187   0.468  12.149 -2.5000  0.7307  0.8630
 2607TIP3   OH229235   1.981   3.662   3.283 -0.1880 -0.1647  0.0467
 2607TIP3    H129236   2.013   3.572   3.278 -0.5415 -0.3043  0.2667
 2607TIP3    H229237   1.887   3.653   3.302 -0.0200  0.2702  1.1260
 2608TIP3   OH229238   2.227   6.528   3.469 -0.6098 -0.1387 -0.6538
 2608TIP3    H129239   2.248   6.446   3.514  0.2011  0.1985 -0.3898
 2608TIP3    H229240   2.166   6.503   3.400 -2.0650 -0.6385  0.7555
 2609TIP3   OH229241   2.499   1.106  14.953 -0.3502  0.4429 -0.2756
 2609TIP3    H129242   2.499   1.157  14.873 -0.6576  1.7474  0.5324
 2609TIP3    H229243   2.529   1.019  14.926 -3.9855 -0.3661 -2.5551
 2610TIP3   OH229244   1.129   6.353  12.679 -0.4384 -0.0866  0.2110
 2610TIP3    H129245   1.223   6.355  12.664 -0.2679 -0.6628  1.1316
 2610TIP3    H229246   1.114   6.274  12.730 -1.5231 -0.3867 -0.5277
 2611TIP3   OH229247   4.304   1.946  11.773 -0.7160  0.0868  0.4127
 2611TIP3    H129248   4.294   1.963  11.679 -1.0292 -0.8874  0.2653
 2611TIP3    H229249   4.280   2.029  11.815 -0.0170  0.7140 -0.3855
 2612TIP3   OH229250   1.311   3.954   2.193 -1.0624  0.0695  0.1318
 2612TIP3    H129251   1.270   3.891   2.252 -1.9141  0.6522  0.1829
 2612TIP3    H229252   1.313   4.036   2.243 -3.5679  1.0924 -1.2684
 2613TIP3   OH229253   6.306   5.445   0.127  0.0680  0.8050 -0.5141
 2613TIP3    H129254   6.393   5.432   0.165 -0.6477 -0.3373  0.8163
 2613TIP3    H229255   6.303   5.382   0.054 -0.5179 -1.0561  1.0288
 2614TIP3   OH229256   3.530   5.058   4.146 -0.6595  0.6072  0.3588
 2614TIP3    H129257   3.583   5.101   4.078  0.1886 -0.6967  0.1629
 2614TIP3    H229258   3.577   4.977   4.166 -1.6092  0.3116  1.5466
 2615TIP3   OH229259   5.548   3.328  16.169  0.0929 -0.2577 -0.0516
 2615TIP3    H129260   5.570   3.417  16.142 -1.8171  0.7105  1.3157
 2615TIP3    H229261   5.588   3.318  16.255  0.6286 -0.8796 -0.3678
 2616TIP3   OH229262   1.757   1.037   5.718  0.0270 -0.2682  0.1187
 2616TIP3    H129263   1.736   0.946   5.739 -0.2359 -0.1092  0.5659
 2616TIP3    H229264   1.818   1.064   5.787  0.7296 -0.3465 -0.4705
 2617TIP3   OH229265   1.832   4.343   4.060  0.4161 -0.2903 -0.0725
 2617TIP3    H129266   1.812   4.303   3.975 -0.4855  2.5571 -1.3318
 2617TIP3    H229267   1.880   4.423   4.038  0.1699  0.5215  2.1018
 2618TIP3   OH229268   2.353   6.284   2.932 -0.1339 -0.0966  0.1246
 2618TIP3    H129269   2.309   6.263   2.850  2.6743 -1.3911 -1.2196
 2618TIP3    H229270   2.385   6.373   2.920  2.2362 -1.0182 -1.3284
 2619TIP3   OH229271   4.937   5.335  12.653  0.5430  0.1362  0.1693
 2619TIP3    H129272   4.982   5.259  12.614  0.1401 -0.1353  0.2298
 2619TIP3    H229273   4.872   5.359  12.587  1.8673  1.5906 -0.6944
 2620TIP3   OH229274   5.326   5.190  15.156  0.3517 -0.2355 -0.5712
 2620TIP3    H129275   5.413   5.153  15.141 -0.5741 -2.3104 -1.2240
 2620TIP3    H229276   5.266   5.126  15.116 -1.5521  0.3997  1.1222
 2621TIP3   OH229277   2.832   4.720   3.745  0.0798  0.4362  0.4630
 2621TIP3    H129278   2.925   4.701   3.753  0.0993  0.2215 -0.2026
 2621TIP3    H229279   2.826   4.779   3.670 -0.2185  1.2494  1.1129
 2622TIP3   OH229280   0.740   0.234   3.962 -0.2598 -0.3523 -0.0127
 2622TIP3    H129281   0.797   0.175   3.912 -0.5446 -1.0712  0.4926
 2622TIP3    H229282   0.756   0.211   4.054 -0.1857  0.5426  0.2119
 2623TIP3   OH229283   1.101   0.365   3.999  0.0362  0.0139  0.4073
 2623TIP3    H129284   1.029   0.366   3.935 -0.9411  1.3419  1.4642
 2623TIP3    H229285   1.139   0.278   3.991  0.9725  0.5964 -3.0730
 2624TIP3   OH229286   2.456   6.553   1.763  0.1935 -0.2240 -0.6221
 2624TIP3    H129287   2.505   6.616   1.817  0.9485  1.0027 -2.6373
 2624TIP3    H229288   2.397   6.608   1.711 -0.2542 -1.3363 -1.3123
 2625TIP3   OH229289   4.939   0.394   4.187  0.2454 -0.0392 -0.3605
 2625TIP3    H129290   4.955   0.483   4.156 -1.0795 -0.6325 -3.0415
 2625TIP3    H229291   5.025   0.354   4.191  0.9797  1.5316  1.7826
 2626TIP3   OH229292   5.243   1.369  12.203  0.7364 -0.0815 -0.1496
 2626TIP3    H129293   5.152   1.340  12.214  0.4178  0.3611 -1.4159
 2626TIP3    H229294   5.287   1.296  12.161  0.2557  0.6807 -2.1076
 2627TIP3   OH229295   5.817   6.026   0.344  0.4961 -0.0822 -0.1597
 2627TIP3    H129296   5.895   5.972   0.356  0.1578 -0.3303  1.0963
 2627TIP3    H229297   5.745   5.963   0.338  0.3485  0.1540 -1.0615
 2628TIP3   OH229298   3.067   5.918  14.709 -0.1805 -0.6141 -0.7494
 2628TIP3    H129299   3.034   5.830  14.731 -1.1151 -0.6872 -2.2742
 2628TIP3    H229300   3.142   5.901  14.652  0.4249 -0.4112 -0.0277
 2629TIP3   OH229301   3.052   0.816   4.034  0.1044 -0.0593 -0.2690
 2629TIP3    H129302   3.122   0.876   4.059  0.6976 -1.2080  0.9785
 2629TIP3    H229303   3.061   0.805   3.940  0.6981  0.9204 -0.3332
 2630TIP3   OH229304   5.159   3.512   0.146 -0.2289 -0.4626  0.3262
 2630TIP3    H129305   5.191   3.576   0.210  0.9974  0.6532 -1.3071
 2630TIP3    H229306   5.116   3.445   0.199 -3.9119  2.8321  2.0929
 2631TIP3   OH229307   4.464   2.093  11.149 -0.0309  0.2277  0.1296
 2631TIP3    H129308   4.414   2.169  11.176  0.9478  0.2420  2.0669
 2631TIP3    H229309   4.411   2.052  11.080 -0.9796  2.1514 -0.3378
 2632TIP3   OH229310   5.428   0.739   3.853 -0.4339  0.0895  0.4245
 2632TIP3    H129311   5.496   0.702   3.910  0.3870 -1.2156 -1.3101
 2632TIP3    H229312   5.431   0.685   3.774 -0.6074  2.5938 -1.4339
 2633TIP3   OH229313   5.138   0.720   3.881  0.4354  0.1356 -0.1174
 2633TIP3    H129314   5.107   0.698   3.793 -0.0731 -2.0117  0.5235
 2633TIP3    H229315   5.212   0.778   3.867 -0.2088  0.5977 -1.9199
 2634TIP3   OH229316   0.832   4.422   1.367  0.1244 -0.0065  0.2021
 2634TIP3    H129317   0.825   4.433   1.272  0.0145  1.5938  0.3634
 2634TIP3    H229318   0.851   4.510   1.400  1.7504 -0.7877  1.5371
 2635TIP3   OH229319   2.116   1.568  17.120  0.3788 -0.1569 -0.3446
 2635TIP3    H129320   2.125   1.574  17.024 -0.0032  1.7818 -0.3069
 2635TIP3    H229321   2.037   1.618  17.139  2.1436  2.2386  1.2263
 2636TIP3   OH229322   4.046   6.195   4.762 -0.2042  0.0333  0.1137
 2636TIP3    H129323   3.996   6.233   4.834  1.8322  0.2688  1.4780
 2636TIP3    H229324   4.040   6.261   4.692  0.3100  1.2785  1.1827
 2637TIP3   OH229325   6.647   2.308  16.290  0.6704  0.5167  0.4537
 2637TIP3    H129326   6.570   2.255  16.312  0.7343  0.3729  0.3314
 2637TIP3    H229327   6.632   2.334  16.199  1.5040 -0.8053 -0.0907
 2638TIP3   OH229328   5.679   5.565   1.261 -0.0062  0.8056  0.0476
 2638TIP3    H129329   5.692   5.570   1.166 -1.1290  0.1280 -0.1632
 2638TIP3    H229330   5.652   5.653   1.286  0.4475  1.0281 -0.2327
 2639TIP3   OH229331   3.701   1.212  12.505 -0.3183  0.4864  0.2961
 2639TIP3    H129332   3.773   1.176  12.557 -1.3224  0.1048  1.4455
 2639TIP3    H229333   3.689   1.149  12.434  1.5434  1.3736 -0.8956
 2640TIP3   OH229334   1.764   1.165   5.346  0.0310 -0.4807 -0.1493
 2640TIP3    H129335   1.845   1.172   5.396 -1.3911  2.4894  2.0611
 2640TIP3    H229336   1.709   1.104   5.396 -0.9261  1.5283  1.3787
 2641TIP3   OH229337   3.566   4.216  14.275  0.6636 -0.3894 -0.2896
 2641TIP3    H129338   3.500   4.280  14.250  1.2042 -0.5817 -2.3358
 2641TIP3    H229339   3.527   4.169  14.349 -0.2807  1.3779  0.3937
 2642TIP3   OH229340   2.495   2.083   5.385  0.5264  0.3706 -0.6222
 2642TIP3    H129341   2.429   2.106   5.450  1.9676 -0.4086  1.2130
 2642TIP3    H229342   2.538   2.166   5.364  1.0377  0.4364  0.5979
 2643TIP3   OH229343   6.045   6.305   6.206  0.0841  0.4916  0.0497
 2643TIP3    H129344   6.089   6.229   6.244  0.3116  0.3786 -0.4289
 2643TIP3    H229345   5.952   6.292   6.227  0.1850  0.3434  0.4096
 2644TIP3   OH229346   1.884   5.657  14.479 -0.2147 -0.3385  0.3408
 2644TIP3    H129347   1.884   5.682  14.571 -0.7250  1.4931 -0.1251
 2644TIP3    H229348   1.973   5.676  14.449 -0.4047  0.2673  0.1553
 2645TIP3   OH229349   2.399   3.911   4.353  0.8885  0.1460 -0.8567
 2645TIP3    H129350   2.447   3.982   4.395  0.1997 -0.7175  1.5071
 2645TIP3    H229351   2.348   3.955   4.284  0.4688  1.9636  0.5438
 2646TIP3   OH229352   0.736   5.524   2.421 -0.5631 -0.3974 -0.7505
 2646TIP3    H129353   0.762   5.461   2.487  0.0448 -1.5994 -2.0843
 2646TIP3    H229354   0.769   5.608   2.453  0.6309 -1.1217 -0.0401
 2647TIP3   OH229355   6.263   6.610  10.476  0.0196  0.2805  0.1664
 2647TIP3    H129356   6.356   6.597  10.456 -0.0135  0.0549  0.1531
 2647TIP3    H229357   6.227   6.646  10.395  0.2984  1.3680  0.5140
 2648TIP3   OH229358   5.655   3.672  12.181 -0.1571 -0.4058  0.1430
 2648TIP3    H129359   5.740   3.630  12.193 -0.2416 -1.0863 -1.4513
 2648TIP3    H229360   5.597   3.626  12.241  1.0899  1.9551  3.4993
 2649TIP3   OH229361   6.002   1.661   2.438 -0.5007 -0.4148  0.4102
 2649TIP3    H129362   6.047   1.627   2.361 -0.3825  3.1835 -1.2745
 2649TIP3    H229363   6.017   1.755   2.436 -4.2405  0.4351  2.3399
 2650TIP3   OH229364   5.664   3.806   3.213 -0.3322 -0.2150  0.0952
 2650TIP3    H129365   5.573   3.817   3.239 -0.3271 -0.3422  0.1631
 2650TIP3    H229366   5.697   3.735   3.267 -0.0981  0.0536  0.3136
 2651TIP3   OH229367   4.763   5.076   5.245  0.1148  0.1908 -0.4153
 2651TIP3    H129368   4.825   5.014   5.207 -0.6801 -0.5365 -0.5553
 2651TIP3    H229369   4.704   5.022   5.298 -0.3834  0.8685 -0.2546
 2652TIP3   OH229370   2.449   4.133   4.045 -0.5329  0.4822 -0.4860
 2652TIP3    H129371   2.534   4.131   4.090 -0.0016 -0.4964 -1.4865
 2652TIP3    H229372   2.467   4.099   3.958 -1.4528  2.7162 -1.6433
 2653TIP3   OH229373   0.972   5.685   5.113 -0.4885 -0.1544 -0.1035
 2653TIP3    H129374   0.994   5.700   5.204  0.8820 -1.8594 -0.1065
 2653TIP3    H229375   0.985   5.770   5.070 -0.2373  0.4279  1.0910
 2654TIP3   OH229376   1.231   4.869  13.682  0.5930 -0.4679 -0.2419
 2654TIP3    H129377   1.149   4.904  13.715  0.8437  0.0466 -0.1534
 2654TIP3    H229378   1.208   4.826  13.599  0.0919 -1.0942  0.2133
 2655TIP3   OH229379   0.770   0.030   0.367  0.2246 -0.4153 -0.6254
 2655TIP3    H129380   0.744  -0.054   0.406  1.8049  0.1795  1.9743
 2655TIP3    H229381   0.708   0.093   0.403 -0.0430 -0.2372 -1.3859
 2656TIP3   OH229382   4.091   0.069   1.512 -0.0864 -0.3722 -0.5436
 2656TIP3    H129383   4.116  -0.021   1.534  0.3981 -0.2321 -0.4973
 2656TIP3    H229384   4.089   0.071   1.416 -2.5249 -1.0711 -0.5579
 2657TIP3   OH229385   0.812   5.811   4.130  0.2047 -0.2498  0.3035
 2657TIP3    H129386   0.840   5.864   4.055 -2.1658  0.4906 -0.1424
 2657TIP3    H229387   0.724   5.843   4.150 -1.0999 -3.5422  0.4347
 2658TIP3   OH229388   3.714   6.391  17.052 -0.0333 -0.0232 -0.3404
 2658TIP3    H129389   3.659   6.339  17.111  0.4329  0.5749  0.6459
 2658TIP3    H229390   3.772   6.440  17.110  2.4528 -1.5844 -1.3238
 2659TIP3   OH229391   3.667   5.045   6.357  0.2533 -0.1613 -0.0787
 2659TIP3    H129392   3.756   5.066   6.327  1.6517 -2.6478  1.9033
 2659TIP3    H229393   3.655   5.098   6.435 -0.0109  0.1331 -0.3153
 2660TIP3   OH229394   5.709   5.730   0.050  0.0970 -0.2935  0.7328
 2660TIP3    H129395   5.649   5.665   0.086 -0.1566 -0.3130  0.2880
 2660TIP3    H229396   5.708   5.714  -0.044  2.1722 -1.4448  0.8590
 2661TIP3   OH229397   3.073   0.130  13.723  0.5010  0.3437  0.0247
 2661TIP3    H129398   3.156   0.176  13.733 -0.2926  1.5393  1.7831
 2661TIP3    H229399   3.042   0.154  13.636  1.1247  1.4440  0.0809
 2662TIP3   OH229400   4.405   4.131  14.550 -0.5258  0.2736 -0.0868
 2662TIP3    H129401   4.471   4.071  14.514 -1.2497  0.1367 -1.2328
 2662TIP3    H229402   4.433   4.218  14.520 -0.7369  0.2421 -0.3754
 2663TIP3   OH229403   2.610   0.195  12.699 -0.4434 -0.4248  0.2069
 2663TIP3    H129404   2.664   0.198  12.620 -1.4885  0.4040 -0.5030
 2663TIP3    H229405   2.565   0.279  12.701 -1.5741 -1.0232  0.8740
 2664TIP3   OH229406   2.981   1.643   0.042 -0.1197 -0.2532 -0.0577
 2664TIP3    H129407   2.968   1.571  -0.019 -2.6646  0.2341 -0.1831
 2664TIP3    H229408   3.040   1.704  -0.004 -2.1036  0.1956 -2.1693
 2665TIP3   OH229409   3.802   1.191   5.376 -0.4054 -0.2572  0.0443
 2665TIP3    H129410   3.762   1.175   5.462  2.7201  1.0573  1.9313
 2665TIP3    H229411   3.822   1.285   5.376 -1.5731  0.0928 -2.8003
 2666TIP3   OH229412   6.370   5.294   4.644  0.1882 -0.5953  0.5396
 2666TIP3    H129413   6.462   5.267   4.641  0.0969 -1.3488  2.8365
 2666TIP3    H229414   6.372   5.384   4.677  0.2002  0.7773 -2.7189
 2667TIP3   OH229415   4.341   2.336  11.205  0.1035 -0.0133  0.2549
 2667TIP3    H129416   4.344   2.327  11.109 -1.3507  0.1453  0.1791
 2667TIP3    H229417   4.384   2.420  11.222 -1.0051  0.7230 -0.4135
 2668TIP3   OH229418   2.044   4.787  10.480 -0.0204  0.8114 -0.6858
 2668TIP3    H129419   1.992   4.863  10.508  0.7186  1.0366  0.1164
 2668TIP3    H229420   2.001   4.712  10.523  0.4924  1.0349  0.2467
 2669TIP3   OH229421   3.346   6.598   5.029  0.2396  0.2688  0.5945
 2669TIP3    H129422   3.289   6.673   5.012  1.5113  0.8594 -1.4419
 2669TIP3    H229423   3.384   6.615   5.115  1.0007  2.3437 -0.1027
 2670TIP3   OH229424   0.437   3.126  13.201  0.1411  0.3419 -0.6956
 2670TIP3    H129425   0.484   3.047  13.175 -0.7583 -0.5264  0.2345
 2670TIP3    H229426   0.476   3.150  13.285  0.6610  1.1222 -1.1461
 2671TIP3   OH229427   1.434   0.678   4.481  0.4269 -0.4534 -0.1244
 2671TIP3    H129428   1.474   0.615   4.541  2.0621  0.2392 -0.4313
 2671TIP3    H229429   1.443   0.638   4.395  0.7121 -0.1802 -0.2241
 2672TIP3   OH229430   4.361   0.615   4.953 -0.4942 -0.7783 -0.7195
 2672TIP3    H129431   4.303   0.541   4.968  2.2096 -2.7328  1.0436
 2672TIP3    H229432   4.381   0.612   4.860 -0.4051 -2.3446 -0.6724
 2673TIP3   OH229433   4.518   0.879   1.189  0.5014 -0.9129  0.1139
 2673TIP3    H129434   4.439   0.871   1.241  1.4118  0.0661  1.7409
 2673TIP3    H229435   4.588   0.888   1.253  1.9951 -2.0842 -1.2619
 2674TIP3   OH229436   6.482   6.623  12.384 -0.4455  0.3949 -0.6079
 2674TIP3    H129437   6.550   6.652  12.323 -0.2657  2.1204  0.3511
 2674TIP3    H229438   6.468   6.698  12.442 -3.3336  0.1668 -0.8928
 2675TIP3   OH229439   0.071   5.642  13.722  0.2266  0.8353  0.6514
 2675TIP3    H129440   0.113   5.659  13.806  0.4867  0.9299  0.5066
 2675TIP3    H229441   0.144   5.643  13.659 -0.2626  3.9365 -0.0410
 2676TIP3   OH229442   5.765   3.427  12.320  0.5934 -0.0169  0.6709
 2676TIP3    H129443   5.838   3.484  12.344 -0.1161  1.4115 -0.4453
 2676TIP3    H229444   5.695   3.449  12.382  0.0144  1.0137 -0.3175
 2677TIP3   OH229445   5.774   5.523   4.656  0.0729 -0.4796  0.4804
 2677TIP3    H129446   5.846   5.548   4.598  1.5731  0.0925  2.4521
 2677TIP3    H229447   5.695   5.554   4.612  1.1749  0.3966 -0.9696
 2678TIP3   OH229448   6.784   0.761  14.408 -0.2380  0.4516 -0.6548
 2678TIP3    H129449   6.852   0.695  14.395 -1.1780 -1.5110  2.9465
 2678TIP3    H229450   6.831   0.844  14.410  1.3190 -0.2543 -2.8405
 2679TIP3   OH229451   6.251   5.652  12.141 -0.2136 -0.0006  0.6704
 2679TIP3    H129452   6.315   5.612  12.082 -2.1280 -0.1881 -1.4512
 2679TIP3    H229453   6.258   5.602  12.222  2.0700 -0.1938  0.4176
 2680TIP3   OH229454   3.648   3.808   1.387 -0.8141  0.1937  0.0108
 2680TIP3    H129455   3.676   3.746   1.454 -0.1948 -0.0069 -0.4162
 2680TIP3    H229456   3.679   3.769   1.305 -2.4774 -0.0942 -0.5124
 2681TIP3   OH229457   2.549   2.425  12.090 -0.3196  0.1648 -0.0507
 2681TIP3    H129458   2.462   2.457  12.065 -0.2054  1.1526  0.7876
 2681TIP3    H229459   2.572   2.362  12.021 -1.5364  0.1710 -0.4753
 2682TIP3   OH229460   1.221   3.382  16.327 -0.1699 -0.5186  0.6125
 2682TIP3    H129461   1.255   3.391  16.238 -0.1730  1.1419  0.7393
 2682TIP3    H229462   1.217   3.288  16.343 -1.2787 -0.8887 -1.5597
 2683TIP3   OH229463   0.606   5.289  17.228 -0.2765  0.5275 -0.0559
 2683TIP3    H129464   0.587   5.282  17.321 -0.0141 -1.6111 -0.1057
 2683TIP3    H229465   0.597   5.382  17.208 -1.7293  0.8390  1.7954
 2684TIP3   OH229466   4.791   3.842   5.870  0.0677  0.0087 -0.4231
 2684TIP3    H129467   4.767   3.766   5.817 -1.6310 -0.4121  0.8587
 2684TIP3    H229468   4.784   3.812   5.961  0.3274  1.4243  0.1039
 2685TIP3   OH229469   5.342   2.084  12.698 -0.2627  0.3584  0.4765
 2685TIP3    H129470   5.394   2.131  12.763  0.3955 -0.2244  0.3879
 2685TIP3    H229471   5.274   2.146  12.671 -0.4099  0.6884  1.5572
 2686TIP3   OH229472   2.744   5.708   2.202  0.1937 -1.0391  0.4155
 2686TIP3    H129473   2.706   5.739   2.284  1.1954  1.4970  0.0134
 2686TIP3    H229474   2.693   5.753   2.134  2.8939  1.4867 -0.1562
 2687TIP3   OH229475   6.190   0.467  11.029  0.0911 -0.1690  0.1524
 2687TIP3    H129476   6.097   0.461  11.050  0.1521 -0.4052  0.3571
 2687TIP3    H229477   6.234   0.459  11.114  0.2050  2.5624  0.4381
 2688TIP3   OH229478   0.795   0.597  15.761  0.6607  0.2533  0.3920
 2688TIP3    H129479   0.863   0.642  15.811  1.7129 -0.8079 -0.0643
 2688TIP3    H229480   0.810   0.504  15.777 -0.0300 -0.0384 -0.5480
 2689TIP3   OH229481   3.994   0.015  13.259  0.0104 -0.1986  0.2505
 2689TIP3    H129482   4.047  -0.033  13.195  1.5126 -1.6422  2.4300
 2689TIP3    H229483   4.047   0.092  13.280  0.6593 -0.9356  1.4190
 2690TIP3   OH229484   1.894   3.114   5.320  0.4080 -0.4025  0.4204
 2690TIP3    H129485   1.879   3.195   5.368  1.3846 -0.6237  1.1461
 2690TIP3    H229486   1.920   3.143   5.233 -0.7718  0.0227  0.2020
 2691TIP3   OH229487   4.298   3.504  11.504 -0.2322 -0.0096  0.5501
 2691TIP3    H129488   4.290   3.476  11.413  0.8878  1.8065 -0.1511
 2691TIP3    H229489   4.212   3.540  11.525 -0.3413  0.0356  0.0418
 2692TIP3   OH229490   1.763   6.461   1.683  0.1784 -0.0581 -0.5937
 2692TIP3    H129491   1.689   6.475   1.741 -1.0917 -2.4578 -1.4951
 2692TIP3    H229492   1.836   6.442   1.742 -0.2466  0.9311  0.2747
 2693TIP3   OH229493   4.343   1.176   5.977 -0.1614 -0.7465 -0.1177
 2693TIP3    H129494   4.276   1.205   5.916 -0.4590  0.1413  0.6124
 2693TIP3    H229495   4.417   1.235   5.962  0.1696 -1.2187 -0.3709
 2694TIP3   OH229496   2.707   1.481   2.108 -0.6442 -0.0047  0.4920
 2694TIP3    H129497   2.711   1.529   2.191  1.2699  0.0797  0.3835
 2694TIP3    H229498   2.688   1.548   2.042  0.4998  0.3759  0.5344
 2695TIP3   OH229499   2.306   0.047  16.976  0.2378  0.4157  0.4614
 2695TIP3    H129500   2.325  -0.047  16.982  2.6593  0.9358  2.7196
 2695TIP3    H229501   2.219   0.056  17.015 -1.6383 -1.1637 -2.9074
 2696TIP3   OH229502   6.261   6.362  15.706 -0.4946  0.5985  0.2750
 2696TIP3    H129503   6.183   6.318  15.740  0.6897 -1.1538  0.8213
 2696TIP3    H229504   6.259   6.345  15.612 -1.0344  1.0266  0.2009
 2697TIP3   OH229505   3.111   2.159  15.215  0.0268  0.0794 -0.0415
 2697TIP3    H129506   3.108   2.250  15.184 -0.3897  0.5111  1.2228
 2697TIP3    H229507   3.089   2.108  15.137 -2.4704  1.2209 -0.1853
 2698TIP3   OH229508   1.533   1.196  13.740  0.1132 -0.6309 -0.0722
 2698TIP3    H129509   1.619   1.154  13.749 -0.2233 -1.2635  0.2557
 2698TIP3    H229510   1.503   1.209  13.830  0.1958  0.2894 -0.1701
 2699TIP3   OH229511   2.945   5.899   2.774 -0.1995  0.2203  0.1335
 2699TIP3    H129512   2.875   5.873   2.714 -0.4846 -2.0721  1.3648
 2699TIP3    H229513   3.008   5.828   2.769  0.9837  1.1853  0.7454
 2700TIP3   OH229514   1.145   0.289   3.540  0.1770  0.1935  0.2278
 2700TIP3    H129515   1.057   0.257   3.558 -0.4269  1.2938 -0.6065
 2700TIP3    H229516   1.180   0.315   3.625  0.1851 -1.3918  0.7304
 2701TIP3   OH229517   6.140   1.402   1.947  0.5400 -0.3499 -0.1079
 2701TIP3    H129518   6.232   1.426   1.936  0.2270  1.5596  0.9926
 2701TIP3    H229519   6.138   1.350   2.028  0.4361  1.2847  0.9806
 2702TIP3   OH229520   5.940   5.906   6.414  0.6712  0.2327 -0.5217
 2702TIP3    H129521   5.982   5.899   6.500 -1.6514 -0.0836  0.6595
 2702TIP3    H229522   5.881   5.980   6.422  1.3197  0.9965 -2.3051
 2703TIP3   OH229523   1.310   2.744   4.133 -0.6861  0.5238  0.7027
 2703TIP3    H129524   1.302   2.745   4.037 -2.1989 -0.1193  0.7974
 2703TIP3    H229525   1.226   2.776   4.165 -0.1510  0.8711  1.8389
 2704TIP3   OH229526   1.474   5.932   5.795 -0.0780 -0.3416  0.1652
 2704TIP3    H129527   1.492   6.018   5.832  1.8592 -1.3825  1.8109
 2704TIP3    H229528   1.533   5.925   5.721 -1.0021  0.1154 -0.6430
 2705TIP3   OH229529   0.205   4.938   1.939  0.0462 -0.2778  0.0323
 2705TIP3    H129530   0.287   4.924   1.986  0.0997  0.5372  0.1883
 2705TIP3    H229531   0.189   4.855   1.894  0.4510 -0.7655  0.7759
 2706TIP3   OH229532   2.768   5.381  13.437  0.0578  0.3313  0.2425
 2706TIP3    H129533   2.844   5.344  13.482 -0.0066 -1.5550 -1.0928
 2706TIP3    H229534   2.781   5.476  13.443  2.4542  0.0656  0.1708
 2707TIP3   OH229535   2.067   4.264  13.115  0.1335 -0.2520 -0.2503
 2707TIP3    H129536   2.019   4.340  13.083  0.1079 -0.1282  0.0775
 2707TIP3    H229537   2.150   4.299  13.147  0.3268 -0.4282 -0.5612
 2708TIP3   OH229538   1.154   0.477  10.796 -0.1657  0.2080 -0.1917
 2708TIP3    H129539   1.189   0.404  10.745  1.8078  1.3122 -0.4941
 2708TIP3    H229540   1.231   0.525  10.826 -1.3959  2.1536  0.0247
 2709TIP3   OH229541   0.199   3.538  15.557 -0.0469 -0.1302 -0.3188
 2709TIP3    H129542   0.143   3.466  15.528 -0.4360  0.2902 -0.6200
 2709TIP3    H229543   0.225   3.513  15.646 -1.1458 -0.0853  0.0291
 2710TIP3   OH229544   4.461   1.864   1.642 -0.6689  0.2156  0.2691
 2710TIP3    H129545   4.448   1.771   1.659  2.0853 -0.6404 -1.5879
 2710TIP3    H229546   4.446   1.874   1.548 -0.1042  1.4648  0.2827
 2711TIP3   OH229547   4.958   2.058  11.003 -0.6735  0.2570 -0.2770
 2711TIP3    H129548   4.907   2.007  10.940  0.9150 -0.5262 -0.9806
 2711TIP3    H229549   5.040   2.076  10.959  0.7067 -0.7366  1.7320
 2712TIP3   OH229550   4.337   5.264   4.386  0.3281 -0.0598  0.3764
 2712TIP3    H129551   4.299   5.325   4.450  0.0828  1.5844 -1.2611
 2712TIP3    H229552   4.416   5.308   4.356  1.8505 -1.9787  1.3412
 2713TIP3   OH229553   0.168   5.394  10.867 -0.5165  0.1983 -0.1918
 2713TIP3    H129554   0.094   5.449  10.842 -0.4021  0.5099  0.1448
 2713TIP3    H229555   0.201   5.359  10.784 -2.5137 -1.8928 -0.2267
 2714TIP3   OH229556   4.021   1.141   3.059 -0.3939  0.1892 -0.2878
 2714TIP3    H129557   4.103   1.174   3.095 -0.0759 -0.1918 -0.6505
 2714TIP3    H229558   3.973   1.219   3.031 -0.4391  0.4578  0.5107
 2715TIP3   OH229559   2.179   1.809  15.412  0.1348  0.0783  0.3498
 2715TIP3    H129560   2.185   1.903  15.396 -0.1200  0.1122  0.4553
 2715TIP3    H229561   2.248   1.771  15.357  0.9268  0.4086  1.0847
 2716TIP3   OH229562   5.908   2.591  16.870  0.2898  0.1289  0.2169
 2716TIP3    H129563   5.924   2.553  16.956 -0.9483 -2.4222 -0.5624
 2716TIP3    H229564   5.818   2.623  16.875  0.2898  0.1735 -0.0472
 2717TIP3   OH229565   0.687   3.806  16.181  0.0364 -0.5955  0.5103
 2717TIP3    H129566   0.656   3.837  16.096 -2.5145  0.6920  1.8263
 2717TIP3    H229567   0.687   3.710  16.172  0.8507 -0.4757 -1.2387
 2718TIP3   OH229568   6.094   1.871   2.055  0.1653 -0.4202 -0.7788
 2718TIP3    H129569   6.110   1.850   1.963 -2.2975 -1.0141 -1.1503
 2718TIP3    H229570   6.004   1.903   2.057  0.9220  1.9571  1.1087
 2719TIP3   OH229571   5.341   5.807   4.976  0.7715 -0.4561  0.3546
 2719TIP3    H129572   5.271   5.742   4.966 -0.6179  0.9762  0.3628
 2719TIP3    H229573   5.362   5.834   4.886 -0.8992  1.3227  0.4409
 2720TIP3   OH229574   1.989   5.992  13.788 -0.6619  0.1203 -0.0814
 2720TIP3    H129575   1.900   5.977  13.821  0.2788 -3.0013  1.4257
 2720TIP3    H229576   1.994   5.941  13.707 -0.9745  2.5429 -1.7362
 2721TIP3   OH229577   0.419   6.062   5.201  0.2103  0.2560  0.0477
 2721TIP3    H129578   0.413   6.020   5.115  2.4709  1.2776 -0.6941
 2721TIP3    H229579   0.513   6.076   5.215  0.1223 -1.4510  3.5097
 2722TIP3   OH229580   1.217   5.087  12.917 -0.0475 -0.2201 -0.3058
 2722TIP3    H129581   1.312   5.096  12.925 -0.0751  1.6608 -1.6431
 2722TIP3    H229582   1.188   5.074  13.007  1.2330  2.2775  0.5828
 2723TIP3   OH229583   0.304   2.979  16.439 -0.0921  0.0964  0.4095
 2723TIP3    H129584   0.242   3.052  16.440 -0.6340 -0.3677  0.3736
 2723TIP3    H229585   0.250   2.900  16.435  0.4913 -0.3160  0.5242
 2724TIP3   OH229586   5.630   5.480   3.367 -0.2177  0.1010  0.4246
 2724TIP3    H129587   5.689   5.443   3.434  0.9011  0.0855 -0.5275
 2724TIP3    H229588   5.573   5.407   3.343 -0.3169 -0.0246  1.0067
 2725TIP3   OH229589   2.085   2.788  12.112 -0.3142  0.6772 -0.1079
 2725TIP3    H129590   2.082   2.874  12.154  1.0586  0.6041  0.1961
 2725TIP3    H229591   2.169   2.787  12.066 -0.8864 -0.0157 -1.1900
 2726TIP3   OH229592   6.019   0.169   0.925  0.6378  0.2129 -0.2407
 2726TIP3    H129593   6.084   0.238   0.940  0.1223  0.5544  0.4887
 2726TIP3    H229594   6.048   0.096   0.979 -0.1707  0.7669  1.0150
 2727TIP3   OH229595   1.711   4.073   5.861 -0.1454  0.3745 -0.0760
 2727TIP3    H129596   1.654   4.103   5.790 -0.1555  1.6852  0.4565
 2727TIP3    H229597   1.688   4.129   5.935  0.8960  0.0072  0.5443
 2728TIP3   OH229598   5.848   5.185  12.047 -0.3150 -0.4105  0.7106
 2728TIP3    H129599   5.880   5.106  12.092 -1.0911 -0.7970  0.5866
 2728TIP3    H229600   5.894   5.256  12.092 -0.5641 -0.8363  1.6862
 2729TIP3   OH229601   6.668   4.572  13.307  0.1362  0.8523 -0.1646
 2729TIP3    H129602   6.752   4.541  13.273  0.2542  0.8033  0.1639
 2729TIP3    H229603   6.639   4.503  13.367 -0.6585  0.3734 -1.0807
 2730TIP3   OH229604   1.911   5.183  17.004 -0.1479 -0.1862 -0.1859
 2730TIP3    H129605   1.961   5.265  17.011 -1.2768  0.5626 -0.5447
 2730TIP3    H229606   1.974   5.115  17.025  1.2480  0.6510 -1.4168
 2731TIP3   OH229607   6.564   5.489  10.973 -0.4477  0.2614  0.0118
 2731TIP3    H129608   6.649   5.515  10.939 -0.9282  1.1887 -0.5287
 2731TIP3    H229609   6.581   5.410  11.025  1.2255  2.0764  2.4176
 2732TIP3   OH229610   5.237   0.477  11.040  0.1960  0.2456  0.0123
 2732TIP3    H129611   5.307   0.444  10.985 -1.0540 -2.1474 -0.2891
 2732TIP3    H229612   5.234   0.416  11.114 -1.2720  0.5554  0.2415
 2733TIP3   OH229613   0.503   3.187  15.581  0.0933 -0.7041 -0.5653
 2733TIP3    H129614   0.465   3.221  15.499 -0.0518  1.0714  0.1918
 2733TIP3    H229615   0.589   3.230  15.587 -1.1952  1.8282  1.7754
 2734TIP3   OH229616   0.300   0.402  16.719 -0.6965 -0.0985 -0.4992
 2734TIP3    H129617   0.286   0.341  16.647 -0.6813 -0.5662 -0.1128
 2734TIP3    H229618   0.318   0.346  16.795 -1.8899  0.3344  0.1312
 2735TIP3   OH229619   1.691   0.993   0.260 -0.0316 -0.1368  0.2180
 2735TIP3    H129620   1.623   1.043   0.303 -0.8172  0.6272 -1.7907
 2735TIP3    H229621   1.764   0.993   0.322 -0.9332  1.2582  1.3408
 2736TIP3   OH229622   2.870   2.186  14.313  0.0492 -0.0166 -0.0121
 2736TIP3    H129623   2.855   2.097  14.344 -0.5491  0.2979  0.6094
 2736TIP3    H229624   2.848   2.242  14.387  1.5575  0.6080 -0.0121
 2737TIP3   OH229625   4.204   2.251  16.113 -0.2254  0.1809 -0.5626
 2737TIP3    H129626   4.200   2.164  16.154  1.0249  0.4489  0.1633
 2737TIP3    H229627   4.118   2.290  16.131  0.0808  0.0531  1.3058
 2738TIP3   OH229628   2.864   2.162   2.517 -0.7606 -0.0746  0.0227
 2738TIP3    H129629   2.822   2.137   2.599 -1.8035  1.2530 -0.0737
 2738TIP3    H229630   2.919   2.087   2.494 -2.4096 -1.5181  0.6119
 2739TIP3   OH229631   4.781   5.800  16.876 -0.3170  0.1187 -0.2459
 2739TIP3    H129632   4.846   5.737  16.844 -1.2866 -1.0329 -0.0056
 2739TIP3    H229633   4.818   5.886  16.855  1.3743 -0.4983  0.0548
 2740TIP3   OH229634   5.200   5.557  14.327  0.0167 -0.1386  0.0890
 2740TIP3    H129635   5.177   5.469  14.357 -0.2863  0.2079  0.8869
 2740TIP3    H229636   5.128   5.612  14.358  0.1929  0.3892 -0.4328
 2741TIP3   OH229637   2.358   0.815   0.668  0.3282 -0.2393 -0.0304
 2741TIP3    H129638   2.312   0.745   0.622 -1.4999  0.3973  0.7560
 2741TIP3    H229639   2.306   0.893   0.651 -0.6224 -0.0026  3.2440
 2742TIP3   OH229640   2.599   1.262  15.954 -0.2614 -0.1867 -0.1576
 2742TIP3    H129641   2.687   1.291  15.978  1.2118 -1.1542 -3.7359
 2742TIP3    H229642   2.571   1.324  15.887 -1.2616 -1.2769 -0.7812
 2743TIP3   OH229643   6.771   3.536   6.043  0.3150  0.0255  1.0253
 2743TIP3    H129644   6.819   3.469   6.091 -1.3553 -0.1004  2.6294
 2743TIP3    H229645   6.696   3.489   6.005  0.1425  0.6425  0.5846
 2744TIP3   OH229646   2.851   3.374  12.131 -0.6265 -0.1861  0.3453
 2744TIP3    H129647   2.807   3.310  12.187 -0.7349 -0.5168 -0.1149
 2744TIP3    H229648   2.897   3.322  12.066  0.9595  0.1342  1.1731
 2745TIP3   OH229649   5.583   4.235  12.964 -0.4208 -0.6348  0.0192
 2745TIP3    H129650   5.510   4.200  13.015  0.8248 -0.7337  1.8373
 2745TIP3    H229651   5.579   4.187  12.881 -2.7095 -0.2293 -0.1756
 2746TIP3   OH229652   6.660   2.111   1.636  0.3327 -0.5190  0.3615
 2746TIP3    H129653   6.737   2.095   1.690  1.1143 -2.0531 -1.1218
 2746TIP3    H229654   6.646   2.029   1.589 -2.6227 -0.5344  1.0418
 2747TIP3   OH229655   2.075   5.352   1.112 -0.3796  0.0871  0.1479
 2747TIP3    H129656   2.054   5.314   1.197 -1.2448 -0.5893 -0.3419
 2747TIP3    H229657   2.084   5.277   1.054  0.2254  0.5378 -0.3557
 2748TIP3   OH229658   1.599   5.446   5.595  0.4393 -0.3147  0.1737
 2748TIP3    H129659   1.570   5.507   5.662 -0.6406 -0.3783 -0.2240
 2748TIP3    H229660   1.599   5.360   5.639 -1.1895 -0.5068 -0.1342
 2749TIP3   OH229661   4.131   5.585   2.999 -0.4238 -0.0710 -0.3769
 2749TIP3    H129662   4.111   5.528   3.074  0.0222  0.4557  0.1544
 2749TIP3    H229663   4.048   5.628   2.980 -0.0758  1.4158  1.2346
 2750TIP3   OH229664   0.327   0.056   0.920 -0.1484  0.4128  0.1721
 2750TIP3    H129665   0.357   0.113   0.991 -0.4174  0.6831  0.0728
 2750TIP3    H229666   0.233   0.044   0.937  0.0168 -0.4601  0.5053
 2751TIP3   OH229667   2.531   5.439  15.247 -0.1231  0.3193 -0.0508
 2751TIP3    H129668   2.516   5.512  15.307 -0.4796 -1.4296  2.0825
 2751TIP3    H229669   2.585   5.378  15.296 -2.0442 -2.0855 -0.7328
 2752TIP3   OH229670   5.444   6.540   2.353  0.5764 -0.2345 -0.0417
 2752TIP3    H129671   5.358   6.560   2.315  0.6269 -0.2174 -0.1449
 2752TIP3    H229672   5.475   6.624   2.387  0.8054 -0.1299 -0.5101
 2753TIP3   OH229673   5.086   5.836   2.622  0.1076  0.2775  0.0491
 2753TIP3    H129674   5.036   5.755   2.610 -1.1532  1.0590 -0.1949
 2753TIP3    H229675   5.146   5.817   2.694 -0.6332 -0.6621  0.4328
 2754TIP3   OH229676   2.741   6.596   0.169  0.4140 -0.2674 -0.2405
 2754TIP3    H129677   2.743   6.545   0.250 -0.4298  0.0731  0.0030
 2754TIP3    H229678   2.761   6.685   0.196  1.7369 -0.4199 -0.6463
 2755TIP3   OH229679   3.458   6.033  13.916 -0.0270 -0.3557  0.4063
 2755TIP3    H129680   3.428   6.124  13.923 -1.0263 -0.5695 -0.7648
 2755TIP3    H229681   3.535   6.037  13.860  0.3293 -0.1509  0.9110
 2756TIP3   OH229682   2.079   2.092  14.577 -0.2440 -0.5110 -0.5045
 2756TIP3    H129683   2.162   2.137  14.595 -1.0603  1.0596 -0.5106
 2756TIP3    H229684   2.047   2.066  14.663 -0.8448  0.9592 -0.2483
 2757TIP3   OH229685   2.685   4.435   6.058 -0.1837  0.5123 -0.0594
 2757TIP3    H129686   2.688   4.391   5.973 -0.3241  0.7344 -0.1819
 2757TIP3    H229687   2.648   4.521   6.039  3.4433  2.1399 -0.4446
 2758TIP3   OH229688   1.594   3.458   0.886 -0.6608 -0.0948  0.3314
 2758TIP3    H129689   1.662   3.521   0.863 -0.2951  0.2068  2.0732
 2758TIP3    H229690   1.585   3.466   0.981 -1.5263 -1.7526  0.4305
 2759TIP3   OH229691   0.060   4.825   3.637 -0.3751  0.3657 -0.2153
 2759TIP3    H129692   0.136   4.770   3.618  0.4312  1.6860 -0.9218
 2759TIP3    H229693  -0.012   4.763   3.650  0.5586 -0.8585 -0.7207
 2760TIP3   OH229694   5.579   1.364   2.222  0.0437 -0.4580 -0.2509
 2760TIP3    H129695   5.546   1.391   2.137 -0.4109  0.1287  0.1050
 2760TIP3    H229696   5.658   1.416   2.235  0.3235 -0.8259 -0.4815
 2761TIP3   OH229697   2.229   0.486   5.102 -0.6889  0.6509  0.0283
 2761TIP3    H129698   2.279   0.561   5.134  0.2897  0.8945 -1.9137
 2761TIP3    H229699   2.148   0.524   5.067  0.3950  1.0599 -2.2128
 2762TIP3   OH229700   4.631   1.551   0.394 -0.5520  0.3151  0.0876
 2762TIP3    H129701   4.723   1.529   0.403 -0.7154 -0.3251  0.2034
 2762TIP3    H229702   4.585   1.467   0.399 -1.0389  0.4533 -1.4847
 2763TIP3   OH229703   0.707   3.849   0.513  0.1890 -0.0039  0.2190
 2763TIP3    H129704   0.702   3.757   0.485 -0.8434 -0.0561  0.5306
 2763TIP3    H229705   0.704   3.844   0.609 -0.8782  0.4022  0.2136
 2764TIP3   OH229706   4.875   6.757  16.619 -0.2547 -0.7961  0.0713
 2764TIP3    H129707   4.883   6.740  16.713 -1.5918 -1.0771  0.1621
 2764TIP3    H229708   4.871   6.853  16.613 -1.0153 -0.7941  0.4045
 2765TIP3   OH229709   2.228   0.727  17.179 -0.3052 -0.3801  0.2037
 2765TIP3    H129710   2.151   0.757  17.227  0.2298 -1.3600  1.7198
 2765TIP3    H229711   2.296   0.717  17.245 -0.0737 -3.6038 -0.3506
 2766TIP3   OH229712   5.734   6.316  16.024 -0.0001  0.0008  0.0999
 2766TIP3    H129713   5.789   6.392  16.007 -0.3307  0.0134 -0.9459
 2766TIP3    H229714   5.760   6.287  16.112  2.3278 -0.5465 -0.6939
 2767TIP3   OH229715   2.838   4.519   4.484 -0.4647  0.1656 -0.1005
 2767TIP3    H129716   2.876   4.607   4.486 -2.4963  1.0917  0.7467
 2767TIP3    H229717   2.796   4.513   4.398  0.7497 -0.5112 -0.6747
 2768TIP3   OH229718   6.004   0.622   2.264  0.4327  0.0016  0.6207
 2768TIP3    H129719   5.965   0.696   2.216  2.6380  1.1104  0.4160
 2768TIP3    H229720   6.098   0.631   2.248  0.7213 -3.6765 -0.5143
 2769TIP3   OH229721   3.106   3.332   2.161  0.3600  0.2815 -0.4718
 2769TIP3    H129722   3.093   3.409   2.105  0.1150  0.0964 -0.6733
 2769TIP3    H229723   3.082   3.258   2.106  1.6028 -0.0300 -0.6150
 2770TIP3   OH229724   2.459   4.241  14.734 -0.1768  0.1708 -0.0525
 2770TIP3    H129725   2.536   4.234  14.678  0.0679  1.2854  0.1279
 2770TIP3    H229726   2.415   4.156  14.725  1.0955 -0.5037 -0.1026
 2771TIP3   OH229727   5.308   3.338  10.975 -0.4743  0.0264 -0.3072
 2771TIP3    H129728   5.345   3.426  10.973  0.8078 -0.4663  0.7461
 2771TIP3    H229729   5.215   3.351  10.954  0.0461  1.4074 -1.9311
 2772TIP3   OH229730   3.406   1.120   1.177  0.0188  0.0146 -0.2904
 2772TIP3    H129731   3.484   1.175   1.173  0.4336 -0.6377 -2.2259
 2772TIP3    H229732   3.440   1.030   1.172 -0.7848 -0.3325  0.2066
 2773TIP3   OH229733   5.506   6.354  15.655 -0.5705  0.5068 -0.1690
 2773TIP3    H129734   5.489   6.413  15.729  0.8041  1.6687 -0.7233
 2773TIP3    H229735   5.526   6.270  15.695 -1.3163  0.7229  0.6993
 2774TIP3   OH229736   3.744   6.414  13.335 -0.6266 -0.3271 -0.0097
 2774TIP3    H129737   3.737   6.351  13.407 -0.6226  0.9372  1.1400
 2774TIP3    H229738   3.811   6.377  13.277  1.3781 -0.0989  2.0235
 2775TIP3   OH229739   5.551   1.574   3.954 -0.2867 -0.5960  0.1516
 2775TIP3    H129740   5.486   1.504   3.950 -0.0249 -0.7839 -1.0037
 2775TIP3    H229741   5.625   1.541   3.902  0.4885 -0.1278  0.9267
 2776TIP3   OH229742   0.934   1.765  13.056 -0.2713 -0.1574  0.0929
 2776TIP3    H129743   1.026   1.763  13.029  0.0197 -2.5904  1.0270
 2776TIP3    H229744   0.885   1.742  12.977 -0.0507  0.4367 -0.2268
 2777TIP3   OH229745   1.338   5.831  13.664  0.4247 -0.7014  0.2265
 2777TIP3    H129746   1.254   5.864  13.635  0.4867  0.0157  0.8134
 2777TIP3    H229747   1.382   5.802  13.584  0.2047  0.2840 -0.2688
 2778TIP3   OH229748   0.275   6.647  12.519  0.4993 -0.1310 -0.3130
 2778TIP3    H129749   0.303   6.643  12.428 -0.4665  0.4169 -0.6438
 2778TIP3    H229750   0.343   6.697  12.563  0.7678 -0.0497 -0.8104
 2779TIP3   OH229751   2.335   1.105  17.144  0.5678  0.1404  0.0726
 2779TIP3    H129752   2.324   1.174  17.078  0.4191 -0.2656 -0.3375
 2779TIP3    H229753   2.354   1.027  17.092 -2.9827 -0.9965  0.2072
 2780TIP3   OH229754   1.937   0.746   0.760 -0.0628  0.1041 -0.3610
 2780TIP3    H129755   1.920   0.652   0.749 -0.5815  0.2811 -1.1614
 2780TIP3    H229756   1.980   0.772   0.679  0.3718  0.5022 -0.0082
 2781TIP3   OH229757   4.456   4.072  17.188 -0.0346  0.1548 -0.0573
 2781TIP3    H129758   4.532   4.018  17.210  0.6681  0.9840 -0.3818
 2781TIP3    H229759   4.381   4.018  17.209  0.6518 -0.7081  0.2184
 2782TIP3   OH229760   3.742   4.326  10.916 -0.7982  0.3754 -0.3246
 2782TIP3    H129761   3.723   4.316  10.823 -1.8374 -3.4590  0.1460
 2782TIP3    H229762   3.811   4.393  10.919 -2.1972  2.2238 -3.5864
 2783TIP3   OH229763   5.446   6.679  13.098  0.4872 -0.2768  0.0183
 2783TIP3    H129764   5.494   6.701  13.019 -1.4684  2.8677 -0.4554
 2783TIP3    H229765   5.378   6.618  13.069 -0.7899  1.5542 -0.9933
 2784TIP3   OH229766   5.267   5.412   2.153 -0.1803  0.0316 -0.1591
 2784TIP3    H129767   5.232   5.414   2.064 -1.4657 -0.8375  0.2988
 2784TIP3    H229768   5.246   5.324   2.185  0.5423  0.2289  0.8871
 2785TIP3   OH229769   1.135   2.574   0.806  0.2241  0.1290 -0.2515
 2785TIP3    H129770   1.049   2.581   0.847  0.2188  0.6620 -0.3517
 2785TIP3    H229771   1.191   2.632   0.856  0.1110  1.1404 -1.2557
 2786TIP3   OH229772   5.239   5.883   2.054  0.4456 -0.1432  0.8157
 2786TIP3    H129773   5.176   5.834   2.107 -0.1778 -1.7560 -1.2660
 2786TIP3    H229774   5.284   5.816   2.003  1.4882  1.2635 -0.1727
 2787TIP3   OH229775   2.968   5.961   1.338 -0.0976  0.2305  0.6856
 2787TIP3    H129776   3.044   6.015   1.317 -0.1672 -0.5140 -1.8700
 2787TIP3    H229777   2.893   6.013   1.308 -0.5229  0.3757  1.9254
 2788TIP3   OH229778   1.209   0.110  12.032  0.0438  0.2109  0.4130
 2788TIP3    H129779   1.171   0.183  12.082 -1.4004 -0.1870 -0.0475
 2788TIP3    H229780   1.296   0.141  12.007 -0.4092  1.6427  0.5020
 2789TIP3   OH229781   4.682   4.433  12.268  0.0061 -0.0645 -0.2567
 2789TIP3    H129782   4.666   4.341  12.247 -1.4917  0.7299 -3.1236
 2789TIP3    H229783   4.730   4.467  12.192 -0.0968  1.6764  0.4141
 2790TIP3   OH229784   0.644   1.155   1.398 -0.1439 -0.2769 -0.2684
 2790TIP3    H129785   0.566   1.104   1.379 -0.0607 -0.4396 -0.1680
 2790TIP3    H229786   0.653   1.153   1.493 -0.5931  0.5910 -0.1963
 2791TIP3   OH229787   0.140   4.545  13.697  0.6026 -0.2153 -0.3107
 2791TIP3    H129788   0.230   4.568  13.720  0.6242  2.4345 -2.5001
 2791TIP3    H229789   0.149   4.477  13.630  0.7709 -2.4651  1.8914
 2792TIP3   OH229790   6.151   5.058   5.346 -0.0199  0.0969 -0.5923
 2792TIP3    H129791   6.160   5.152   5.330 -0.6494  0.3125  0.2028
 2792TIP3    H229792   6.064   5.037   5.311  0.3458 -0.3035 -1.2597
 2793TIP3   OH229793   5.057   5.418  11.904  0.2852 -0.1211  0.0774
 2793TIP3    H129794   5.112   5.341  11.891  2.2487  1.1543  0.3783
 2793TIP3    H229795   5.106   5.489  11.862 -0.9598  1.1443  0.7067
 2794TIP3   OH229796   2.075   2.910  14.032 -0.3625 -0.6840 -0.7060
 2794TIP3    H129797   2.030   2.853  14.095  1.2659  0.7219  1.9262
 2794TIP3    H229798   2.165   2.915  14.065 -0.0120  2.0045 -1.8081
 2795TIP3   OH229799   2.160   2.999   2.468  0.1859 -0.2980 -0.4402
 2795TIP3    H129800   2.082   3.027   2.420 -0.3715 -1.4017 -0.2386
 2795TIP3    H229801   2.166   2.905   2.450  0.8058 -0.4465  0.4726
 2796TIP3   OH229802   4.101   5.182   4.605 -0.8169  0.2910 -0.2071
 2796TIP3    H129803   4.133   5.271   4.588 -0.1932  0.0803 -0.1408
 2796TIP3    H229804   4.146   5.127   4.541 -0.7163 -0.0732  0.1725
 2797TIP3   OH229805   5.335   3.354   3.802 -0.1916 -0.3695 -0.3969
 2797TIP3    H129806   5.328   3.259   3.798 -1.1669 -0.3827  0.8491
 2797TIP3    H229807   5.419   3.370   3.846  0.2435 -0.6261 -1.1160
 2798TIP3   OH229808   3.921   3.314   4.188  0.1218  0.5358 -0.6069
 2798TIP3    H129809   3.952   3.226   4.212 -3.1575 -0.6795 -0.2864
 2798TIP3    H229810   3.908   3.310   4.093 -1.6526  0.0018 -0.3838
 2799TIP3   OH229811   5.888   1.705  16.223 -0.1217  0.0179 -0.0075
 2799TIP3    H129812   5.836   1.760  16.281 -0.4796 -1.0626  0.7443
 2799TIP3    H229813   5.956   1.668  16.279 -0.4736 -1.0489 -0.2576
 2800TIP3   OH229814   2.854   4.881  13.119 -0.5435 -0.1273  0.2132
 2800TIP3    H129815   2.770   4.911  13.085 -0.7631 -0.0137  0.8400
 2800TIP3    H229816   2.891   4.958  13.161  0.3451  0.0973 -0.9249
 2801TIP3   OH229817   0.530   5.094  16.517  0.7791  0.2054 -0.1865
 2801TIP3    H129818   0.519   5.182  16.482 -0.2241  0.3359  0.4192
 2801TIP3    H229819   0.619   5.069  16.492  1.2779  1.6028  0.0936
 2802TIP3   OH229820   1.324   1.214  13.933  0.0034  0.1175  0.7318
 2802TIP3    H129821   1.285   1.268  13.865  1.2932  1.8164  1.2774
 2802TIP3    H229822   1.314   1.265  14.013  2.1837  0.0846  1.0914
 2803TIP3   OH229823   5.202   4.274  14.288  0.2566 -0.0123 -0.0399
 2803TIP3    H129824   5.259   4.201  14.266 -1.3582 -1.1909 -0.4832
 2803TIP3    H229825   5.166   4.251  14.374 -0.3137  0.2395 -0.2105
 2804TIP3   OH229826   2.915   6.499   2.937  0.2159  0.4278  0.1985
 2804TIP3    H129827   2.834   6.533   2.899  1.3066  1.6668 -1.1362
 2804TIP3    H229828   2.901   6.504   3.032 -0.8219  1.7758  0.0002
 2805TIP3   OH229829   2.607   1.702  13.783  0.9088 -0.5421  0.0868
 2805TIP3    H129830   2.702   1.696  13.792  1.2800  3.9274  1.1786
 2805TIP3    H229831   2.582   1.780  13.832 -3.3758 -1.4118 -0.2753
 2806TIP3   OH229832   3.149   0.017  12.890 -0.3018  0.2843  0.0554
 2806TIP3    H129833   3.242   0.012  12.910 -0.6869 -0.8781  1.8001
 2806TIP3    H229834   3.120   0.100  12.929 -0.1872  0.1569  0.4146
 2807TIP3   OH229835   3.240   1.597   2.885 -0.4804 -0.0406  0.3234
 2807TIP3    H129836   3.254   1.539   2.960 -0.2668  1.0171  1.1103
 2807TIP3    H229837   3.291   1.675   2.904 -2.2493  1.2134  0.1868
 2808TIP3   OH229838   2.949   0.567   5.959  0.5393  0.6730 -0.3032
 2808TIP3    H129839   2.965   0.493   5.900  3.5322  1.2611 -0.4010
 2808TIP3    H229840   3.006   0.550   6.034 -0.2590  1.8719  0.5958
 2809TIP3   OH229841   3.711   2.891   4.731  0.3543  0.3421 -0.2514
 2809TIP3    H129842   3.718   2.810   4.679  0.4429  0.5886 -0.6304
 2809TIP3    H229843   3.689   2.861   4.819 -0.0385 -0.0756 -0.4838
 2810TIP3   OH229844   4.005   4.121   0.502 -0.5709 -0.3899  0.2718
 2810TIP3    H129845   4.043   4.104   0.588  0.2643 -2.1435 -0.3798
 2810TIP3    H229846   3.926   4.067   0.499  0.3140 -1.7173 -0.6274
 2811TIP3   OH229847   4.598   5.475   1.052 -0.1299  0.4773 -0.3820
 2811TIP3    H129848   4.532   5.536   1.019 -0.3162  0.9707  0.8773
 2811TIP3    H229849   4.672   5.531   1.076 -0.6675  0.3455  1.7105
 2812TIP3   OH229850   5.850   2.297  12.043 -1.0128 -0.4335 -0.0569
 2812TIP3    H129851   5.852   2.205  12.069  0.7914  0.0329  1.7253
 2812TIP3    H229852   5.936   2.331  12.068 -1.4790  1.6532 -1.0499
 2813TIP3   OH229853   6.661   4.561   1.786 -0.6590 -0.0637 -0.2762
 2813TIP3    H129854   6.604   4.570   1.862  0.4869  3.4354  0.3119
 2813TIP3    H229855   6.745   4.532   1.822 -0.0664  1.7590 -0.1207
 2814TIP3   OH229856   1.757   1.400  12.444 -0.0778  0.0790 -0.2020
 2814TIP3    H129857   1.840   1.354  12.433  0.1788  0.2231  1.0183
 2814TIP3    H229858   1.733   1.427  12.355  1.5325  0.6465 -0.5050
 2815TIP3   OH229859   0.947   5.778  11.829 -0.1933 -0.1645  0.2820
 2815TIP3    H129860   0.951   5.847  11.895  0.1259 -0.2231  0.3245
 2815TIP3    H229861   1.037   5.767  11.800 -0.3520 -0.0316 -0.2780
 2816TIP3   OH229862   5.510   5.981   0.169  0.5483  0.2139  0.1330
 2816TIP3    H129863   5.586   5.972   0.112  0.8626 -0.5221  0.6521
 2816TIP3    H229864   5.515   6.070   0.203  1.4012  0.0343  0.4807
 2817TIP3   OH229865   1.870   3.486   0.716  0.2019  0.5480  0.2070
 2817TIP3    H129866   1.920   3.404   0.714  0.5395  0.6775  1.8700
 2817TIP3    H229867   1.810   3.479   0.642  1.5025 -0.3664 -0.8161
 2818TIP3   OH229868   6.541   5.185  10.827  0.4058  0.1218 -0.4868
 2818TIP3    H129869   6.603   5.230  10.770  0.3192  0.6790 -0.1452
 2818TIP3    H229870   6.569   5.209  10.915  1.5832 -2.0523 -0.1856
 2819TIP3   OH229871   0.907   6.662   4.016  0.5208  0.5896 -0.0868
 2819TIP3    H129872   0.941   6.652   4.105  1.2952  2.3341 -0.1423
 2819TIP3    H229873   0.960   6.603   3.963 -0.0067 -0.5330  0.6051
 2820TIP3   OH229874   3.094   6.118   0.506 -0.3864  0.1469 -0.1547
 2820TIP3    H129875   3.149   6.171   0.564 -1.3439  1.6320 -0.5305
 2820TIP3    H229876   3.154   6.088   0.438  0.2893  0.3356  0.3428
 2821TIP3   OH229877   4.553   0.049  11.326 -0.1858  0.5389  0.0395
 2821TIP3    H129878   4.592   0.135  11.307  0.2413  0.3600  0.0991
 2821TIP3    H229879   4.549   0.044  11.421 -2.4098  1.4711  0.0616
 2822TIP3   OH229880   4.689   3.376   6.378  0.0018 -0.1946  0.1195
 2822TIP3    H129881   4.778   3.352   6.403  0.4219  1.5312  0.4292
 2822TIP3    H229882   4.634   3.303   6.407  0.9869 -0.1277  2.3636
 2823TIP3   OH229883   4.376   2.292   3.004  0.0623 -0.0016  0.5023
 2823TIP3    H129884   4.467   2.262   3.013  0.1357 -0.1927 -0.6702
 2823TIP3    H229885   4.366   2.359   3.071  1.1873  0.2963  0.3943
 2824TIP3   OH229886   3.597   4.632  16.777  0.2159  0.7140 -0.0329
 2824TIP3    H129887   3.660   4.685  16.728  0.8431  0.0320  0.0073
 2824TIP3    H229888   3.651   4.568  16.824 -0.5757 -1.2533 -1.6216
 2825TIP3   OH229889   4.398   1.821  12.600 -0.0286  0.1953 -0.0555
 2825TIP3    H129890   4.417   1.789  12.512  0.9216 -0.6416  0.4337
 2825TIP3    H229891   4.468   1.785  12.654  3.1755  5.6231  0.0919
 2826TIP3   OH229892   3.779   6.039   4.604 -0.2105 -0.4396 -0.5106
 2826TIP3    H129893   3.866   6.029   4.565  0.9234 -1.1670  1.9968
 2826TIP3    H229894   3.772   6.132   4.624  0.6176 -0.5664  0.4938
 2827TIP3   OH229895   6.405   4.355  13.219  0.0887  0.1309 -0.0573
 2827TIP3    H129896   6.438   4.408  13.146 -1.0851 -0.8183 -1.3197
 2827TIP3    H229897   6.314   4.383  13.230 -0.2966 -1.0415 -0.2067
 2828TIP3   OH229898   0.814   1.423  16.607  0.0913  0.1993  0.0376
 2828TIP3    H129899   0.725   1.458  16.602 -0.0164 -0.1987 -1.0802
 2828TIP3    H229900   0.817   1.354  16.541  0.9148 -0.5271  0.8060
 2829TIP3   OH229901   4.528   4.948  17.217  0.6822 -0.0065  0.1611
 2829TIP3    H129902   4.555   5.036  17.241  2.5154 -0.4410 -0.1317
 2829TIP3    H229903   4.532   4.898  17.299 -1.3503  0.3575  0.5390
 2830TIP3   OH229904   0.214   1.959   4.297  0.0693  0.2211 -0.0897
 2830TIP3    H129905   0.245   1.947   4.387  0.4962  0.3449 -0.2137
 2830TIP3    H229906   0.239   2.049   4.276 -1.5742  0.7779  0.2552
 2831TIP3   OH229907   2.397   3.255  14.301 -0.1725  0.5607  0.1838
 2831TIP3    H129908   2.449   3.191  14.349  0.2682  1.3617  0.8004
 2831TIP3    H229909   2.426   3.340  14.335  1.1077  1.2566 -2.3944
 2832TIP3   OH229910   2.539   1.727   4.273  0.4170  0.3364  0.1175
 2832TIP3    H129911   2.532   1.804   4.330  2.9920  0.0616  0.9393
 2832TIP3    H229912   2.627   1.694   4.288 -0.4408 -2.5869 -0.4800
 2833TIP3   OH229913   4.468   4.242   0.415  0.2001 -0.2985 -0.5819
 2833TIP3    H129914   4.551   4.266   0.457 -0.2639 -0.4150  0.4244
 2833TIP3    H229915   4.407   4.310   0.441 -0.3088 -0.8260 -0.3890
 2834TIP3   OH229916   4.866   5.449   5.702  0.7492 -0.0652  0.3696
 2834TIP3    H129917   4.780   5.459   5.661  0.1850 -1.0427  1.2557
 2834TIP3    H229918   4.849   5.397   5.780  1.9404  0.8913  1.3165
 2835TIP3   OH229919   4.865   3.607  15.337  0.2297 -0.2228 -0.6790
 2835TIP3    H129920   4.839   3.590  15.246 -1.8466 -0.0630 -0.1663
 2835TIP3    H229921   4.795   3.568  15.389  1.2361 -0.0431  0.8591
 2836TIP3   OH229922   4.362   4.231  12.156 -0.2793 -0.6889 -0.2625
 2836TIP3    H129923   4.342   4.306  12.213  0.0559 -1.4199  0.8580
 2836TIP3    H229924   4.457   4.232  12.149 -0.3565  1.7455 -4.1447
 2837TIP3   OH229925   2.247   3.143   0.724 -0.2518  0.2909  0.1956
 2837TIP3    H129926   2.323   3.143   0.667 -0.4429 -3.3817 -0.3024
 2837TIP3    H229927   2.278   3.181   0.806  0.9715  2.3968 -1.1393
 2838TIP3   OH229928   1.390   6.459  16.483 -0.0588 -0.4954 -0.2469
 2838TIP3    H129929   1.454   6.422  16.545  0.0053 -0.8837 -0.5429
 2838TIP3    H229930   1.346   6.528  16.533  0.0226 -0.7766  0.2227
 2839TIP3   OH229931   6.423   0.124   3.687 -0.4499  0.1658  0.5884
 2839TIP3    H129932   6.460   0.121   3.775 -0.7553  0.3266  0.7232
 2839TIP3    H229933   6.401   0.033   3.667  0.7294 -0.0451  0.2015
 2840TIP3   OH229934   4.389   6.170   4.268 -0.0015  0.2003  0.0890
 2840TIP3    H129935   4.308   6.139   4.310 -1.5359  2.4744 -1.0509
 2840TIP3    H229936   4.412   6.250   4.316  2.2837 -0.9427  1.1085
 2841TIP3   OH229937   1.853   3.182   1.621 -0.1297  0.1141  0.5236
 2841TIP3    H129938   1.944   3.182   1.648  0.8118  0.4197 -2.3165
 2841TIP3    H229939   1.821   3.269   1.644  0.7842  0.5545  0.1950
 2842TIP3   OH229940   6.641   1.530  10.960 -0.0015 -0.6693  0.2703
 2842TIP3    H129941   6.703   1.567  10.897  0.4180 -1.9281 -0.1082
 2842TIP3    H229942   6.562   1.583  10.951  0.7894  0.5434  0.2766
 2843TIP3   OH229943   2.715   5.505  12.180  0.5742  0.0724 -0.4075
 2843TIP3    H129944   2.701   5.524  12.272 -1.0081 -1.5839 -0.2398
 2843TIP3    H229945   2.731   5.591  12.139  2.5180  0.7250  1.5228
 2844TIP3   OH229946   5.913   5.073   5.095  0.0057  0.4854 -0.2133
 2844TIP3    H129947   5.903   5.067   5.000 -0.8050  2.8376 -0.3636
 2844TIP3    H229948   5.908   5.167   5.113  0.7253  0.1377  2.1135
 2845TIP3   OH229949   5.968   6.014  16.008  0.1639  0.4209 -0.0147
 2845TIP3    H129950   5.906   6.039  15.940  0.0721  0.3904  0.0567
 2845TIP3    H229951   5.966   5.918  16.007  0.4417  0.4161 -0.2220
 2846TIP3   OH229952   3.992   3.652  15.767 -0.0473 -0.1394 -0.0868
 2846TIP3    H129953   3.994   3.659  15.671  1.6007 -0.6757 -0.1153
 2846TIP3    H229954   3.965   3.739  15.796 -1.4807 -0.2300 -1.0437
 2847TIP3   OH229955   6.746   4.165  14.862 -0.1318  0.0435 -0.4676
 2847TIP3    H129956   6.699   4.170  14.944 -0.1676  4.5823 -0.4864
 2847TIP3    H229957   6.690   4.113  14.804 -2.4304  0.6704  1.0709
 2848TIP3   OH229958   4.965   4.547   5.143  0.1008 -0.6215  0.3399
 2848TIP3    H129959   4.964   4.620   5.204 -0.3052 -1.3151  1.1793
 2848TIP3    H229960   4.882   4.555   5.095 -1.0695 -1.8381  2.0515
 2849TIP3   OH229961   3.970   1.133  14.725  0.1111  0.2194 -0.4374
 2849TIP3    H129962   3.983   1.041  14.700 -1.0586 -0.0341 -0.1461
 2849TIP3    H229963   4.035   1.147  14.795  0.1694 -0.4414 -0.3444
 2850TIP3   OH229964   4.991   5.767   3.477 -0.8126 -0.3628  0.3626
 2850TIP3    H129965   4.942   5.815   3.545 -0.4653  0.2565  0.1824
 2850TIP3    H229966   5.061   5.827   3.452 -0.1601 -1.1133  0.3783
 2851TIP3   OH229967   5.241   3.802   5.291  0.1308  0.7460  0.2900
 2851TIP3    H129968   5.205   3.849   5.216 -0.7500 -0.1275  0.1464
 2851TIP3    H229969   5.266   3.871   5.353 -2.9217  1.4162  0.9172
 2852TIP3   OH229970   6.245   4.623   1.555 -0.6111 -0.5427  0.6729
 2852TIP3    H129971   6.155   4.638   1.583 -0.7900  0.3515 -0.2837
 2852TIP3    H229972   6.260   4.530   1.569 -1.3150 -0.4923  1.8593
 2853TIP3   OH229973   3.728   2.766   5.732  0.0946 -0.0039 -0.5214
 2853TIP3    H129974   3.712   2.672   5.732  1.8310 -0.3270 -0.4115
 2853TIP3    H229975   3.776   2.783   5.651  0.8379  0.5744  0.0190
 2854TIP3   OH229976   1.234   0.410   2.210 -0.1156 -0.0930  0.6856
 2854TIP3    H129977   1.162   0.473   2.213 -0.3666 -0.3373 -0.0900
 2854TIP3    H229978   1.281   0.424   2.293 -1.7940 -0.8327  1.8255
 2855TIP3   OH229979   3.521   4.913   2.420 -0.1288 -0.2919  0.1601
 2855TIP3    H129980   3.481   4.947   2.500 -3.0496  0.2029 -1.3690
 2855TIP3    H229981   3.527   4.819   2.435 -1.2044 -0.2829  0.7555
 2856TIP3   OH229982   4.676   4.684  16.231 -0.4662 -0.1804 -0.5946
 2856TIP3    H129983   4.756   4.733  16.251 -0.2935  1.5629 -4.4801
 2856TIP3    H229984   4.605   4.742  16.258 -0.3345  0.0194 -0.6685
 2857TIP3   OH229985   1.236   2.179  14.325  0.2052 -0.3865  0.2735
 2857TIP3    H129986   1.146   2.157  14.349  0.3535 -0.2792  0.9640
 2857TIP3    H229987   1.228   2.257  14.269 -0.2918 -1.8893 -1.8790
 2858TIP3   OH229988   1.129   1.278   2.930  0.1574  0.2048  0.0047
 2858TIP3    H129989   1.086   1.238   3.005  1.2593  0.4657  0.7946
 2858TIP3    H229990   1.161   1.362   2.962 -1.0125  1.1881 -1.2842
 2859TIP3   OH229991   3.631   3.488  13.103  0.5055  0.0016  0.5055
 2859TIP3    H129992   3.677   3.554  13.051  2.1091 -0.9126  0.6989
 2859TIP3    H229993   3.550   3.471  13.054  0.9702  0.7191 -0.5389
 2860TIP3   OH229994   6.343   1.620  11.662 -0.3768 -0.1230  0.0304
 2860TIP3    H129995   6.401   1.573  11.601  1.3499  2.0607 -0.1514
 2860TIP3    H229996   6.273   1.654  11.606  0.5491  0.8553 -0.5877
 2861TIP3   OH229997   4.441   6.156  12.211  0.4373  0.2266 -0.2973
 2861TIP3    H129998   4.445   6.149  12.306  0.8061 -0.1774 -0.3403
 2861TIP3    H229999   4.511   6.217  12.188  0.8238 -0.2408 -0.3669
 2862TIP3   OH230000   6.008   4.842  15.651 -0.3232 -0.2485 -0.0980
 2862TIP3    H130001   6.023   4.842  15.556  2.3913  1.9757  0.1963
 2862TIP3    H230002   6.041   4.757  15.681 -0.1384 -0.5032 -0.9996
 2863TIP3   OH230003   0.009   3.137   4.740  0.6841  0.0598 -0.1107
 2863TIP3    H130004  -0.077   3.153   4.779  1.4575  0.1650  1.6288
 2863TIP3    H230005   0.025   3.213   4.685  0.4059  0.8797  0.9245
 2864TIP3   OH230006   3.260   5.872   1.055 -0.5093  0.4450  0.0026
 2864TIP3    H130007   3.246   5.913   0.970 -1.6624 -0.4323 -0.2475
 2864TIP3    H230008   3.175   5.836   1.079  0.3487 -1.4769  0.3712
 2865TIP3   OH230009   4.489   2.116   4.125 -0.2373  0.4245 -0.4632
 2865TIP3    H130010   4.427   2.179   4.090 -0.2764  0.4396 -0.3669
 2865TIP3    H230011   4.477   2.037   4.073 -1.9123 -0.3354  0.9853
 2866TIP3   OH230012   0.985   6.622   1.852  0.2067  0.1092 -0.4830
 2866TIP3    H130013   1.070   6.655   1.880  0.0633 -0.8290  1.2094
 2866TIP3    H230014   1.000   6.529   1.833 -0.2633  0.1341 -1.0273
 2867TIP3   OH230015   5.483   2.387   0.554 -0.3202 -0.4473 -0.1968
 2867TIP3    H130016   5.491   2.453   0.622 -1.6902  0.4638 -0.8651
 2867TIP3    H230017   5.571   2.379   0.517  0.0904  0.1926  0.6276
 2868TIP3   OH230018   0.310   1.410  15.252  0.2619  0.0918  0.0856
 2868TIP3    H130019   0.228   1.386  15.295 -0.6869  1.3602 -0.9310
 2868TIP3    H230020   0.358   1.461  15.317 -1.1365  1.9603 -0.2756
 2869TIP3   OH230021   1.021   5.240  13.322  0.0439 -0.0250  0.5494
 2869TIP3    H130022   0.940   5.289  13.337 -0.0536  0.0420 -0.1764
 2869TIP3    H230023   0.995   5.148  13.328 -0.2847 -0.0255 -0.5855
 2870TIP3   OH230024   0.771   1.244  14.480 -0.0839 -0.3095 -0.6473
 2870TIP3    H130025   0.694   1.282  14.523  0.5614 -0.6022  0.8028
 2870TIP3    H230026   0.752   1.150  14.479  0.5724 -0.4678  0.4153
 2871TIP3   OH230027   1.460   0.549  13.781  0.3418 -0.4416  0.2908
 2871TIP3    H130028   1.514   0.580  13.708 -0.4966  0.6645  0.1209
 2871TIP3    H230029   1.505   0.470  13.811  1.2476 -0.3679 -0.7809
 2872TIP3   OH230030   2.255   1.736   0.326 -0.2935  0.7104  0.2228
 2872TIP3    H130031   2.193   1.719   0.397  2.0303 -2.2369  1.7947
 2872TIP3    H230032   2.204   1.722   0.246 -2.1672  0.6107  1.3795
 2873TIP3   OH230033   0.656   6.383   2.739 -0.0832  0.0234  0.2934
 2873TIP3    H130034   0.690   6.471   2.723 -1.0924  0.4690  0.5164
 2873TIP3    H230035   0.701   6.355   2.819 -0.5227  0.7628  0.8136
 2874TIP3   OH230036   0.149   1.226   4.909 -0.6397 -0.2768 -0.1435
 2874TIP3    H130037   0.118   1.225   4.818  1.2415  0.1914 -0.8340
 2874TIP3    H230038   0.083   1.277   4.956 -1.3078  0.0501 -1.3836
 2875TIP3   OH230039   5.971   6.109  15.530  0.5791  0.0661  0.5393
 2875TIP3    H130040   6.021   6.190  15.547  1.0176  0.6095 -2.6488
 2875TIP3    H230041   5.942   6.118  15.439 -4.1447 -0.9312  1.6851
 2876TIP3   OH230042   4.003   5.601  15.627 -0.1497 -0.3884 -0.0929
 2876TIP3    H130043   3.951   5.550  15.565 -0.6138  0.2847 -0.2583
 2876TIP3    H230044   4.057   5.658  15.573 -0.4912  0.1384  0.1179
 2877TIP3   OH230045   1.404   5.678  12.240  0.4942 -0.2568 -0.1614
 2877TIP3    H130046   1.364   5.711  12.321 -0.7957  0.5312 -1.0802
 2877TIP3    H230047   1.490   5.646  12.267  0.2203  0.2839  1.4648
 2878TIP3   OH230048   5.908   6.290  13.286 -0.2034  0.3824  0.8924
 2878TIP3    H130049   5.978   6.241  13.244  1.1777  0.7193  2.7202
 2878TIP3    H230050   5.848   6.311  13.214  1.7596  0.4729 -0.8226
 2879TIP3   OH230051   6.554   5.906   1.028  0.3467  0.0294  0.1260
 2879TIP3    H130052   6.649   5.918   1.027  0.4620 -0.8479 -0.6374
 2879TIP3    H230053   6.522   5.978   1.083  1.3264  1.2855 -0.8720
 2880TIP3   OH230054   1.329   4.028  14.420 -0.0169  0.0665  0.1729
 2880TIP3    H130055   1.282   4.083  14.358  0.5237 -0.8466 -1.0739
 2880TIP3    H230056   1.392   4.087  14.461  1.1883  0.2339 -1.8102
 2881TIP3   OH230057   1.838   1.837  13.424 -0.4702 -0.2872  0.2449
 2881TIP3    H130058   1.895   1.780  13.475  2.5767  1.3930 -1.0442
 2881TIP3    H230059   1.770   1.864  13.486  0.7028 -1.5538  2.1940
 2882TIP3   OH230060   3.915   3.062  11.209 -0.1252 -0.2218 -0.5634
 2882TIP3    H130061   3.944   3.121  11.278  0.1507  0.6139 -1.3847
 2882TIP3    H230062   3.975   2.988  11.214  1.7414  1.1373 -1.7486
 2883TIP3   OH230063   2.245   2.576  13.903 -0.2671  0.0720 -0.6011
 2883TIP3    H130064   2.247   2.531  13.818 -1.7520 -0.5809 -0.3268
 2883TIP3    H230065   2.198   2.516  13.961  0.0550  0.8422  0.4934
 2884TIP3   OH230066   4.113   1.150   6.380  0.0959 -0.0833 -0.1222
 2884TIP3    H130067   4.181   1.106   6.328  0.7358  1.1066 -0.3449
 2884TIP3    H230068   4.083   1.221   6.323 -0.5012  0.1195  0.4413
 2885TIP3   OH230069   5.931   3.801  16.502  0.0019 -0.1250  0.1676
 2885TIP3    H130070   5.918   3.849  16.421 -1.2075  1.0505  1.0122
 2885TIP3    H230071   6.009   3.841  16.542  0.2407 -0.2988 -0.1235
 2886TIP3   OH230072   1.058   4.998  15.001 -0.6779  0.2312 -0.3900
 2886TIP3    H130073   1.034   4.907  15.017  3.5208 -1.5010 -2.2642
 2886TIP3    H230074   1.120   5.019  15.071 -2.7309  2.3850  0.9485
 2887TIP3   OH230075   0.024   3.267  12.348  0.6005 -0.2500  0.6649
 2887TIP3    H130076  -0.003   3.184  12.387  2.0362 -0.6264  0.9433
 2887TIP3    H230077   0.048   3.245  12.258  0.7761 -0.1056  0.6746
 2888TIP3   OH230078   2.175   6.231  14.600  0.4538  0.6006 -0.1683
 2888TIP3    H130079   2.223   6.240  14.682  1.2151  2.3135 -0.7532
 2888TIP3    H230080   2.086   6.207  14.626  0.8004  0.6291  1.1049
 2889TIP3   OH230081   5.135   6.242  12.349  0.2477 -0.6630  0.6573
 2889TIP3    H130082   5.145   6.334  12.371  0.5275 -0.3258 -0.7932
 2889TIP3    H230083   5.046   6.220  12.377 -0.2965  0.4123 -0.1759
 2890TIP3   OH230084   0.087   1.581   0.621  0.1441  0.3432  0.0982
 2890TIP3    H130085   0.072   1.508   0.561 -0.9299  0.5733  0.0494
 2890TIP3    H230086   0.080   1.543   0.708  1.0084  0.1345  0.0789
 2891TIP3   OH230087   6.211   4.779  13.064  0.1602 -0.6789 -0.4908
 2891TIP3    H130088   6.249   4.745  12.983  0.8640  0.1029 -0.5072
 2891TIP3    H230089   6.282   4.774  13.128 -0.1368 -0.5258 -0.1448
 2892TIP3   OH230090   0.722   5.508   0.533 -0.6314  0.9816 -0.0382
 2892TIP3    H130091   0.790   5.497   0.467  1.1412  1.8264  1.5420
 2892TIP3    H230092   0.673   5.585   0.505 -1.3498  0.0559 -1.4752
 2893TIP3   OH230093   1.997   2.262  11.678  0.5125 -0.0941  0.4558
 2893TIP3    H130094   2.086   2.248  11.711  0.0822  0.4537  1.9237
 2893TIP3    H230095   1.980   2.186  11.623  2.4154  0.5154 -1.0705
 2894TIP3   OH230096   4.581   6.578  14.969  0.3485 -0.1657 -0.0797
 2894TIP3    H130097   4.530   6.635  15.029 -0.0599 -2.3833  1.8237
 2894TIP3    H230098   4.518   6.553  14.902 -0.4541 -0.9970  0.9448
 2895TIP3   OH230099   0.919   2.425  14.018  0.2775  0.4983 -0.3030
 2895TIP3    H130100   0.927   2.334  14.047  1.5316  0.8990  0.7316
 2895TIP3    H230101   0.975   2.430  13.940 -1.1471  0.0053 -1.3943
 2896TIP3   OH230102   4.444   0.263   5.680 -0.0917 -0.4804  0.0387
 2896TIP3    H130103   4.364   0.291   5.724 -0.1129 -1.7455  0.8395
 2896TIP3    H230104   4.515   0.305   5.729 -0.2075  0.0306 -0.2138
 2897TIP3   OH230105   0.153   3.657   2.207  0.5279  0.1893  0.5321
 2897TIP3    H130106   0.087   3.727   2.207 -3.2003 -3.0216 -0.0768
 2897TIP3    H230107   0.167   3.637   2.115  1.9790  0.3845  0.6846
 2898TIP3   OH230108   6.235   1.105   1.125 -0.2834  0.0105  0.6947
 2898TIP3    H130109   6.248   1.170   1.055  0.7174 -1.8664 -0.9727
 2898TIP3    H230110   6.140   1.096   1.132 -0.4977 -1.7330 -2.4921
 2899TIP3   OH230111   3.372   2.939   3.595 -0.1474  0.7189  0.4308
 2899TIP3    H130112   3.282   2.947   3.629  0.4846  0.9282  2.1355
 2899TIP3    H230113   3.385   2.844   3.587 -0.3758  0.6686  0.6151
 2900TIP3   OH230114   6.637   1.784  15.377  0.7800 -0.3135  0.0134
 2900TIP3    H130115   6.542   1.784  15.369  0.7024  0.0778  0.9134
 2900TIP3    H230116   6.654   1.778  15.471  1.6372 -0.0966 -0.1167
 2901TIP3   OH230117   4.788   2.337  12.062 -0.4044  0.5065 -0.2936
 2901TIP3    H130118   4.726   2.384  12.117  0.6156 -0.1148  1.4551
 2901TIP3    H230119   4.797   2.251  12.102  1.6292  0.6072 -0.4126
 2902TIP3   OH230120   2.288   4.028  14.434 -0.3519  0.5604  0.2715
 2902TIP3    H130121   2.264   4.021  14.341 -0.5461  1.8700  0.2005
 2902TIP3    H230122   2.238   3.959  14.477 -0.8588  0.4330 -0.4979
 2903TIP3   OH230123   0.159   3.149   2.556  0.0899 -0.1123 -0.0813
 2903TIP3    H130124   0.209   3.132   2.636  2.7234  0.0532 -1.5840
 2903TIP3    H230125   0.076   3.186   2.587  1.9517  2.3093  2.5432
 2904TIP3   OH230126   5.557   3.883  12.890  0.3776  0.0226  0.0022
 2904TIP3    H130127   5.483   3.858  12.944  1.1933 -1.8692  0.3321
 2904TIP3    H230128   5.633   3.844  12.934  1.1399 -1.1267 -2.1624
 2905TIP3   OH230129   1.754   3.776  14.485  0.4041  0.4927  0.6501
 2905TIP3    H130130   1.676   3.770  14.431  1.0566 -0.4077 -0.2428
 2905TIP3    H230131   1.728   3.740  14.570 -0.3484  0.9390  0.6151
 2906TIP3   OH230132   4.366   5.198   2.742  0.2276 -0.0788  0.1863
 2906TIP3    H130133   4.356   5.287   2.775  0.1739  0.4380 -1.1443
 2906TIP3    H230134   4.460   5.179   2.750  0.3929  0.4648 -0.3814
 2907TIP3   OH230135   0.216   3.939  13.045  0.2259  0.4337 -0.0990
 2907TIP3    H130136   0.254   3.858  13.077 -0.1582  0.0340 -0.6287
 2907TIP3    H230137   0.275   4.008  13.075  0.2864  0.0058  0.7842
 2908TIP3   OH230138   5.162   2.310   1.502  0.6573  0.0184 -0.1754
 2908TIP3    H130139   5.090   2.290   1.561  0.9725  0.0867  0.2405
 2908TIP3    H230140   5.210   2.380   1.546  0.0949  1.0585 -1.1836
 2909TIP3   OH230141   2.792   3.479  12.517 -0.4673 -0.1971  0.2169
 2909TIP3    H130142   2.712   3.443  12.555 -0.6932  1.5685  1.5582
 2909TIP3    H230143   2.765   3.518  12.434 -1.0404  0.4520  0.6971
 2910TIP3   OH230144   3.980   2.269  11.740 -0.3026 -0.4782  0.5753
 2910TIP3    H130145   4.064   2.224  11.731 -0.2708 -0.2510 -0.3773
 2910TIP3    H230146   3.997   2.358  11.710 -1.0875 -0.6754 -0.5441
 2911TIP3   OH230147   0.278   3.316   1.832 -0.0255  0.0383 -0.1376
 2911TIP3    H130148   0.278   3.361   1.747 -0.5238 -0.2260 -0.2800
 2911TIP3    H230149   0.276   3.387   1.897  0.1829  0.2378 -0.3466
 2912TIP3   OH230150   6.725   0.143   2.283  0.1298  0.0540  0.2560
 2912TIP3    H130151   6.819   0.137   2.297  0.3082 -0.8056 -1.1341
 2912TIP3    H230152   6.689   0.067   2.331  0.2424 -0.1482  0.0225
 2913TIP3   OH230153   4.722   4.809   5.330  0.0716  0.4338 -0.3361
 2913TIP3    H130154   4.809   4.782   5.360 -1.1508 -1.1924  1.9829
 2913TIP3    H230155   4.663   4.785   5.401 -2.3697  1.0516 -2.0352
 2914TIP3   OH230156   0.899   2.403   3.309 -0.2005 -0.8462  0.5047
 2914TIP3    H130157   0.819   2.413   3.360  2.4046  1.4775  4.8065
 2914TIP3    H230158   0.941   2.325   3.345  0.2966 -0.9969 -0.3739
 2915TIP3   OH230159   3.015   3.025  14.685 -0.0825 -0.1093  0.1827
 2915TIP3    H130160   3.081   3.094  14.677  0.6763 -0.2346  3.6928
 2915TIP3    H230161   3.058   2.955  14.734 -1.9499 -1.4652  0.0185
 2916TIP3   OH230162   6.394   6.208  11.758 -0.1466  0.1855  0.3065
 2916TIP3    H130163   6.367   6.297  11.782  1.3998  0.6724  0.3547
 2916TIP3    H230164   6.489   6.215  11.746 -0.4515 -0.5329 -3.6824
 2917TIP3   OH230165   2.150   0.640   2.096  0.0772  0.4119  0.1906
 2917TIP3    H130166   2.144   0.585   2.174 -0.3278  0.6133  0.3039
 2917TIP3    H230167   2.130   0.728   2.128  0.9282  0.6639  0.0504
 2918TIP3   OH230168   2.598   5.333   2.520 -0.6327  0.3921  0.0716
 2918TIP3    H130169   2.687   5.341   2.485 -1.4198 -0.4211 -2.3128
 2918TIP3    H230170   2.555   5.415   2.496 -0.7487  0.4786  0.5598
 2919TIP3   OH230171   0.017   1.003   5.779 -0.6230  0.3010  0.0480
 2919TIP3    H130172  -0.033   1.023   5.857 -1.2431 -0.2565 -0.1974
 2919TIP3    H230173   0.015   0.907   5.772 -1.6484  0.3898 -1.3224
 2920TIP3   OH230174   2.633   1.587  11.568  0.6951 -0.8859 -0.4374
 2920TIP3    H130175   2.645   1.631  11.652 -0.8245  1.1421 -1.1643
 2920TIP3    H230176   2.721   1.574  11.534  1.2727  1.7002 -0.1408
 2921TIP3   OH230177   0.577   3.777   2.924 -0.0351 -0.3446 -0.5871
 2921TIP3    H130178   0.597   3.753   2.833  0.8185 -0.1562 -0.4547
 2921TIP3    H230179   0.660   3.806   2.960 -0.4048 -0.2600  0.2152
 2922TIP3   OH230180   5.408   0.811   5.477  0.1578 -0.1306 -0.1656
 2922TIP3    H130181   5.336   0.831   5.417 -0.0059  0.0479  0.0872
 2922TIP3    H230182   5.474   0.768   5.423 -0.9575 -2.1413 -0.0351
 2923TIP3   OH230183   2.293   6.377  13.046 -0.4411 -0.3793  0.5638
 2923TIP3    H130184   2.383   6.386  13.075 -0.4958 -0.0279  0.6269
 2923TIP3    H230185   2.274   6.459  13.000  0.2745 -1.6333 -2.1667
 2924TIP3   OH230186   3.381   5.776  12.310  0.3399 -1.0319  0.1575
 2924TIP3    H130187   3.328   5.724  12.370 -0.6654  0.4968  0.6588
 2924TIP3    H230188   3.330   5.779  12.229 -0.1347  0.0119  0.4745
 2925TIP3   OH230189   2.993   3.310   5.259 -0.0957  0.9838 -0.2344
 2925TIP3    H130190   2.955   3.321   5.346 -1.5310 -0.5890 -0.6222
 2925TIP3    H230191   2.932   3.356   5.200 -0.3895  0.0729 -0.6538
 2926TIP3   OH230192   2.394   1.485  12.428  0.0462 -0.3969  0.2177
 2926TIP3    H130193   2.339   1.419  12.470 -0.7169 -0.2252 -0.5035
 2926TIP3    H230194   2.483   1.461  12.454 -0.4486  0.8221  3.5985
 2927TIP3   OH230195   4.635   3.074  15.627 -0.1601  0.4084 -0.0698
 2927TIP3    H130196   4.561   3.091  15.570 -1.1502 -0.0162  1.0485
 2927TIP3    H230197   4.620   2.986  15.661  0.7613  0.3885  0.3311
 2928TIP3   OH230198   2.459   3.843  15.611 -0.0829  0.5845 -0.5160
 2928TIP3    H130199   2.449   3.753  15.579  1.3701  0.9104 -2.0463
 2928TIP3    H230200   2.457   3.897  15.532 -1.4290  1.9687  0.4202
 2929TIP3   OH230201   5.949   4.709  13.056  0.6800 -0.3235 -0.5424
 2929TIP3    H130202   6.032   4.754  13.039 -0.1529  0.8348 -1.7780
 2929TIP3    H230203   5.960   4.670  13.143  1.2965  2.7102  0.8766
 2930TIP3   OH230204   0.595   2.058   2.004 -0.6391  0.0463 -0.4853
 2930TIP3    H130205   0.613   1.991   2.070 -1.5284 -0.7693 -1.0555
 2930TIP3    H230206   0.552   2.128   2.053 -0.6815 -0.2547 -0.0819
 2931TIP3   OH230207   0.030   1.630  16.383  0.0621 -0.1237 -0.1769
 2931TIP3    H130208   0.054   1.538  16.394 -1.0220 -0.5356 -1.1032
 2931TIP3    H230209   0.078   1.658  16.305 -1.3365 -0.5696 -1.2345
 2932TIP3   OH230210   0.050   6.480  14.265  0.2793  0.0000 -0.2943
 2932TIP3    H130211  -0.001   6.417  14.215 -0.8961  0.8068 -0.1702
 2932TIP3    H230212   0.088   6.430  14.337  2.2265 -1.2447 -2.0685
 2933TIP3   OH230213   0.325   1.493  16.445  0.3144 -0.0506 -0.4354
 2933TIP3    H130214   0.379   1.516  16.520  0.0895  0.1910 -0.3448
 2933TIP3    H230215   0.347   1.557  16.378 -0.7057  0.7835  0.0016
 2934TIP3   OH230216   1.248   6.023  15.805 -0.3698 -0.0147  0.1583
 2934TIP3    H130217   1.171   5.966  15.804  0.0141 -0.5702  0.7599
 2934TIP3    H230218   1.234   6.082  15.879 -0.3692  0.0986  0.0680
 2935TIP3   OH230219   4.401   0.083   3.750  0.4128 -0.2171 -0.1478
 2935TIP3    H130220   4.345   0.134   3.692 -0.1997  0.2702  0.8588
 2935TIP3    H230221   4.387   0.120   3.837  3.7928  1.3061 -0.0859
 2936TIP3   OH230222   3.278   2.832  11.044 -0.4718 -0.0625 -0.0512
 2936TIP3    H130223   3.346   2.797  10.986  0.7280  1.7372  0.1752
 2936TIP3    H230224   3.311   2.918  11.070 -3.2776  1.3328 -0.7072
 2937TIP3   OH230225   3.895   6.221  13.538 -0.4151  0.1703  0.2370
 2937TIP3    H130226   3.860   6.143  13.581 -0.5318 -0.0019 -0.1738
 2937TIP3    H230227   3.949   6.263  13.606  0.2706 -0.6705  0.2298
 2938TIP3   OH230228   1.033   1.442   5.139  0.4960  0.1532 -0.3612
 2938TIP3    H130229   0.963   1.457   5.075 -0.5369  0.3519  0.7777
 2938TIP3    H230230   1.014   1.356   5.177  1.6259 -0.3789 -0.9379
 2939TIP3   OH230231   5.457   4.979   1.104  0.2305  0.1762 -0.7961
 2939TIP3    H130232   5.425   4.904   1.054 -0.1400  0.2447 -0.6709
 2939TIP3    H230233   5.483   4.942   1.188  0.4326  0.1283 -0.8785
 2940TIP3   OH230234   3.950   0.638  11.558 -0.2916  0.4840 -0.2716
 2940TIP3    H130235   3.991   0.666  11.476 -1.2894  0.5253 -0.7764
 2940TIP3    H230236   3.991   0.693  11.625  0.5310  0.4583 -0.7320
 2941TIP3   OH230237   1.998   4.201  12.640 -0.1928 -0.4245 -0.3224
 2941TIP3    H130238   2.073   4.260  12.640  0.2040 -0.8213  2.0878
 2941TIP3    H230239   2.035   4.115  12.623 -0.2061 -0.5112  0.0772
 2942TIP3   OH230240   6.603   2.239  13.836 -0.1583  0.2802 -0.0094
 2942TIP3    H130241   6.577   2.259  13.926  2.5039  1.3669  0.6146
 2942TIP3    H230242   6.604   2.324  13.792  0.6695  0.0595 -0.4335
 2943TIP3   OH230243   2.349   4.004  12.451 -0.8349  0.1920 -0.6411
 2943TIP3    H130244   2.277   3.996  12.514 -1.6879 -3.0189 -1.7977
 2943TIP3    H230245   2.313   4.056  12.379 -1.0269  0.9703  0.0125
 2944TIP3   OH230246   2.424   0.746  14.708  0.4749  0.0212  0.1646
 2944TIP3    H130247   2.500   0.771  14.760  0.8502 -1.1328  0.1993
 2944TIP3    H230248   2.427   0.804  14.632  0.4879  1.0453  0.9203
 2945TIP3   OH230249   1.238   1.267   1.266  0.2587  0.0572 -0.5245
 2945TIP3    H130250   1.152   1.310   1.259  0.5411  0.7752  0.2322
 2945TIP3    H230251   1.298   1.339   1.284  1.0732 -0.4009 -1.3574
 2946TIP3   OH230252   2.763   5.278  12.999  0.2718 -0.2931  0.5717
 2946TIP3    H130253   2.702   5.284  12.925  0.4856  0.7088  0.4573
 2946TIP3    H230254   2.772   5.369  13.029 -1.4852 -0.8717  3.2002
 2947TIP3   OH230255   1.751   0.246  16.080 -0.0746  0.3746  0.1830
 2947TIP3    H130256   1.808   0.323  16.078  0.1308  0.2102 -0.6697
 2947TIP3    H230257   1.765   0.208  16.166  2.3674 -0.5759 -0.5425
 2948TIP3   OH230258   1.021   5.804   3.613 -0.1904 -0.4709 -0.5676
 2948TIP3    H130259   0.935   5.832   3.583 -0.9395 -1.4366  0.5438
 2948TIP3    H230260   1.012   5.799   3.709  0.7868 -1.5335 -0.5052
 2949TIP3   OH230261   5.286   3.885  11.072 -0.0125  0.2385 -0.1934
 2949TIP3    H130262   5.261   3.830  10.998  1.0412 -0.1360 -0.2853
 2949TIP3    H230263   5.316   3.967  11.032 -0.0771  0.2868 -0.1431
 2950TIP3   OH230264   6.537   2.589   2.496 -0.2552 -0.0361 -0.3541
 2950TIP3    H130265   6.561   2.659   2.557  0.2825 -1.6762  1.4529
 2950TIP3    H230266   6.550   2.627   2.409  1.6944  1.5698  0.5415
 2951TIP3   OH230267   2.546   3.558   1.023 -0.1325  0.0174 -0.0053
 2951TIP3    H130268   2.478   3.493   1.008 -1.4187  0.8291  1.9941
 2951TIP3    H230269   2.614   3.536   0.959 -1.0437 -2.5102 -0.2194
 2952TIP3   OH230270   4.380   2.191   4.473 -0.3356 -0.4854 -0.1460
 2952TIP3    H130271   4.345   2.199   4.562 -0.0610 -2.6665  0.2070
 2952TIP3    H230272   4.375   2.098   4.453  1.1834 -0.2764 -1.7834
 2953TIP3   OH230273   1.043   6.079   0.301 -0.7503  0.2845  0.0274
 2953TIP3    H130274   0.993   6.071   0.219  0.4186  0.5410 -0.7431
 2953TIP3    H230275   1.083   6.166   0.295  0.6108 -0.3256  0.1350
 2954TIP3   OH230276   4.508   1.335   0.820 -0.0804  0.2011 -0.1912
 2954TIP3    H130277   4.478   1.360   0.733  2.1847 -2.6076 -1.9639
 2954TIP3    H230278   4.601   1.356   0.822 -0.2577  1.1174  2.0000
 2955TIP3   OH230279   3.945   4.282   1.052 -0.8993  0.1996 -0.6223
 2955TIP3    H130280   3.944   4.284   0.956  0.5066  1.7554 -0.6442
 2955TIP3    H230281   3.909   4.367   1.078 -0.9321 -0.0718  0.2419
 2956TIP3   OH230282   0.930   0.319  16.833 -0.1183  0.0379  0.0546
 2956TIP3    H130283   1.020   0.337  16.805  0.2963 -1.9485 -0.0388
 2956TIP3    H230284   0.910   0.389  16.894  1.1764  1.0130 -0.5814
 2957TIP3   OH230285   4.818   2.450   4.665 -0.3149  0.5423 -0.1297
 2957TIP3    H130286   4.739   2.409   4.631  0.9815 -0.7334 -1.7966
 2957TIP3    H230287   4.870   2.469   4.587  1.9771 -0.7088  0.9934
 2958TIP3   OH230288   1.151   0.669   4.571  0.2078 -0.0990 -0.0294
 2958TIP3    H130289   1.160   0.759   4.600  0.0937  0.6984 -2.2969
 2958TIP3    H230290   1.196   0.665   4.487 -1.3112 -1.6758 -0.8493
 2959TIP3   OH230291   1.831   4.219   0.734 -0.1341 -0.4094  0.1421
 2959TIP3    H130292   1.877   4.158   0.792  1.0040 -0.4300 -0.7390
 2959TIP3    H230293   1.900   4.276   0.700 -0.8336 -0.1775 -0.9198
 2960TIP3   OH230294   4.874   3.048   3.366 -0.1246 -0.0193 -0.1797
 2960TIP3    H130295   4.803   2.998   3.327 -1.3313  1.2962  0.2548
 2960TIP3    H230296   4.837   3.135   3.380  0.5526 -0.1376  2.9948
 2961TIP3   OH230297   3.945   5.481  15.286  0.0909 -0.4045 -0.3186
 2961TIP3    H130298   3.934   5.402  15.338  0.5687 -0.9573 -1.0223
 2961TIP3    H230299   3.957   5.448  15.196  2.3116  0.3166 -0.3556
 2962TIP3   OH230300   5.380   5.476   6.081 -0.0213  0.3445  0.7265
 2962TIP3    H130301   5.291   5.494   6.111 -1.0134  1.5485 -2.4518
 2962TIP3    H230302   5.399   5.388   6.111 -3.3849 -0.9994 -0.6275
 2963TIP3   OH230303   1.831   1.883   2.153  0.2764 -0.5992  0.0784
 2963TIP3    H130304   1.907   1.917   2.107  0.7426  0.4649  1.5696
 2963TIP3    H230305   1.759   1.891   2.090  0.8863  0.8233 -0.4805
 2964TIP3   OH230306   4.529   5.263  16.207  0.0602  0.3463  0.3453
 2964TIP3    H130307   4.515   5.279  16.114 -1.5660 -0.0198  0.4870
 2964TIP3    H230308   4.559   5.172  16.212 -0.3042  0.2145  0.1915
 2965TIP3   OH230309   3.191   4.238  16.488  0.6616 -0.2093  0.4138
 2965TIP3    H130310   3.214   4.146  16.501  1.6260  0.1764  1.5165
 2965TIP3    H230311   3.126   4.236  16.417 -1.7917 -2.0501  2.5190
 2966TIP3   OH230312   4.334   4.863  16.831  0.7273 -0.6500  0.2853
 2966TIP3    H130313   4.256   4.903  16.871  0.3847 -1.0082 -0.0110
 2966TIP3    H230314   4.300   4.816  16.755  1.5079  0.9800 -1.1347
 2967TIP3   OH230315   6.561   1.703   0.488 -1.1201 -0.0715 -0.6501
 2967TIP3    H130316   6.590   1.616   0.515 -1.2374  0.3021  0.7258
 2967TIP3    H230317   6.528   1.744   0.568  1.9246  2.4788 -0.4875
 2968TIP3   OH230318   0.572   5.490   6.481 -0.6467  0.4902  0.1191
 2968TIP3    H130319   0.516   5.533   6.546  1.4281  2.6024  0.6169
 2968TIP3    H230320   0.624   5.428   6.531 -1.2086 -0.1341 -0.0548
 2969TIP3   OH230321   1.897   3.961  15.981  0.3189  0.4381  0.1597
 2969TIP3    H130322   1.918   3.869  15.964 -0.1715  0.4433 -0.5311
 2969TIP3    H230323   1.982   4.005  15.977  0.7896 -0.1795  2.0702
 2970TIP3   OH230324   5.379   5.106  15.841  0.1617 -0.4382  0.3518
 2970TIP3    H130325   5.368   5.079  15.932  0.6520  0.4475  0.6845
 2970TIP3    H230326   5.391   5.201  15.845 -0.4711 -0.2909 -0.6911
 2971TIP3   OH230327   0.184   0.316  11.265 -0.1775 -0.3830  0.4536
 2971TIP3    H130328   0.274   0.348  11.260 -0.5722  0.7502  0.2631
 2971TIP3    H230329   0.190   0.223  11.244  0.9463 -0.3254  0.4619
 2972TIP3   OH230330   1.069   5.983  16.309 -0.1922  0.1934  0.5062
 2972TIP3    H130331   1.000   6.037  16.347  0.5348  2.2737 -0.9372
 2972TIP3    H230332   1.150   6.023  16.339  0.4135 -0.8909  0.3878
 2973TIP3   OH230333   1.417   5.858   2.763  0.3610  0.1547  0.3271
 2973TIP3    H130334   1.492   5.823   2.811  0.1652 -1.4495 -0.4733
 2973TIP3    H230335   1.369   5.780   2.733 -0.8620  1.1345 -0.3628
 2974TIP3   OH230336   5.193   4.951  10.906  0.1300  0.1764 -0.2118
 2974TIP3    H130337   5.137   4.893  10.957  1.3815 -0.0175  1.0033
 2974TIP3    H230338   5.161   5.039  10.926  0.0224  0.0516  0.1601
 2975TIP3   OH230339   3.402   0.704   0.322 -0.0382 -0.1990 -0.0947
 2975TIP3    H130340   3.369   0.619   0.294 -0.4789 -0.3164  0.7399
 2975TIP3    H230341   3.488   0.711   0.281 -0.3520 -0.6745 -0.8492
 2976TIP3   OH230342   4.451   4.194  15.294 -0.0485  0.5464  0.0239
 2976TIP3    H130343   4.522   4.237  15.246  0.2116  0.9580  0.7692
 2976TIP3    H230344   4.494   4.151  15.367 -0.2594 -1.2613 -0.8455
 2977TIP3   OH230345   3.607   1.866  16.624  0.3762  0.2894 -0.0096
 2977TIP3    H130346   3.526   1.860  16.676 -2.2020 -0.7997 -3.7320
 2977TIP3    H230347   3.625   1.775  16.599  2.2333  0.6482 -0.0607
 2978TIP3   OH230348   3.565   0.749  11.040 -0.2327 -0.9146  0.1639
 2978TIP3    H130349   3.565   0.690  10.964  0.6267  2.1765 -2.4490
 2978TIP3    H230350   3.653   0.741  11.076 -0.4561 -1.9396  0.5384
 2979TIP3   OH230351   5.424   2.755  14.126 -0.0834 -0.3624  0.1159
 2979TIP3    H130352   5.349   2.783  14.180 -0.0306 -0.0958  0.0536
 2979TIP3    H230353   5.390   2.756  14.036  0.1035  0.1313  0.0487
 2980TIP3   OH230354   2.440   6.107   2.670 -0.7665  0.4890  0.1352
 2980TIP3    H130355   2.411   6.159   2.594 -0.6175  1.7290  0.9025
 2980TIP3    H230356   2.362   6.058   2.696 -0.4560 -1.1055 -1.6880
 2981TIP3   OH230357   0.404   4.181   0.301  0.2383  0.5482  0.1966
 2981TIP3    H130358   0.317   4.162   0.336  0.7679 -0.5084  0.9991
 2981TIP3    H230359   0.464   4.145   0.366  1.2762 -0.4112 -1.2356
 2982TIP3   OH230360   1.715   2.587   4.731  0.3667 -0.1504  0.1763
 2982TIP3    H130361   1.627   2.583   4.767  0.6798  1.4817  1.2292
 2982TIP3    H230362   1.705   2.629   4.646  0.3427  2.1456  1.2631
 2983TIP3   OH230363   0.961   3.659  11.097  0.5958  0.3347  0.0564
 2983TIP3    H130364   1.052   3.662  11.125  0.4653  0.5522  0.4603
 2983TIP3    H230365   0.955   3.725  11.027  0.9749 -0.3777 -0.6696
 2984TIP3   OH230366   5.535   3.920  14.351  0.0330  0.2652  0.7476
 2984TIP3    H130367   5.605   3.908  14.288 -1.0461  1.8227 -0.8391
 2984TIP3    H230368   5.515   3.831  14.382  0.6187 -0.5542 -1.1046
 2985TIP3   OH230369   0.855   0.015   5.264 -0.1097 -0.1372 -0.3658
 2985TIP3    H130370   0.760   0.017   5.274 -0.0723  3.4713  0.6312
 2985TIP3    H230371   0.889   0.050   5.346  2.2224 -2.5053 -0.1980
 2986TIP3   OH230372   0.414   2.334   1.559 -0.0910 -0.0911 -0.1993
 2986TIP3    H130373   0.462   2.405   1.517  0.2154 -1.3925 -2.1983
 2986TIP3    H230374   0.447   2.332   1.649  2.6908 -0.1041 -1.1263
 2987TIP3   OH230375   0.491   2.787  15.952 -0.6166  0.7808  0.1199
 2987TIP3    H130376   0.556   2.759  16.017  0.3381  2.7668  0.1250
 2987TIP3    H230377   0.544   2.817  15.877 -1.6248  0.4628 -0.7409
 2988TIP3   OH230378   5.498   5.532   0.339 -0.3275  0.7216  0.0866
 2988TIP3    H130379   5.478   5.549   0.246  0.8668  0.0613 -0.3143
 2988TIP3    H230380   5.570   5.591   0.359  0.3169 -0.0785  0.1944
 2989TIP3   OH230381   2.253   2.158  11.103  0.2096  0.6037 -0.6356
 2989TIP3    H130382   2.321   2.118  11.050  0.7140  0.4310  0.1292
 2989TIP3    H230383   2.299   2.196  11.178 -0.4213  1.3635 -0.6099
 2990TIP3   OH230384   5.027   5.956   4.996 -0.2745 -0.0207  0.7182
 2990TIP3    H130385   5.102   6.013   5.014  0.8595 -1.4146  0.5536
 2990TIP3    H230386   5.065   5.872   4.973 -1.8796 -0.5093 -0.3416
 2991TIP3   OH230387   2.741   3.851  14.323 -0.3084 -0.3421  0.4423
 2991TIP3    H130388   2.775   3.794  14.392  0.1154 -0.9585 -0.2579
 2991TIP3    H230389   2.772   3.938  14.346 -0.0452 -0.5627  0.9435
 2992TIP3   OH230390   2.310   5.540  16.635 -0.1440 -0.1748 -0.2875
 2992TIP3    H130391   2.377   5.594  16.594  0.1659  0.4068  0.9173
 2992TIP3    H230392   2.330   5.544  16.729 -1.3914 -0.6467  0.0266
 2993TIP3   OH230393   5.040   5.183  15.842  0.5036 -0.2558  0.3991
 2993TIP3    H130394   5.085   5.195  15.926 -1.1696  0.5776  1.2373
 2993TIP3    H230395   5.020   5.090  15.839  2.0305 -0.5935  0.1215
 2994TIP3   OH230396   3.207   1.029  14.687 -0.1756  0.2775 -0.0181
 2994TIP3    H130397   3.217   0.974  14.610 -0.4181 -0.0939  0.2127
 2994TIP3    H230398   3.282   1.007  14.743  0.8958  1.6838 -0.8220
 2995TIP3   OH230399   3.456   5.441   2.624 -0.5748  0.3342  0.5910
 2995TIP3    H130400   3.478   5.365   2.677 -0.8338 -0.3770 -0.3024
 2995TIP3    H230401   3.431   5.508   2.688 -1.1544 -0.5890  1.3656
 2996TIP3   OH230402   2.437   3.499   6.396  0.0170  0.1141  0.3048
 2996TIP3    H130403   2.491   3.463   6.467 -0.0461  0.6506  0.6334
 2996TIP3    H230404   2.369   3.433   6.382  0.6669 -0.4985 -0.0129
 2997TIP3   OH230405   5.304   5.237  12.439  0.2823 -0.1436 -0.0086
 2997TIP3    H130406   5.280   5.315  12.489  0.6456 -0.3151  0.4407
 2997TIP3    H230407   5.327   5.172  12.505 -1.7122 -1.2346 -0.2846
 2998TIP3   OH230408   5.727   0.988  14.888 -0.5022  0.0201 -0.2466
 2998TIP3    H130409   5.760   1.078  14.885 -0.5234  0.0075 -1.4642
 2998TIP3    H230410   5.658   0.986  14.821  0.9560 -1.4593 -1.7860
 2999TIP3   OH230411   4.129   1.246  11.350  0.2885 -1.0374  0.2658
 2999TIP3    H130412   4.099   1.241  11.260  0.1993 -0.1648  0.2407
 2999TIP3    H230413   4.220   1.276  11.344 -0.3834  1.2805  0.5194
 3000TIP3   OH230414   0.674   3.449   3.957  0.6627  0.6483 -0.4667
 3000TIP3    H130415   0.666   3.523   3.897  0.6683  0.0661 -1.2005
 3000TIP3    H230416   0.732   3.388   3.913 -0.3716 -0.3725 -0.4624
 3001TIP3   OH230417   2.726   5.463  11.572 -0.3638  0.4217 -0.0425
 3001TIP3    H130418   2.679   5.401  11.628 -0.8262  0.4429 -0.3967
 3001TIP3    H230419   2.743   5.414  11.491 -0.8586  0.8013 -0.3785
 3002TIP3   OH230420   5.352   4.633   4.888 -0.3673 -0.8431 -0.4755
 3002TIP3    H130421   5.309   4.668   4.810 -2.4283  1.7935  1.6637
 3002TIP3    H230422   5.293   4.563   4.918 -0.3512 -0.8506 -0.4619
 3003TIP3   OH230423   4.253   4.650  13.070 -0.4870  0.2183  0.4243
 3003TIP3    H130424   4.323   4.701  13.112 -0.4755 -0.3049  1.0579
 3003TIP3    H230425   4.269   4.661  12.976 -1.2325  2.4114  0.4917
 3004TIP3   OH230426   5.821   4.712   0.060 -0.5271  0.0835  0.2652
 3004TIP3    H130427   5.800   4.738   0.150 -0.9811 -0.0289  0.1960
 3004TIP3    H230428   5.892   4.649   0.070 -0.9497 -0.3529  0.5923
 3005TIP3   OH230429   1.109   4.855   1.418 -0.0803 -0.1736 -0.3248
 3005TIP3    H130430   1.096   4.805   1.337 -0.8260 -0.1243 -0.2425
 3005TIP3    H230431   1.035   4.915   1.421  0.4468  0.4729 -0.0744
 3006TIP3   OH230432   6.732   3.961  12.432 -0.7394  0.0542 -0.7033
 3006TIP3    H130433   6.798   3.976  12.365  0.5951 -0.2627  0.5093
 3006TIP3    H230434   6.711   4.049  12.465 -0.0289  0.0657 -0.2658
 3007TIP3   OH230435   2.639   0.593   1.909 -0.3557 -0.3126  0.2674
 3007TIP3    H130436   2.602   0.552   1.831  0.1184 -3.0763  1.3928
 3007TIP3    H230437   2.570   0.587   1.974  0.1117 -0.3036  0.7697
 3008TIP3   OH230438   3.511   4.691  14.088 -0.0596  0.1164 -0.1271
 3008TIP3    H130439   3.588   4.731  14.127 -0.0255 -0.6630  0.6059
 3008TIP3    H230440   3.511   4.723  13.997  1.9154 -1.0049 -0.5635
 3009TIP3   OH230441   5.670   1.191   4.170  0.4202 -0.1530  0.3456
 3009TIP3    H130442   5.703   1.280   4.163  1.2420 -0.4873 -0.2110
 3009TIP3    H230443   5.679   1.169   4.263  0.1935  0.3470  0.4874
 3010TIP3   OH230444   0.650   0.039   2.332 -0.2235 -0.4434 -0.3132
 3010TIP3    H130445   0.592  -0.016   2.385  0.0194 -1.2205 -0.8349
 3010TIP3    H230446   0.625   0.129   2.355  0.2697 -0.7366  1.5523
 3011TIP3   OH230447   4.119   6.789   1.240 -0.3309 -1.0187 -0.1780
 3011TIP3    H130448   4.058   6.849   1.197 -0.0560 -0.5505  0.0811
 3011TIP3    H230449   4.154   6.735   1.169 -1.2199 -1.4565 -0.3050
 3012TIP3   OH230450   1.480   5.297   1.312 -0.3945  0.1443 -0.0459
 3012TIP3    H130451   1.569   5.327   1.295 -0.7895  1.8486  0.6607
 3012TIP3    H230452   1.491   5.221   1.370  0.6078 -0.2954 -0.7857
 3013TIP3   OH230453   1.532   3.644  16.531  0.4013  0.0532  0.0931
 3013TIP3    H130454   1.519   3.654  16.437 -2.9456  2.6526  0.5920
 3013TIP3    H230455   1.608   3.698  16.551  0.9246 -0.2324 -1.0735
 3014TIP3   OH230456   2.058   1.478  12.978  0.7736  0.0994  0.6825
 3014TIP3    H130457   2.001   1.415  12.933 -0.0540  0.1890  1.5718
 3014TIP3    H230458   2.110   1.517  12.908  0.6735 -0.9354  0.0045
 3015TIP3   OH230459   5.993   1.746   1.008 -0.3388  0.1577  0.1635
 3015TIP3    H130460   6.084   1.774   0.999 -0.6266  0.9765 -0.3591
 3015TIP3    H230461   5.943   1.812   0.959 -1.3788  0.7651  1.9621
 3016TIP3   OH230462   5.059   1.368   3.804  0.1819 -0.3089 -0.0440
 3016TIP3    H130463   5.083   1.300   3.742  2.8650  0.8659 -0.4295
 3016TIP3    H230464   5.076   1.329   3.890  1.2424 -0.3106 -0.2465
 3017TIP3   OH230465   5.530   1.731  16.025 -0.3350  0.3205 -0.4941
 3017TIP3    H130466   5.574   1.646  16.026  0.0934  0.5293 -1.1005
 3017TIP3    H230467   5.530   1.758  15.933 -0.4566  0.9843 -0.3095
 3018TIP3   OH230468   4.406   1.286  11.226 -0.5237  0.0097 -0.0232
 3018TIP3    H130469   4.436   1.208  11.178 -1.0569  0.7042 -1.5547
 3018TIP3    H230470   4.484   1.341  11.233  0.0484 -0.9488  1.7550
 3019TIP3   OH230471   3.403   1.057  16.564 -0.1671  0.3403 -0.3253
 3019TIP3    H130472   3.328   1.053  16.506  0.6778  0.8919 -1.4899
 3019TIP3    H230473   3.462   1.120  16.523  1.4913 -1.0144 -0.1051
 3020TIP3   OH230474   3.970   3.080  13.617  0.0404  0.3009 -0.0465
 3020TIP3    H130475   3.928   3.108  13.698  0.5081 -0.1882  0.3694
 3020TIP3    H230476   3.950   2.987  13.610 -0.6925  0.5069 -0.9257
 3021TIP3   OH230477   2.701   0.523  10.650 -0.0306  0.2474  0.2979
 3021TIP3    H130478   2.751   0.503  10.571  0.3890  0.8915  0.3919
 3021TIP3    H230479   2.744   0.600  10.687  0.1288 -0.3845  1.4640
 3022TIP3   OH230480   1.532   2.001   6.830 -0.0358 -0.0946  0.0581
 3022TIP3    H130481   1.587   2.069   6.868 -1.8587  1.9247 -0.6760
 3022TIP3    H230482   1.466   2.049   6.780 -3.1181 -2.1948  1.7097
 3023TIP3   OH230483   4.441   5.975   5.801  0.8279 -0.2480  0.1271
 3023TIP3    H130484   4.493   6.004   5.876  0.5549 -2.0372  1.0463
 3023TIP3    H230485   4.481   5.893   5.773  0.9265  0.3774 -1.7194
 3024TIP3   OH230486   3.948   4.874   6.659  0.2456  0.5724 -0.3249
 3024TIP3    H130487   3.971   4.943   6.596  1.7473  1.1572  0.8001
 3024TIP3    H230488   4.027   4.864   6.713 -0.9100 -0.0937  1.2950
 3025TIP3   OH230489   2.513   6.608  14.350 -0.2657 -0.2924 -0.0646
 3025TIP3    H130490   2.426   6.576  14.374 -0.9648  0.7045 -1.1919
 3025TIP3    H230491   2.536   6.558  14.271  0.2286 -0.6063  0.2709
 3026TIP3   OH230492   1.824   3.965  16.404  0.4078 -0.2857 -1.0097
 3026TIP3    H130493   1.782   3.969  16.318  0.9737  0.9217 -1.2565
 3026TIP3    H230494   1.843   4.056  16.425 -2.2191 -0.2347  1.6847
 3027TIP3   OH230495   0.055   2.107   2.899  0.5554 -0.3864 -0.1727
 3027TIP3    H130496  -0.006   2.154   2.955 -2.0157 -2.2738 -1.1629
 3027TIP3    H230497   0.130   2.166   2.888 -0.8169  1.8116  1.5953
 3028TIP3   OH230498   2.494   4.766   1.844  0.4397 -0.2408  0.3113
 3028TIP3    H130499   2.573   4.770   1.790 -0.1004 -1.3849 -0.6268
 3028TIP3    H230500   2.450   4.850   1.829  0.5508 -0.3408 -0.6770
 3029TIP3   OH230501   6.235   2.497   3.449 -0.7553 -0.0190 -0.4795
 3029TIP3    H130502   6.263   2.488   3.357  1.4739  0.0674  0.1318
 3029TIP3    H230503   6.206   2.588   3.456 -2.3737 -0.4336 -1.4291
 3030TIP3   OH230504   1.948   5.828  14.700 -0.7692  0.3116  0.2067
 3030TIP3    H130505   2.028   5.781  14.676 -2.3043 -1.9896 -0.7873
 3030TIP3    H230506   1.965   5.862  14.788  0.6866 -1.6879  0.7654
 3031TIP3   OH230507   2.499   1.169  13.895 -0.0739  0.2224  0.0939
 3031TIP3    H130508   2.565   1.131  13.837 -1.0288 -0.3490 -0.6571
 3031TIP3    H230509   2.482   1.101  13.960 -0.4936  0.0555 -0.1884
 3032TIP3   OH230510   6.212   0.608   5.494 -0.3558  0.4237 -0.6193
 3032TIP3    H130511   6.289   0.553   5.504 -0.0053  1.3653  3.1305
 3032TIP3    H230512   6.138   0.548   5.506 -0.0111  0.3880  1.7388
 3033TIP3   OH230513   5.709   1.348   1.643 -0.1638 -0.2853  0.1473
 3033TIP3    H130514   5.631   1.297   1.622  0.5973 -0.0586 -4.2534
 3033TIP3    H230515   5.692   1.434   1.604  1.3177  0.6420  1.4189
 3034TIP3   OH230516   6.413   0.264  15.868  0.1803  0.7609  0.5307
 3034TIP3    H130517   6.419   0.188  15.810 -1.7101  1.3383 -0.5031
 3034TIP3    H230518   6.437   0.230  15.954  1.7438 -0.4218 -0.3154
 3035TIP3   OH230519   5.277   4.796   2.466 -0.0455  0.1177  0.7396
 3035TIP3    H130520   5.294   4.890   2.468  0.8034  0.0395 -1.0699
 3035TIP3    H230521   5.204   4.783   2.527 -2.5246  2.4688 -1.4367
 3036TIP3   OH230522   5.230   4.901   0.773  0.0134  0.3561  0.0826
 3036TIP3    H130523   5.143   4.866   0.752 -0.3274 -0.3750  2.4112
 3036TIP3    H230524   5.213   4.987   0.812 -0.2063 -1.3790  4.3739
 3037TIP3   OH230525   4.701   1.580  11.490  0.5057  0.5462 -0.4494
 3037TIP3    H130526   4.723   1.582  11.583  1.2448 -0.8011 -0.5810
 3037TIP3    H230527   4.786   1.579  11.445  0.1593  0.2881 -1.1105
 3038TIP3   OH230528   5.768   4.998  11.640 -0.0602  0.1621 -0.4468
 3038TIP3    H130529   5.691   5.050  11.666  0.2635  1.0369 -1.2047
 3038TIP3    H230530   5.833   5.018  11.707 -0.8027 -1.4343  0.8376
 3039TIP3   OH230531   1.586   3.953  11.940 -0.3352 -0.2649  0.0781
 3039TIP3    H130532   1.647   4.007  11.990 -1.4989  1.0970  0.0972
 3039TIP3    H230533   1.641   3.887  11.897  1.0809  0.6575  0.4171
 3040TIP3   OH230534   3.784   1.050   2.865  0.0568 -0.0324  0.4033
 3040TIP3    H130535   3.833   1.124   2.900  0.3271 -0.0575  0.0807
 3040TIP3    H230536   3.693   1.079   2.866  0.2817  0.8122 -0.9284
 3041TIP3   OH230537   2.745   3.455   4.281  0.5086 -0.1990 -0.2359
 3041TIP3    H130538   2.830   3.430   4.243  0.6304 -1.5075  0.8232
 3041TIP3    H230539   2.684   3.448   4.208  0.7199 -2.8032 -0.2612
 3042TIP3   OH230540   2.192   4.967  12.457 -0.3948  0.1876 -0.3689
 3042TIP3    H130541   2.210   4.957  12.551 -2.1466 -0.4481 -0.0697
 3042TIP3    H230542   2.274   4.942  12.415  0.5414  0.7940  0.9767
 3043TIP3   OH230543   4.517   6.064  13.706 -0.5861 -0.5604  0.3140
 3043TIP3    H130544   4.506   6.014  13.625 -2.3860 -1.2037  0.9040
 3043TIP3    H230545   4.435   6.111  13.716 -1.2567 -2.0691  2.7650
 3044TIP3   OH230546   0.398   1.398   1.962  0.0182  0.2552 -0.0068
 3044TIP3    H130547   0.397   1.308   1.930  1.2192 -0.0819  0.8218
 3044TIP3    H230548   0.396   1.452   1.883  2.4385 -0.5308 -0.6934
 3045TIP3   OH230549   2.029   6.046  16.283  0.3507 -0.0459  0.0462
 3045TIP3    H130550   1.971   6.066  16.356 -0.1428  0.3586 -0.4428
 3045TIP3    H230551   1.991   6.094  16.209  0.0767 -1.4624 -0.7922
 3046TIP3   OH230552   6.737   3.066  13.902 -0.4012 -0.0974 -0.2497
 3046TIP3    H130553   6.802   3.037  13.839 -1.8754 -0.7090 -1.5343
 3046TIP3    H230554   6.685   2.988  13.922 -1.7435  0.6989 -0.4913
 3047TIP3   OH230555   1.530   2.242  16.041  0.2112  0.3610 -0.3408
 3047TIP3    H130556   1.594   2.310  16.061  0.4056  0.3606 -0.9466
 3047TIP3    H230557   1.456   2.262  16.098  0.3284  0.9901 -0.3976
 3048TIP3   OH230558   1.295   3.026   0.800 -0.1106 -0.4762 -0.3867
 3048TIP3    H130559   1.213   3.065   0.829  0.2052 -0.9702  1.2879
 3048TIP3    H230560   1.359   3.098   0.805 -0.6242  0.2259 -2.8439
 3049TIP3   OH230561   0.098   1.131  11.142  0.0967  0.6580 -0.2129
 3049TIP3    H130562   0.027   1.115  11.204  0.1068 -2.1662 -0.8089
 3049TIP3    H230563   0.055   1.173  11.067 -0.2947  2.0221  0.7232
 3050TIP3   OH230564   2.173   3.132  13.688 -0.2689 -0.1466  0.2611
 3050TIP3    H130565   2.143   3.222  13.703 -2.0544 -0.4594 -1.0898
 3050TIP3    H230566   2.268   3.140  13.676 -0.3367  1.4832  0.5914
 3051TIP3   OH230567   1.892   6.574   2.953  0.6193  0.1862  0.0744
 3051TIP3    H130568   1.836   6.572   2.876 -1.3550  1.5145  1.3923
 3051TIP3    H230569   1.842   6.527   3.020  2.1512 -0.6484  0.6923
 3052TIP3   OH230570   4.353   0.905  16.812 -0.0165  0.5655 -0.3316
 3052TIP3    H130571   4.299   0.842  16.859  0.1197 -0.3237 -1.3484
 3052TIP3    H230572   4.357   0.981  16.871  0.2646 -0.5515  1.1626
 3053TIP3   OH230573   4.899   4.913  12.790  0.0073 -0.0039  0.0465
 3053TIP3    H130574   4.970   4.909  12.727  0.7194  1.2247  0.7284
 3053TIP3    H230575   4.850   4.832  12.777 -0.4818  0.6273 -2.7444
 3054TIP3   OH230576   5.471   5.911  15.843  0.7150  0.1099  0.7877
 3054TIP3    H130577   5.419   5.892  15.921 -1.0126 -0.7944 -0.5043
 3054TIP3    H230578   5.495   6.003  15.851 -1.4217  0.6776  1.3045
 3055TIP3   OH230579   1.168   5.814  11.353  0.7094 -0.3564 -0.1814
 3055TIP3    H130580   1.119   5.846  11.429 -0.5933 -0.7702 -0.8283
 3055TIP3    H230581   1.189   5.723  11.374  0.0992 -0.5592 -0.4182
 3056TIP3   OH230582   4.012   6.153   3.877 -0.1260 -0.3473  0.0863
 3056TIP3    H130583   3.967   6.204   3.809 -2.0671  0.3552  1.7639
 3056TIP3    H230584   3.954   6.159   3.953  1.7990 -1.3288  1.7351
 3057TIP3   OH230585   0.643   5.558   1.736  0.7434  0.2094 -0.0347
 3057TIP3    H130586   0.705   5.594   1.672  1.6685 -1.2090  0.0161
 3057TIP3    H230587   0.693   5.491   1.782 -0.8407 -0.9968  0.0102
 3058TIP3   OH230588   4.331   6.113  12.457 -0.2501  0.1446 -0.5557
 3058TIP3    H130589   4.271   6.045  12.488  1.1896 -1.1436 -0.4332
 3058TIP3    H230590   4.288   6.195  12.479 -1.7147 -0.7228 -0.0152
 3059TIP3   OH230591   6.308   2.176  15.173 -0.5498  0.2777 -0.2191
 3059TIP3    H130592   6.219   2.153  15.202  0.6789 -0.2883  3.6174
 3059TIP3    H230593   6.337   2.242  15.236  3.0177 -2.2200  1.0372
 3060TIP3   OH230594   0.049   6.396  15.551  0.7420  0.2022  0.1324
 3060TIP3    H130595   0.114   6.333  15.582  0.7256 -0.0603 -0.3560
 3060TIP3    H230596   0.006   6.352  15.478  1.0585  0.9635 -0.5285
 3061TIP3   OH230597   0.954   4.213   6.082 -0.3274  0.1702  0.3273
 3061TIP3    H130598   0.914   4.220   6.168  0.8026 -1.0845  0.9994
 3061TIP3    H230599   1.047   4.196   6.100  0.2099  1.2832 -1.1524
 3062TIP3   OH230600   0.012   0.126  15.274 -0.1271  0.6436  0.1587
 3062TIP3    H130601   0.107   0.134  15.269 -0.2117  1.6480 -0.1489
 3062TIP3    H230602  -0.021   0.206  15.233 -1.0955  0.5280  0.6754
 3063TIP3   OH230603   3.923   5.606  13.773  0.4737 -1.1218  0.0317
 3063TIP3    H130604   3.842   5.654  13.754 -0.3663 -2.0864  1.0599
 3063TIP3    H230605   3.956   5.579  13.687  0.4511  0.4270 -0.4973
 3064TIP3   OH230606   0.332   6.750   0.337  0.7367 -0.2106  0.0770
 3064TIP3    H130607   0.362   6.810   0.405  0.8887 -2.3020  1.9423
 3064TIP3    H230608   0.263   6.799   0.292  1.8117  1.8731  0.5720
 3065TIP3   OH230609   4.888   2.635   2.511 -0.3665 -0.6159  0.2806
 3065TIP3    H130610   4.967   2.644   2.565 -0.1233 -0.7475 -0.0483
 3065TIP3    H230611   4.853   2.724   2.503  1.0036 -0.1739 -1.4400
 3066TIP3   OH230612   4.214   1.523   4.488 -0.1544 -0.3546 -0.0462
 3066TIP3    H130613   4.233   1.540   4.396 -2.4386  1.4739 -0.2784
 3066TIP3    H230614   4.172   1.437   4.488 -0.8873 -0.0155 -0.8779
 3067TIP3   OH230615   1.353   5.995  13.214 -0.2470  0.0854  0.1695
 3067TIP3    H130616   1.387   6.055  13.148 -0.5204  0.5903  0.4781
 3067TIP3    H230617   1.289   6.047  13.263 -1.6500 -0.8804 -0.5414
 3068TIP3   OH230618   2.302   3.557   4.612  0.1830 -0.1711 -0.2813
 3068TIP3    H130619   2.293   3.556   4.517  0.2893 -0.6069 -0.2878
 3068TIP3    H230620   2.355   3.634   4.630  1.0604 -0.6794 -0.6588
 3069TIP3   OH230621   6.016   3.173   4.948  0.4808  0.3167  0.1442
 3069TIP3    H130622   6.060   3.255   4.925 -1.2200  1.9719  2.2740
 3069TIP3    H230623   5.931   3.179   4.904  0.5854 -0.5986 -0.1854
 3070TIP3   OH230624   1.497   2.040  12.343 -0.3856  0.7381 -0.2530
 3070TIP3    H130625   1.458   1.961  12.307 -0.8916  1.7939 -2.1465
 3070TIP3    H230626   1.434   2.070  12.409 -1.9067  1.3616 -1.9090
 3071TIP3   OH230627   2.683   3.712   0.044 -0.3088  0.1283 -0.1485
 3071TIP3    H130628   2.697   3.787  -0.015 -2.5779  0.3722 -0.4683
 3071TIP3    H230629   2.664   3.752   0.129  1.0683 -0.1928  0.3475
 3072TIP3   OH230630   5.414   4.496  12.400  0.2738 -0.0823 -0.1495
 3072TIP3    H130631   5.341   4.551  12.373 -0.1007  0.1169  1.1840
 3072TIP3    H230632   5.426   4.434  12.329 -0.2744  0.7681 -1.0084
 3073TIP3   OH230633   0.105   2.977  12.276 -0.6906  0.4365  0.3977
 3073TIP3    H130634   0.039   2.970  12.345  1.1481 -0.4139  2.1718
 3073TIP3    H230635   0.090   2.900  12.221 -0.0278 -0.8214  1.9037
 3074TIP3   OH230636   4.964   4.929   5.518 -0.2345 -0.2145 -0.4727
 3074TIP3    H130637   4.881   4.943   5.563 -0.0648  1.7232 -0.6578
 3074TIP3    H230638   5.000   5.017   5.505  0.9751 -0.8710 -2.0482
 3075TIP3   OH230639   6.216   4.461   5.405 -0.0347 -0.1670 -0.0017
 3075TIP3    H130640   6.231   4.512   5.325  0.6913  0.7094  0.6782
 3075TIP3    H230641   6.297   4.412   5.418  0.3602  0.6959  0.9024
 3076TIP3   OH230642   2.942   3.560   0.504 -0.1921  0.1821  0.1618
 3076TIP3    H130643   2.863   3.536   0.455 -0.5609  1.4413  0.0968
 3076TIP3    H230644   3.012   3.511   0.462 -0.6192  0.6775 -1.1878
 3077TIP3   OH230645   5.845   4.192  14.753 -0.7463 -0.3989  0.5431
 3077TIP3    H130646   5.919   4.222  14.700 -2.0322  1.1984 -0.4480
 3077TIP3    H230647   5.824   4.105  14.719 -0.2485 -0.2391 -0.1904
 3078TIP3   OH230648   6.489   4.291  15.257  0.1365  0.0662  0.3003
 3078TIP3    H130649   6.492   4.226  15.327  0.8591 -0.6131 -0.3459
 3078TIP3    H230650   6.581   4.305  15.233 -0.1733 -1.1247 -1.7972
 3079TIP3   OH230651   0.919   0.433   3.811 -0.7820 -0.0494  0.6073
 3079TIP3    H130652   0.885   0.352   3.772 -1.6865 -0.2329  1.7107
 3079TIP3    H230653   0.874   0.503   3.763 -0.7680 -0.2274  0.3322
 3080TIP3   OH230654   0.484   3.477  15.916 -0.1715 -0.0567 -0.5936
 3080TIP3    H130655   0.437   3.500  15.996 -0.5608 -1.3268 -0.4358
 3080TIP3    H230656   0.570   3.449  15.945 -1.1552 -3.1340 -0.2603
 3081TIP3   OH230657   3.737   4.511   6.685  0.5950  0.2305  0.0980
 3081TIP3    H130658   3.680   4.501   6.608  0.3467  0.2794  0.2728
 3081TIP3    H230659   3.676   4.524   6.758  0.6543 -2.7339  0.7974
 3082TIP3   OH230660   0.173   2.238   2.162  0.0466 -0.6016  0.3245
 3082TIP3    H130661   0.167   2.274   2.250 -0.9762  0.4498 -0.1514
 3082TIP3    H230662   0.104   2.172   2.158 -0.4930 -0.0303  0.0457
 3083TIP3   OH230663   2.892   1.563  11.514  0.1877 -0.0435 -0.3277
 3083TIP3    H130664   2.920   1.534  11.427  0.1088  0.1940 -0.4348
 3083TIP3    H230665   2.924   1.653  11.521  2.1618 -0.7774  0.7900
 3084TIP3   OH230666   0.954   1.250   3.949  0.1535  0.2318 -0.2656
 3084TIP3    H130667   0.993   1.272   3.864  0.1189  1.0217 -0.0880
 3084TIP3    H230668   0.888   1.318   3.963 -1.4802 -1.2196 -0.6648
 3085TIP3   OH230669   0.567   3.880  15.315 -0.3550  0.2333 -0.0658
 3085TIP3    H130670   0.647   3.881  15.367 -0.9416 -1.1889  0.9283
 3085TIP3    H230671   0.591   3.838  15.233 -0.1136 -0.3650  0.3057
 3086TIP3   OH230672   5.236   2.877  17.250 -0.5733 -0.5747  0.4117
 3086TIP3    H130673   5.176   2.851  17.320 -0.3368 -2.7242 -0.1323
 3086TIP3    H230674   5.182   2.878  17.171 -0.1243 -1.5228  0.0831
 3087TIP3   OH230675   5.102   0.729   2.763 -1.2724  0.0263 -0.3895
 3087TIP3    H130676   5.084   0.818   2.733  1.2704  0.2104 -1.6411
 3087TIP3    H230677   5.090   0.732   2.858 -0.5341  1.9169 -0.3244
 3088TIP3   OH230678   2.757   1.999   2.715 -0.5346 -0.1498  0.3144
 3088TIP3    H130679   2.706   1.919   2.702  0.1696 -0.4526 -0.8109
 3088TIP3    H230680   2.848   1.968   2.724 -0.2340  0.5170 -0.2791
 3089TIP3   OH230681   0.004   0.361   5.321 -0.0637 -0.1816  0.2203
 3089TIP3    H130682   0.071   0.293   5.319  0.3783  0.2583 -0.4693
 3089TIP3    H230683  -0.079   0.314   5.318  0.1383 -0.8239  2.7332
 3090TIP3   OH230684   4.939   6.678   0.394 -0.3799  0.4869 -0.0295
 3090TIP3    H130685   4.903   6.636   0.316  0.3531 -0.2393  0.0137
 3090TIP3    H230686   5.007   6.736   0.360 -0.6082  0.7809  0.0092
 3091TIP3   OH230687   1.566   6.146   4.738  0.1718 -0.6513 -0.3885
 3091TIP3    H130688   1.658   6.142   4.712  0.0343 -1.4386 -0.8014
 3091TIP3    H230689   1.518   6.129   4.657 -0.3330 -0.2912 -0.1634
 3092TIP3   OH230690   1.726   0.660  13.711  0.3458  0.0944  0.1110
 3092TIP3    H130691   1.751   0.583  13.762 -2.1546 -0.3288  0.8068
 3092TIP3    H230692   1.786   0.728  13.741  0.8094 -0.8908  1.5216
 3093TIP3   OH230693   5.569   4.485  15.741 -0.1231 -0.0908 -0.1139
 3093TIP3    H130694   5.659   4.502  15.767  0.1605  0.8722 -1.5931
 3093TIP3    H230695   5.568   4.501  15.646 -0.5120 -5.6310 -1.3731
 3094TIP3   OH230696   6.420   5.614   2.327  0.1193  0.4219 -0.7595
 3094TIP3    H130697   6.506   5.588   2.358 -0.1241  1.5319  0.9580
 3094TIP3    H230698   6.405   5.700   2.367 -0.7761  1.3707 -2.9729
 3095TIP3   OH230699   0.145   0.332  11.814  0.1729  0.2299 -0.0383
 3095TIP3    H130700   0.124   0.255  11.760  0.4533  1.1938 -1.5909
 3095TIP3    H230701   0.217   0.302  11.870 -1.4893 -1.4174  1.3450
 3096TIP3   OH230702   0.125   4.883   4.971 -0.3442  0.4972 -0.0662
 3096TIP3    H130703   0.152   4.919   5.056 -0.5146  2.3302 -0.7507
 3096TIP3    H230704   0.029   4.885   4.974 -0.3744 -0.6772  0.1813
 3097TIP3   OH230705   0.279   5.181  11.810 -0.1434  0.3856 -0.2405
 3097TIP3    H130706   0.211   5.247  11.823 -1.2682 -0.3159 -2.1581
 3097TIP3    H230707   0.256   5.111  11.872  0.0451  1.0132  0.5578
 3098TIP3   OH230708   5.177   1.203   6.080 -0.2561  0.4636 -0.6034
 3098TIP3    H130709   5.257   1.154   6.098 -0.3971  0.4660  0.0781
 3098TIP3    H230710   5.198   1.257   6.004  0.5804  0.8872 -0.0830
 3099TIP3   OH230711   6.210   6.117  13.136 -0.2039  0.4542 -0.0654
 3099TIP3    H130712   6.166   6.033  13.136  0.6425 -0.0310  1.6100
 3099TIP3    H230713   6.252   6.123  13.221 -0.7159  2.8423  0.1074
 3100TIP3   OH230714   1.567   6.554  11.250  0.0904 -0.3734  0.3123
 3100TIP3    H130715   1.635   6.519  11.307 -0.1281 -0.8239  0.2943
 3100TIP3    H230716   1.531   6.478  11.205  1.8699  0.1474 -2.2537
 3101TIP3   OH230717   2.485   4.640  17.087  0.2627  0.5894 -0.7763
 3101TIP3    H130718   2.467   4.546  17.077 -0.7542  0.3923  1.9277
 3101TIP3    H230719   2.580   4.647  17.086  0.3960 -0.6838  0.0770
 3102TIP3   OH230720   2.623   1.041   5.001 -0.2954 -0.0678 -0.7093
 3102TIP3    H130721   2.579   0.979   4.943  1.6422 -0.4596 -1.8529
 3102TIP3    H230722   2.601   1.127   4.964 -2.5665 -0.0246  0.5806
 3103TIP3   OH230723   3.527   4.164   2.906 -0.4237 -0.0633 -0.3869
 3103TIP3    H130724   3.461   4.121   2.961 -1.1250  2.7522  1.1559
 3103TIP3    H230725   3.579   4.216   2.967 -0.9154  2.8161 -2.2157
 3104TIP3   OH230726   0.250   3.236  17.069  0.0791 -0.5546  0.3787
 3104TIP3    H130727   0.184   3.248  17.001 -0.4401 -0.0450  0.9579
 3104TIP3    H230728   0.202   3.193  17.140  0.3214 -0.0148  0.8776
 3105TIP3   OH230729   1.845   1.061  11.337 -0.6047 -0.5051 -0.1681
 3105TIP3    H130730   1.903   1.044  11.263 -0.7556 -0.8768 -0.2024
 3105TIP3    H230731   1.806   1.147  11.317  0.6689  0.2066  0.3391
 3106TIP3   OH230732   0.053   2.641  13.790 -0.3966 -0.2570 -0.1028
 3106TIP3    H130733   0.120   2.573  13.786 -0.8801 -0.7311 -0.1804
 3106TIP3    H230734   0.102   2.723  13.780  0.5686 -0.3754  2.6645
 3107TIP3   OH230735   3.139   3.211  13.491  0.3433 -0.5538  0.2870
 3107TIP3    H130736   3.140   3.244  13.401 -2.4038  1.6186  0.9146
 3107TIP3    H230737   3.167   3.285  13.544 -0.0261 -1.1630  1.3599
 3108TIP3   OH230738   6.650   2.831  12.995 -0.0635 -0.0009 -0.1607
 3108TIP3    H130739   6.679   2.826  13.086 -0.9206 -1.4320  0.0750
 3108TIP3    H230740   6.644   2.740  12.967 -0.4147  0.3983 -1.4653
 3109TIP3   OH230741   2.134   0.727   3.143  0.0326 -0.1611 -0.7524
 3109TIP3    H130742   2.150   0.634   3.155  3.1853  0.6039  3.1053
 3109TIP3    H230743   2.213   0.770   3.176 -2.2526  3.9535  0.1396
 3110TIP3   OH230744   3.834   5.090   0.530 -0.0369 -0.2926 -0.3338
 3110TIP3    H130745   3.907   5.095   0.468 -1.4296  1.2812 -1.9886
 3110TIP3    H230746   3.756   5.086   0.474 -1.2999 -0.1553  1.3444
 3111TIP3   OH230747   0.287   5.802  14.271 -0.1944 -0.0531 -0.0806
 3111TIP3    H130748   0.256   5.817  14.182 -1.6356 -0.2183  0.3706
 3111TIP3    H230749   0.322   5.886  14.300  0.0572  0.0605 -0.7132
 3112TIP3   OH230750   5.563   3.060   3.897  0.0823 -0.0417 -0.1446
 3112TIP3    H130751   5.527   3.093   3.814  0.9753  0.3269 -0.3979
 3112TIP3    H230752   5.641   3.114   3.912  1.5473 -1.9478 -0.5191
 3113TIP3   OH230753   3.393   3.703  11.965 -0.2476 -0.5139 -0.0858
 3113TIP3    H130754   3.441   3.621  11.952 -0.4742 -0.8259  0.9925
 3113TIP3    H230755   3.336   3.709  11.889 -0.9722 -1.8888  0.3178
 3114TIP3   OH230756   2.118   2.799  12.650 -0.3963  0.3242  0.2525
 3114TIP3    H130757   2.058   2.810  12.576  0.6652 -0.6401 -0.7886
 3114TIP3    H230758   2.062   2.805  12.728 -2.1771 -2.4476 -0.6957
 3115TIP3   OH230759   6.777   2.619  16.613 -0.0343 -0.2007 -0.3711
 3115TIP3    H130760   6.827   2.678  16.558  1.0681 -0.0230  0.7621
 3115TIP3    H230761   6.800   2.644  16.703 -1.5333 -0.6678  0.1887
 3116TIP3   OH230762   1.003   6.558  12.811  0.0832  0.1979 -0.8098
 3116TIP3    H130763   1.043   6.630  12.762 -0.7163  0.7445 -0.6789
 3116TIP3    H230764   1.031   6.479  12.765  1.1082  0.5818 -0.8515
 3117TIP3   OH230765   5.363   3.534   2.859  0.5599  0.4902  1.1484
 3117TIP3    H130766   5.292   3.476   2.886  2.2222 -2.0375  0.4808
 3117TIP3    H230767   5.321   3.618   2.843 -2.6622 -1.2931 -0.9129
 3118TIP3   OH230768   4.120   0.028  15.648 -0.2544  0.1502  0.4078
 3118TIP3    H130769   4.124  -0.041  15.582 -0.2520  1.3125 -0.8521
 3118TIP3    H230770   4.148   0.107  15.602 -2.1625  1.4025  1.2708
 3119TIP3   OH230771   0.960   3.453  16.403  0.2594 -0.1736 -0.3139
 3119TIP3    H130772   1.049   3.461  16.368  0.7936 -2.4076  0.3567
 3119TIP3    H230773   0.970   3.469  16.497  0.3565 -2.1497  0.0718
 3120TIP3   OH230774   4.321   2.006  10.926  0.4437 -0.4121 -0.2887
 3120TIP3    H130775   4.258   1.972  10.863  1.8086  0.6303 -2.3320
 3120TIP3    H230776   4.320   2.100  10.912 -1.2015  0.2732  3.2766
 3121TIP3   OH230777   5.199   3.958  16.779 -0.1820  0.6975 -0.4943
 3121TIP3    H130778   5.108   3.983  16.761 -0.1191 -0.3099 -2.4579
 3121TIP3    H230779   5.192   3.879  16.831 -0.3698  2.1835  1.8910
 3122TIP3   OH230780   3.266   5.922  12.760 -0.1756 -0.1682  0.3955
 3122TIP3    H130781   3.280   5.991  12.824  1.1377  0.2252 -0.2803
 3122TIP3    H230782   3.210   5.962  12.693  2.8519  1.3051 -1.4800
 3123TIP3   OH230783   6.496   4.582  10.095  0.1378  0.2777 -0.0540
 3123TIP3    H130784   6.584   4.613  10.074  0.9071 -0.9053  1.2062
 3123TIP3    H230785   6.503   4.486  10.090 -1.0522  0.1690  0.1499
 3124TIP3   OH230786   4.650   4.782   0.784  0.2627 -0.2280 -0.2837
 3124TIP3    H130787   4.659   4.754   0.693 -1.2629  0.9851 -0.8755
 3124TIP3    H230788   4.610   4.708   0.829  0.2513 -0.5385 -0.8040
 3125TIP3   OH230789   3.533   3.355   4.532  0.0693 -0.0409 -0.2715
 3125TIP3    H130790   3.563   3.322   4.447  0.6453 -1.7282  0.5497
 3125TIP3    H230791   3.591   3.314   4.596 -0.2122  1.3766  0.9521
 3126TIP3   OH230792   2.266   2.578   0.538  0.4392  0.5796  0.1922
 3126TIP3    H130793   2.245   2.651   0.596 -1.1868  0.5972 -0.3671
 3126TIP3    H230794   2.182   2.551   0.502  1.1377 -0.9103 -0.4151
 3127TIP3   OH230795   0.942   1.096   5.721 -0.1675  0.0387 -0.7517
 3127TIP3    H130796   0.887   1.027   5.684  0.0796  0.0179 -1.0861
 3127TIP3    H230797   0.890   1.176   5.711 -0.4930 -0.1132 -0.2755
 3128TIP3   OH230798   4.130   3.505   3.077 -0.8757 -0.8514 -0.7350
 3128TIP3    H130799   4.084   3.438   3.128 -0.4519 -0.1473  0.6222
 3128TIP3    H230800   4.064   3.538   3.016 -2.2493  0.1573  1.1828
 3129TIP3   OH230801   4.723   2.710   0.200 -0.4650 -0.5575  0.2354
 3129TIP3    H130802   4.737   2.800   0.170 -2.0251 -0.4307 -0.1960
 3129TIP3    H230803   4.779   2.656   0.143  0.2634  0.1028  0.3109
 3130TIP3   OH230804   1.000   2.705   0.289 -0.3709  0.0113 -0.1800
 3130TIP3    H130805   1.052   2.638   0.334 -1.1603 -1.6468 -1.6327
 3130TIP3    H230806   0.952   2.749   0.360  1.2111  0.0116  0.9401
 3131TIP3   OH230807   0.399   3.290  15.359  0.4398  0.2182  0.0536
 3131TIP3    H130808   0.366   3.243  15.283 -0.4769 -0.0214  0.5811
 3131TIP3    H230809   0.372   3.381  15.345 -0.5746  0.0089  0.5231
 3132TIP3   OH230810   6.269   5.906   2.629  0.2024  0.4704 -0.3951
 3132TIP3    H130811   6.345   5.964   2.633  0.2767  0.3155  1.0904
 3132TIP3    H230812   6.196   5.959   2.660 -0.2226  0.4830 -1.3854
 3133TIP3   OH230813   1.159   1.012   5.874  0.3498 -0.1117 -0.4181
 3133TIP3    H130814   1.094   1.054   5.817  0.6333  0.9950  0.0457
 3133TIP3    H230815   1.234   1.071   5.873  0.8023 -0.6606  0.1786
 3134TIP3   OH230816   5.459   3.614  13.183 -0.3924 -0.0752 -0.0096
 3134TIP3    H130817   5.403   3.691  13.167 -0.4758  0.2588  1.7108
 3134TIP3    H230818   5.544   3.638  13.147 -1.1224 -0.3247 -2.0565
 3135TIP3   OH230819   0.060   1.679  16.728 -0.1599  0.7223 -0.2948
 3135TIP3    H130820   0.040   1.622  16.654 -0.4395  1.2270 -0.6081
 3135TIP3    H230821  -0.015   1.738  16.734 -0.5286  0.1602  0.9062
 3136TIP3   OH230822   1.362   0.170   1.087  0.1106  0.1288  0.3695
 3136TIP3    H130823   1.402   0.091   1.124 -0.2934 -0.5794 -0.6538
 3136TIP3    H230824   1.436   0.226   1.064  0.4085 -0.0184  0.9434
 3137TIP3   OH230825   5.336   1.805   5.812 -0.0507  0.0319  0.4472
 3137TIP3    H130826   5.252   1.840   5.785 -0.1111 -1.6917 -1.9826
 3137TIP3    H230827   5.400   1.871   5.783 -0.4656  0.7048  1.0413
 3138TIP3   OH230828   0.399   5.234   2.111 -0.2005 -0.4726  0.2049
 3138TIP3    H130829   0.470   5.211   2.050  0.1101 -1.9483  1.0698
 3138TIP3    H230830   0.360   5.150   2.135 -0.1949  0.0302  2.1694
 3139TIP3   OH230831   5.585   1.296   1.916  0.2849 -0.1232 -0.2425
 3139TIP3    H130832   5.560   1.384   1.944 -0.7080 -0.4275 -0.1460
 3139TIP3    H230833   5.612   1.306   1.825 -2.7230 -0.1586 -1.2607
 3140TIP3   OH230834   4.360   0.528   4.168  0.2102 -0.0184 -0.8350
 3140TIP3    H130835   4.306   0.604   4.148 -0.3426 -1.1772 -4.4221
 3140TIP3    H230836   4.436   0.536   4.110  1.4277 -0.9669  0.5369
 3141TIP3   OH230837   3.257   3.380  14.064 -0.0754 -0.5126 -0.1248
 3141TIP3    H130838   3.226   3.395  14.153  0.1899 -1.3063  0.1096
 3141TIP3    H230839   3.290   3.465  14.035 -2.7699  0.5028 -0.5209
 3142TIP3   OH230840   1.681   0.475  17.093  0.5453 -0.3734  0.0367
 3142TIP3    H130841   1.613   0.423  17.050 -0.5338  2.4370 -1.9470
 3142TIP3    H230842   1.637   0.511  17.170  0.0005  0.7448 -0.7731
 3143TIP3   OH230843   2.233   3.935  11.406 -0.2302  0.9212  0.5520
 3143TIP3    H130844   2.222   3.968  11.495  1.3831 -0.1951  1.2081
 3143TIP3    H230845   2.325   3.953  11.385 -0.3122  0.2095 -0.4735
 3144TIP3   OH230846   4.234   2.129  14.669  0.3887  1.0944  0.3832
 3144TIP3    H130847   4.262   2.200  14.612  3.6761  0.7321  1.3542
 3144TIP3    H230848   4.292   2.056  14.647  0.4354  0.3186  2.8063
 3145TIP3   OH230849   2.152   3.414  16.106  0.1932  0.0423  0.0010
 3145TIP3    H130850   2.114   3.326  16.115  1.5122 -0.4680  0.9100
 3145TIP3    H230851   2.240   3.399  16.071  1.0818  0.8325  1.7727
 3146TIP3   OH230852   0.758   0.393   0.328  0.5180 -0.5760 -0.3401
 3146TIP3    H130853   0.850   0.389   0.355  0.7361 -2.2315 -1.1930
 3146TIP3    H230854   0.710   0.356   0.402  0.3421  1.5369  0.6830
 3147TIP3   OH230855   5.988   1.844   5.986  0.0889 -0.4504  0.2106
 3147TIP3    H130856   6.072   1.797   5.980 -0.1348 -0.8780  0.3879
 3147TIP3    H230857   6.009   1.934   5.959  0.3411 -0.8583 -1.0630
 3148TIP3   OH230858   4.133   3.407   1.981 -0.2538 -0.4759 -0.9587
 3148TIP3    H130859   4.090   3.322   1.987 -2.0374  0.4486  0.0530
 3148TIP3    H230860   4.227   3.386   1.987 -0.6720 -2.2943  0.2581
 3149TIP3   OH230861   6.732   6.711   2.596  0.3091 -0.0456  0.1046
 3149TIP3    H130862   6.807   6.654   2.577  0.1962 -0.5350  1.0264
 3149TIP3    H230863   6.694   6.673   2.676  0.5119  1.6045  1.0177
 3150TIP3   OH230864   2.735   0.697  12.795  0.8933 -0.5182 -0.1284
 3150TIP3    H130865   2.670   0.667  12.732  0.7935  0.8345 -0.6999
 3150TIP3    H230866   2.705   0.783  12.823  1.1018 -0.9396  1.5555
 3151TIP3   OH230867   4.509   5.375  11.458  0.4860  0.0087  0.4037
 3151TIP3    H130868   4.590   5.418  11.430  0.3641  0.0677  0.1333
 3151TIP3    H230869   4.460   5.363  11.377  1.6092 -3.0217  0.0670
 3152TIP3   OH230870   5.246   5.391   4.368  0.0806 -0.5620 -0.1149
 3152TIP3    H130871   5.272   5.317   4.424 -3.2576 -1.4759  0.4336
 3152TIP3    H230872   5.280   5.468   4.413  1.1288 -1.5654  0.8776
 3153TIP3   OH230873   4.954   3.862   0.713 -0.2420 -0.4155 -0.4167
 3153TIP3    H130874   4.939   3.808   0.791 -0.2018 -0.1975 -0.2536
 3153TIP3    H230875   5.006   3.807   0.655 -0.4927 -0.6718 -0.3953
 3154TIP3   OH230876   3.659   6.110   5.369 -0.1035  0.4285 -0.5225
 3154TIP3    H130877   3.710   6.097   5.289  0.3514  0.7730 -0.2920
 3154TIP3    H230878   3.710   6.066   5.437  0.6289  1.9787 -0.0238
 3155TIP3   OH230879   1.345   1.344  12.156 -0.7609  0.1547 -0.5407
 3155TIP3    H130880   1.380   1.256  12.166 -1.0018  0.1814  0.6837
 3155TIP3    H230881   1.250   1.333  12.161 -0.7912  0.4774 -0.3297
 3156TIP3   OH230882   0.480   3.211   3.113 -0.4835 -0.1299  0.3326
 3156TIP3    H130883   0.401   3.159   3.129  0.7485 -2.4431 -0.6094
 3156TIP3    H230884   0.449   3.283   3.057 -1.9434 -0.9825 -0.0314
 3157TIP3   OH230885   4.034   6.506   4.133 -0.5147 -0.6408  0.5774
 3157TIP3    H130886   4.041   6.412   4.121 -0.7696 -0.5345 -0.4760
 3157TIP3    H230887   4.002   6.539   4.049 -1.3154  0.2806  1.2241
 3158TIP3   OH230888   5.924   1.948  13.888 -0.1902 -0.3557  0.2287
 3158TIP3    H130889   5.894   1.909  13.805 -0.0093  1.6914 -0.8593
 3158TIP3    H230890   5.889   2.037  13.887  1.1532  0.2323  1.6096
 3159TIP3   OH230891   1.762   5.473   2.993 -0.3068 -0.5985  0.3763
 3159TIP3    H130892   1.765   5.394   3.046 -0.5634 -1.5812 -1.0176
 3159TIP3    H230893   1.843   5.470   2.942 -0.0615  0.3301  0.6832
 3160TIP3   OH230894   4.893   6.326   1.637 -0.2972 -0.1043 -0.4165
 3160TIP3    H130895   4.829   6.297   1.701  1.0249  1.7900  1.9539
 3160TIP3    H230896   4.847   6.390   1.584 -1.3190 -1.4510 -1.2141
 3161TIP3   OH230897   1.373   4.702   4.758  0.5591  0.3571  0.7610
 3161TIP3    H130898   1.375   4.647   4.680  0.4452  0.4853  0.6662
 3161TIP3    H230899   1.448   4.673   4.811  0.6363  0.2726  0.6048
 3162TIP3   OH230900   3.634   2.556  16.866  0.5611  0.1040 -0.2509
 3162TIP3    H130901   3.672   2.613  16.799  0.2707  0.4520 -0.1237
 3162TIP3    H230902   3.648   2.467  16.833  1.7142  0.2102 -0.0835
 3163TIP3   OH230903   0.057   2.217  13.347 -0.2769 -0.2162 -0.0602
 3163TIP3    H130904   0.027   2.127  13.333 -0.2743 -0.1090 -0.8340
 3163TIP3    H230905   0.026   2.240  13.434 -1.6928 -0.4182 -0.4807
 3164TIP3   OH230906   4.296   1.774   3.331 -0.0473 -0.7054  0.2089
 3164TIP3    H130907   4.230   1.830   3.292 -1.8451 -1.7531  1.5589
 3164TIP3    H230908   4.306   1.807   3.421  1.2134 -0.6311  0.0654
 3165TIP3   OH230909   6.322   6.315  13.991  0.6622  0.5116 -0.0862
 3165TIP3    H130910   6.237   6.274  13.976  0.5885  0.5181  0.3049
 3165TIP3    H230911   6.376   6.286  13.917  0.0191  1.3822 -0.9285
 3166TIP3   OH230912   0.013   4.785  13.659  0.1015 -0.0622 -0.0391
 3166TIP3    H130913   0.060   4.702  13.669 -0.1632 -0.2489 -0.3441
 3166TIP3    H230914  -0.059   4.780  13.722  0.5259  0.2588  0.4876
 3167TIP3   OH230915   0.599   0.864   6.393 -0.2532 -0.0717  1.0512
 3167TIP3    H130916   0.626   0.952   6.420 -1.7156  0.2121  1.7200
 3167TIP3    H230917   0.648   0.805   6.450 -0.3853  0.3737  1.6277
 3168TIP3   OH230918   2.353   5.964  15.816 -0.3219 -0.1257  0.3531
 3168TIP3    H130919   2.285   5.991  15.754  0.7191  1.2777 -0.2221
 3168TIP3    H230920   2.307   5.908  15.878 -1.7170 -0.3225 -0.8035
 3169TIP3   OH230921   1.974   2.309   1.716 -0.0013 -0.7346 -0.6386
 3169TIP3    H130922   1.957   2.321   1.809  1.8815 -1.1932 -0.1869
 3169TIP3    H230923   2.068   2.289   1.711 -0.1130 -0.9964 -2.6102
 3170TIP3   OH230924   5.153   3.761  15.843  0.0835  0.2831 -0.2797
 3170TIP3    H130925   5.069   3.761  15.889  0.1672 -1.5415 -0.0680
 3170TIP3    H230926   5.207   3.822  15.894 -1.0083  1.2785 -0.2667
 3171TIP3   OH230927   6.285   1.117  10.832  0.4888 -0.2096  0.8854
 3171TIP3    H130928   6.361   1.168  10.860  0.4304 -0.3096  1.2417
 3171TIP3    H230929   6.276   1.135  10.739 -0.6592  1.9412  1.3528
 3172TIP3   OH230930   1.765   0.274  11.348  0.1500  0.5761  0.3909
 3172TIP3    H130931   1.681   0.317  11.366 -0.4335  0.0354 -0.9313
 3172TIP3    H230932   1.830   0.331  11.388 -0.3576  3.9927 -3.1137
 3173TIP3   OH230933   3.603   4.202   0.829 -0.4140 -0.2223 -0.5537
 3173TIP3    H130934   3.521   4.237   0.792 -0.7157 -0.9432 -0.5755
 3173TIP3    H230935   3.575   4.154   0.907  0.2907  2.0939  1.2743
 3174TIP3   OH230936   5.305   6.320  11.242  0.4816  0.2190 -0.0108
 3174TIP3    H130937   5.326   6.410  11.268  0.8434 -0.1903  1.1907
 3174TIP3    H230938   5.359   6.305  11.164  1.0010  0.7988  0.2207
 3175TIP3   OH230939   4.139   4.027   2.513 -0.6870  0.3600  0.2290
 3175TIP3    H130940   4.043   4.033   2.509 -0.9122 -1.1968  2.0278
 3175TIP3    H230941   4.166   4.022   2.421 -2.2087  1.9675 -0.3773
 3176TIP3   OH230942   4.830   1.021  12.598 -0.7099 -0.3077 -0.1703
 3176TIP3    H130943   4.885   1.022  12.520 -1.3427 -1.8849 -0.6617
 3176TIP3    H230944   4.883   0.976  12.664 -0.4322  0.4585  0.1523
 3177TIP3   OH230945   2.098   4.415  15.495  0.9239 -0.5208 -1.0818
 3177TIP3    H130946   2.061   4.465  15.568 -0.2097  0.2588 -2.1652
 3177TIP3    H230947   2.132   4.335  15.536 -0.9180 -0.7406  0.1280
 3178TIP3   OH230948   6.188   2.749   5.809 -0.2766  0.0826 -0.1093
 3178TIP3    H130949   6.171   2.836   5.844 -0.2506 -0.1889  0.5874
 3178TIP3    H230950   6.102   2.715   5.785 -0.4017 -0.0858  0.5509
 3179TIP3   OH230951   0.845   2.039   1.093 -0.1006  0.3665  0.4147
 3179TIP3    H130952   0.939   2.021   1.093  0.3893  2.4070 -1.9157
 3179TIP3    H230953   0.838   2.133   1.109 -1.5629  0.6552 -1.5221
 3180TIP3   OH230954   5.939   2.395   3.378  0.2943  0.0305  0.0588
 3180TIP3    H130955   5.940   2.409   3.472 -0.8673  0.6210  0.0034
 3180TIP3    H230956   5.983   2.311   3.365 -0.3208 -0.4832  1.2021
 3181TIP3   OH230957   0.113   3.256   3.231 -0.1788  0.1394 -0.0406
 3181TIP3    H130958   0.080   3.193   3.296 -2.4267  1.6459  0.3981
 3181TIP3    H230959   0.084   3.341   3.264 -0.6227  1.0356 -2.5649
 3182TIP3   OH230960   2.573   1.465  16.753 -0.1964 -0.0284 -0.3547
 3182TIP3    H130961   2.621   1.536  16.710  0.5558  0.0059  0.5227
 3182TIP3    H230962   2.615   1.385  16.720  0.5801  0.0036  0.5037
 3183TIP3   OH230963   2.755   0.987   5.402 -0.0109 -0.2418 -0.0019
 3183TIP3    H130964   2.750   0.952   5.313  0.3681  0.1839 -0.1920
 3183TIP3    H230965   2.776   1.079   5.391 -0.2993 -0.1083  0.5210
 3184TIP3   OH230966   5.788   0.537  14.316  0.0116 -0.0387  0.3861
 3184TIP3    H130967   5.749   0.466  14.367 -0.6666  0.3191  0.3807
 3184TIP3    H230968   5.723   0.607  14.320  0.1011  0.1219 -0.6723
 3185TIP3   OH230969   3.501   1.816   1.013 -0.1576  0.3862 -0.3835
 3185TIP3    H130970   3.547   1.876   1.071  1.0981 -1.2695  0.4356
 3185TIP3    H230971   3.442   1.767   1.072 -0.3720  0.0732 -0.8553
 3186TIP3   OH230972   2.035   2.459   0.672 -0.2239 -0.4247 -0.0977
 3186TIP3    H130973   2.023   2.404   0.750 -2.0523  0.6697  0.4743
 3186TIP3    H230974   1.962   2.521   0.676 -0.3581 -0.3086 -2.6841
 3187TIP3   OH230975   0.880   6.541   0.787  0.2271  0.1581  0.3132
 3187TIP3    H130976   0.905   6.571   0.700 -1.1633  1.6202  0.3690
 3187TIP3    H230977   0.960   6.548   0.839  1.2793 -1.4829 -0.9814
 3188TIP3   OH230978   3.333   1.193  15.565 -0.0701  0.3609 -0.3176
 3188TIP3    H130979   3.255   1.218  15.515 -0.7150 -3.1924 -1.3985
 3188TIP3    H230980   3.385   1.140  15.503  1.9304  0.4982  1.1600
 3189TIP3   OH230981   5.036   3.613   0.553  0.3689 -0.7319 -0.6618
 3189TIP3    H130982   5.033   3.517   0.555 -1.0485 -0.6975 -0.0179
 3189TIP3    H230983   4.952   3.639   0.517  0.7299  0.2914 -0.8120
 3190TIP3   OH230984   5.049   3.616   3.819 -0.2019 -0.1874  0.5277
 3190TIP3    H130985   5.118   3.584   3.761 -2.1174 -0.6333 -1.6761
 3190TIP3    H230986   5.065   3.711   3.825 -0.4043  0.0318 -1.5043
 3191TIP3   OH230987   2.963   3.781  13.728 -0.3700  0.2286  0.5415
 3191TIP3    H130988   3.041   3.725  13.724 -0.3063  0.3790 -1.3405
 3191TIP3    H230989   2.968   3.824  13.813 -0.4855 -2.6933  2.1400
 3192TIP3   OH230990   0.934   4.609  16.794  0.0511 -0.4299  0.4812
 3192TIP3    H130991   0.838   4.606  16.792 -0.0138  1.0248  0.3876
 3192TIP3    H230992   0.959   4.538  16.853 -1.0467 -1.3030 -0.0765
 3193TIP3   OH230993   1.155   3.774  16.767 -0.1041 -0.2995 -0.1002
 3193TIP3    H130994   1.124   3.687  16.741 -0.5888  0.0605 -0.7722
 3193TIP3    H230995   1.251   3.767  16.768 -0.1603 -1.3501  1.7155
 3194TIP3   OH230996   5.486   6.210  11.838 -0.2581  0.2609 -0.4384
 3194TIP3    H130997   5.424   6.280  11.819 -0.5249  0.2993  0.4879
 3194TIP3    H230998   5.520   6.183  11.753 -2.1380 -0.3026 -1.0528
 3195TIP3   OH230999   3.801   4.637  16.596 -0.3258  0.0755  0.0788
 3195TIP3    H131000   3.817   4.543  16.601 -1.2850 -0.2047 -1.4941
 3195TIP3    H231001   3.883   4.677  16.624 -0.4190 -1.1673  2.4154
 3196TIP3   OH231002   5.104   0.340   0.724  0.1251  0.0444 -0.1450
 3196TIP3    H131003   5.098   0.389   0.806  1.6129 -0.2339  0.1511
 3196TIP3    H231004   5.193   0.305   0.723 -1.0000 -3.1702 -0.0349
 3197TIP3   OH231005   3.559   2.865   1.734 -0.1156  0.1020 -0.4798
 3197TIP3    H131006   3.649   2.846   1.761 -0.6048  0.8258  1.9426
 3197TIP3    H231007   3.515   2.780   1.738  0.1645 -0.0480 -0.4908
 3198TIP3   OH231008   2.760   3.826   0.941  0.1776 -0.0646  0.6576
 3198TIP3    H131009   2.855   3.833   0.946  0.2028  0.8754 -0.7149
 3198TIP3    H231010   2.745   3.758   0.876 -0.0957  0.3576  0.2815
 3199TIP3   OH231011   0.428   4.590  11.865  0.2094  0.4283  0.2500
 3199TIP3    H131012   0.439   4.539  11.785 -0.7837  1.6808 -0.7225
 3199TIP3    H231013   0.513   4.631  11.879  0.7309 -0.6813  0.5129
 3200TIP3   OH231014   6.761   2.916   5.229  0.2032  0.2428  0.0095
 3200TIP3    H131015   6.809   2.978   5.173  0.4200  0.2316  0.1815
 3200TIP3    H231016   6.679   2.961   5.249 -1.0014 -0.7311 -2.3481
 3201TIP3   OH231017   4.552   1.522  14.586  0.4835 -0.3726 -0.0591
 3201TIP3    H131018   4.495   1.560  14.519 -1.5684  0.0837  1.8231
 3201TIP3    H231019   4.534   1.428  14.582 -0.9095 -0.1742  0.8999
 3202TIP3   OH231020   3.017   2.239  16.657 -0.0315  0.6754 -0.6089
 3202TIP3    H131021   3.033   2.328  16.625  0.3503  0.8301 -0.0138
 3202TIP3    H231022   2.924   2.225  16.644 -0.2414  1.4467 -0.0311
 3203TIP3   OH231023   4.483   4.519  16.597  0.4420 -0.2800 -0.2268
 3203TIP3    H131024   4.490   4.498  16.690  0.2882 -0.1737 -0.1886
 3203TIP3    H231025   4.389   4.531  16.583  0.3012 -1.7215 -0.7124
 3204TIP3   OH231026   5.139   4.992   4.306 -0.4006  0.0269  0.0230
 3204TIP3    H131027   5.146   4.970   4.213  0.3166 -1.3839  0.3925
 3204TIP3    H231028   5.094   4.917   4.345  0.9200 -0.2219  1.1019
 3205TIP3   OH231029   3.605   2.370  11.970 -0.6566  0.2224 -0.2437
 3205TIP3    H131030   3.605   2.371  11.874 -0.8071  0.4961 -0.2427
 3205TIP3    H231031   3.570   2.456  11.995  0.7343  0.7307  0.0668
 3206TIP3   OH231032   1.012   3.182  14.372  0.1451  0.3784 -0.1175
 3206TIP3    H131033   0.947   3.226  14.427 -0.1290  0.8907 -0.8257
 3206TIP3    H231034   1.094   3.226  14.392  0.1612  0.1614  0.3106
 3207TIP3   OH231035   4.127   6.527  17.046  0.5262  0.1540 -0.1778
 3207TIP3    H131036   4.076   6.507  17.124  1.6701  0.1981  0.6046
 3207TIP3    H231037   4.079   6.599  17.004  0.9221  1.4816  1.5342
 3208TIP3   OH231038   6.268   4.764   3.785  0.4485  0.5474 -0.0528
 3208TIP3    H131039   6.246   4.671   3.795 -1.0919  1.0580  2.0996
 3208TIP3    H231040   6.348   4.775   3.837  1.4810  0.2015 -1.4989
 3209TIP3   OH231041   3.430   3.613  14.609 -0.1606  0.1286 -0.3337
 3209TIP3    H131042   3.396   3.597  14.521  0.5446 -0.6206 -0.4719
 3209TIP3    H231043   3.398   3.540  14.661  2.5495 -1.5380 -0.8321
 3210TIP3   OH231044   5.751   4.043  14.534  0.3394  0.2643 -0.6717
 3210TIP3    H131045   5.668   4.028  14.490  0.4555 -0.7600 -0.5683
 3210TIP3    H231046   5.809   3.975  14.501  0.4862 -0.4419  0.9327
 3211TIP3   OH231047   5.569   3.467   3.182 -0.4453  0.0692 -0.2570
 3211TIP3    H131048   5.651   3.490   3.225  0.3727 -0.9723 -1.2039
 3211TIP3    H231049   5.502   3.483   3.248  0.6262 -0.1235  0.9098
 3212TIP3   OH231050   2.407   5.025   4.886  0.2880  0.0189 -0.0593
 3212TIP3    H131051   2.347   4.952   4.900  1.6651 -0.9058  1.4835
 3212TIP3    H231052   2.393   5.052   4.796 -0.0945 -2.3297 -0.7618
 3213TIP3   OH231053   3.650   4.091   4.780  0.3022  0.5556  0.0814
 3213TIP3    H131054   3.593   4.078   4.704  1.6695 -0.2778 -0.8530
 3213TIP3    H231055   3.666   4.185   4.781 -0.0654  0.6323 -0.4095
 3214TIP3   OH231056   6.577   2.769  15.273  0.7363 -0.3432 -0.2544
 3214TIP3    H131057   6.624   2.717  15.338 -0.9071 -0.3875  0.9325
 3214TIP3    H231058   6.527   2.706  15.222 -1.1761  0.0133  1.1178
 3215TIP3   OH231059   4.005   6.077   2.325  0.6254 -0.0747 -0.0475
 3215TIP3    H131060   3.955   6.153   2.353  1.0089  0.4279 -0.6976
 3215TIP3    H231061   3.939   6.014   2.297  0.3404  0.4411 -0.5438
 3216TIP3   OH231062   1.264   1.913  15.921  0.7013 -0.4234  0.1949
 3216TIP3    H131063   1.279   1.835  15.868  0.9203 -0.6504  0.5893
 3216TIP3    H231064   1.189   1.956  15.880  0.1803 -1.1678  0.3469
 3217TIP3   OH231065   0.400   4.448   1.917 -0.1189 -0.1847 -0.4507
 3217TIP3    H131066   0.410   4.388   1.991  0.4298  2.5970  1.9108
 3217TIP3    H231067   0.490   4.470   1.892 -0.2685  1.1855  0.1216
 3218TIP3   OH231068   5.793   2.270  16.715  1.2451  0.2169  0.6197
 3218TIP3    H131069   5.744   2.232  16.787  0.3394 -0.5391 -0.3659
 3218TIP3    H231070   5.756   2.358  16.704  1.5622  0.4328  1.2183
 3219TIP3   OH231071   5.967   6.115  14.224 -0.1501  0.0412  0.4075
 3219TIP3    H131072   5.927   6.029  14.213 -0.0801  0.0667 -0.0737
 3219TIP3    H231073   5.899   6.177  14.197  0.3227  0.0718 -0.7778
 3220TIP3   OH231074   0.049   6.136  12.031 -0.5059  0.0946 -0.3555
 3220TIP3    H131075   0.042   6.208  12.095 -2.6469  0.2224 -0.6736
 3220TIP3    H231076   0.094   6.066  12.079 -0.3033  0.8807  0.6437
 3221TIP3   OH231077   3.384   2.756  12.907  0.2971  0.3284 -0.7704
 3221TIP3    H131078   3.459   2.702  12.883  0.2477 -0.5847  0.9268
 3221TIP3    H231079   3.330   2.698  12.961 -0.0346  1.9002  0.6767
 3222TIP3   OH231080   6.586   5.704   1.382 -0.1161  0.2217 -0.0382
 3222TIP3    H131081   6.664   5.710   1.327  1.0455  1.3525  1.6212
 3222TIP3    H231082   6.537   5.784   1.362 -0.4263 -0.0650 -0.4456
 3223TIP3   OH231083   1.400   2.919   1.348 -0.3826  0.1980 -0.0167
 3223TIP3    H131084   1.388   2.978   1.422  1.0831 -0.0353  0.4403
 3223TIP3    H231085   1.437   2.973   1.279 -1.3895  0.3331 -0.4635
 3224TIP3   OH231086   2.814   3.183  14.525 -0.2499 -0.0803 -0.2472
 3224TIP3    H131087   2.847   3.139  14.604 -0.9767 -1.6260 -0.7566
 3224TIP3    H231088   2.891   3.192  14.469 -0.4305 -3.0731 -1.1625
 3225TIP3   OH231089   6.621   3.594   1.667 -0.1473  0.0595 -0.3416
 3225TIP3    H131090   6.540   3.590   1.617  0.5823 -0.6899 -1.5004
 3225TIP3    H231091   6.689   3.564   1.607  0.8401 -0.4020  0.9461
 3226TIP3   OH231092   0.634   2.109   1.664 -0.3390  0.2598 -0.2872
 3226TIP3    H131093   0.647   2.095   1.758 -2.3597 -1.9787 -0.2536
 3226TIP3    H231094   0.539   2.113   1.653 -0.1451  3.5838 -1.9133
 3227TIP3   OH231095   1.586   5.276   3.813 -0.5082  0.2377 -0.1873
 3227TIP3    H131096   1.648   5.205   3.794  0.5948  1.2621 -0.5163
 3227TIP3    H231097   1.607   5.302   3.902 -1.7853 -0.6898  0.4072
 3228TIP3   OH231098   4.683   2.298  16.993  0.2257  0.0446 -0.2597
 3228TIP3    H131099   4.672   2.207  17.022  0.6592 -0.6348 -2.1008
 3228TIP3    H231100   4.775   2.318  17.010  0.7311 -0.6828 -1.9341
 3229TIP3   OH231101   4.489   4.733  14.991  0.2717  0.4093  0.4533
 3229TIP3    H131102   4.430   4.809  14.985  2.1092  1.8043 -1.0740
 3229TIP3    H231103   4.487   4.695  14.903 -0.2923 -1.0997  1.0918
 3230TIP3   OH231104   2.733   1.126  12.468 -0.5314 -0.4496  0.4979
 3230TIP3    H131105   2.658   1.068  12.464 -0.2120 -0.8101 -0.7210
 3230TIP3    H231106   2.695   1.214  12.468 -1.0453 -0.5837  3.0234
 3231TIP3   OH231107   5.187   2.348  14.015  0.2371  0.4504 -0.3481
 3231TIP3    H131108   5.164   2.383  14.101  0.3264  0.3662 -0.2883
 3231TIP3    H231109   5.140   2.403  13.953 -0.0463  0.3379 -0.2322
 3232TIP3   OH231110   3.694   5.014   1.174 -0.4018  0.0562  0.3893
 3232TIP3    H131111   3.758   5.082   1.198 -0.9914  0.7845 -0.0714
 3232TIP3    H231112   3.610   5.050   1.201 -0.9220  0.2666 -1.4303
 3233TIP3   OH231113   5.145   4.231  14.563 -0.5732 -0.3697  0.5314
 3233TIP3    H131114   5.148   4.236  14.658  1.2861 -0.2778  0.5238
 3233TIP3    H231115   5.138   4.138  14.543 -0.4817 -0.4255  0.7620
 3234TIP3   OH231116   3.609   2.364  14.117  0.1282 -0.2781  0.2877
 3234TIP3    H131117   3.632   2.360  14.024  0.4039 -0.2815  0.3578
 3234TIP3    H231118   3.686   2.331  14.163  0.8062  1.6712  0.6412
 3235TIP3   OH231119   4.926   6.501   5.704  0.1953 -0.2301 -0.0049
 3235TIP3    H131120   4.984   6.435   5.665 -0.3933 -0.5105 -0.4188
 3235TIP3    H231121   4.965   6.518   5.790  1.6276  0.5657 -0.7743
 3236TIP3   OH231122   2.419   5.955   4.968  0.3760 -0.2583  0.5094
 3236TIP3    H131123   2.433   6.048   4.951  0.9408 -0.5813 -0.8942
 3236TIP3    H231124   2.460   5.910   4.894  1.5289 -1.6917  1.9362
 3237TIP3   OH231125   2.325   0.054  15.247  0.0699  0.8206  0.2616
 3237TIP3    H131126   2.390   0.125  15.242 -0.2885  1.2323  1.2606
 3237TIP3    H231127   2.370  -0.021  15.208  0.8086  1.3377  0.0710
 3238TIP3   OH231128   5.122   5.553   4.134 -0.9768  0.8762  0.1504
 3238TIP3    H131129   5.216   5.575   4.131 -0.5396 -0.6091  1.3851
 3238TIP3    H231130   5.116   5.487   4.203 -3.0343  1.3322  0.4574
 3239TIP3   OH231131   5.829   0.373  13.172 -0.3554  0.1524 -0.1727
 3239TIP3    H131132   5.858   0.392  13.261 -0.5325  1.9074 -0.4509
 3239TIP3    H231133   5.822   0.278  13.169  0.3023  0.0151  1.4752
 3240TIP3   OH231134   0.518   1.406   5.485 -0.0521 -0.4563 -0.2700
 3240TIP3    H131135   0.518   1.329   5.541  3.2633  0.1518  0.8033
 3240TIP3    H231136   0.551   1.476   5.541 -1.2058  1.3534 -1.7206
 3241TIP3   OH231137   0.646   1.154   4.100  0.3165 -0.2531 -0.6449
 3241TIP3    H131138   0.656   1.234   4.049 -0.5875 -0.7670 -1.6828
 3241TIP3    H231139   0.573   1.172   4.159  0.2458 -0.2489 -0.7343
 3242TIP3   OH231140   0.946   6.132  15.464 -0.0675  0.5335  0.8018
 3242TIP3    H131141   0.890   6.155  15.390 -0.2454 -0.3192  0.6668
 3242TIP3    H231142   0.980   6.216  15.496 -2.8798  1.2950  2.0753
 3243TIP3   OH231143   5.436   3.537  15.571  0.3871 -0.1162  0.6766
 3243TIP3    H131144   5.453   3.475  15.500  0.5755  1.2527 -0.5008
 3243TIP3    H231145   5.514   3.533  15.626  0.5309 -0.6703  0.4403
 3244TIP3   OH231146   1.152   0.399  11.789  0.5718 -0.0586 -0.5875
 3244TIP3    H131147   1.137   0.484  11.746 -1.6029  0.7029  1.4582
 3244TIP3    H231148   1.095   0.338  11.743 -1.1185  0.5717  0.6019
 3245TIP3   OH231149   2.053   3.044   3.696 -0.2779  0.0159 -0.2387
 3245TIP3    H131150   1.991   2.979   3.727 -0.8432 -0.1293 -1.5843
 3245TIP3    H231151   2.048   3.115   3.760  0.3578 -1.2260  1.2526
 3246TIP3   OH231152   3.120   5.594   2.027  0.1481  0.1978  0.3270
 3246TIP3    H131153   3.045   5.603   1.968  0.9420  3.6601 -0.4032
 3246TIP3    H231154   3.108   5.664   2.091  1.2162 -1.1505  2.0942
 3247TIP3   OH231155   1.547   5.320  13.599 -0.8617 -0.7829  0.3691
 3247TIP3    H131156   1.519   5.361  13.681  0.7304  0.4221  0.3631
 3247TIP3    H231157   1.491   5.359  13.532 -0.3976  0.2544  0.5671
 3248TIP3   OH231158   3.475   5.232  16.523  0.3549 -0.0439 -0.4290
 3248TIP3    H131159   3.480   5.267  16.613  1.4641 -1.4336  0.0835
 3248TIP3    H231160   3.503   5.305  16.468 -1.6923  1.2934  0.1899
 3249TIP3   OH231161   3.913   5.406  17.112 -0.1320 -0.3037 -0.2146
 3249TIP3    H131162   3.995   5.419  17.064 -0.9269  0.1686 -1.5183
 3249TIP3    H231163   3.872   5.493  17.112 -1.6308 -0.9532 -1.5551
 3250TIP3   OH231164   5.080   6.090   2.508 -0.3134  0.0862  0.6377
 3250TIP3    H131165   5.128   6.075   2.426  0.3617  1.0742  0.8312
 3250TIP3    H231166   5.082   6.005   2.552  1.5193  0.1356  0.7517
 3251TIP3   OH231167   3.363   6.518  16.879 -0.0096 -0.6353 -0.0219
 3251TIP3    H131168   3.448   6.485  16.851  0.2110 -0.6690  0.6691
 3251TIP3    H231169   3.372   6.532  16.973 -0.1082  1.3471 -0.2629
 3252TIP3   OH231170   5.359   6.573  11.302  0.5219 -0.0360 -0.1466
 3252TIP3    H131171   5.434   6.632  11.289  0.0514  0.8368  0.9204
 3252TIP3    H231172   5.326   6.595  11.389  0.5461 -2.1603  0.4490
 3253TIP3   OH231173   4.511   0.258  12.138 -0.1870  0.1632 -0.3542
 3253TIP3    H131174   4.556   0.201  12.076 -1.1805 -1.6874  0.5577
 3253TIP3    H231175   4.547   0.345  12.120  3.7029 -1.1345  0.2624
 3254TIP3   OH231176   5.584   0.232   6.298 -0.0966 -0.0881  0.5264
 3254TIP3    H131177   5.543   0.197   6.376 -0.7906 -1.7168 -0.5193
 3254TIP3    H231178   5.674   0.252   6.325 -0.3297 -0.5932  1.7284
 3255TIP3   OH231179   5.842   3.652  12.892  0.2071  0.0034 -0.2097
 3255TIP3    H131180   5.763   3.598  12.897  0.5710 -0.4632  0.8418
 3255TIP3    H231181   5.884   3.641  12.977  0.1335  2.2295  0.1700
 3256TIP3   OH231182   4.371   5.334   5.111  0.3187 -0.3050  0.1534
 3256TIP3    H131183   4.454   5.291   5.094  0.0137 -1.2870  1.0323
 3256TIP3    H231184   4.304   5.269   5.090 -0.2228  0.3165 -0.1157
 3257TIP3   OH231185   1.465   0.123   4.123  0.5841  0.3243 -0.2168
 3257TIP3    H131186   1.455   0.215   4.101 -0.4654  0.1159 -0.6730
 3257TIP3    H231187   1.506   0.083   4.046  0.2897  0.2576 -0.3372
 3258TIP3   OH231188   2.268   1.601   3.132  0.0772  0.0751  0.3741
 3258TIP3    H131189   2.179   1.610   3.100 -0.1899 -0.5755  0.9207
 3258TIP3    H231190   2.265   1.635   3.222  0.5628  0.8086  0.1249
 3259TIP3   OH231191   0.288   3.467  16.603 -0.1529  0.4140 -0.0374
 3259TIP3    H131192   0.195   3.487  16.595 -1.0491 -2.6609  1.0086
 3259TIP3    H231193   0.305   3.472  16.697 -0.5049 -3.0614  0.3681
 3260TIP3   OH231194   1.430   5.178   0.868  0.6058  0.0033 -0.0017
 3260TIP3    H131195   1.382   5.244   0.917 -0.2397 -1.0303  0.5884
 3260TIP3    H231196   1.519   5.183   0.902  0.5251  0.7551  0.1123
 3261TIP3   OH231197   0.983   1.934  14.391  0.1820 -0.3255 -0.3432
 3261TIP3    H131198   0.993   1.853  14.341 -1.3939 -1.6961  1.3771
 3261TIP3    H231199   1.029   1.917  14.474  0.5738  0.8973 -0.2843
 3262TIP3   OH231200   6.649   2.007   4.712  0.4494  0.2299 -0.8198
 3262TIP3    H131201   6.560   1.977   4.727  0.1956  0.8136 -1.0982
 3262TIP3    H231202   6.698   1.978   4.789 -0.3464  1.3302  0.1369
 3263TIP3   OH231203   3.938   0.870  14.180 -0.5691 -0.4187  0.4158
 3263TIP3    H131204   3.906   0.919  14.104 -0.2185 -0.3540  0.3095
 3263TIP3    H231205   3.877   0.892  14.250 -0.1802  0.4856  0.4724
 3264TIP3   OH231206   1.750   4.049   3.473 -0.2348 -0.1956 -0.3204
 3264TIP3    H131207   1.760   3.991   3.397  1.0664 -0.2422 -0.1230
 3264TIP3    H231208   1.682   4.111   3.446  0.2925 -0.1319 -1.5708
 3265TIP3   OH231209   6.009   0.100  15.727 -0.2730  0.0632  0.5418
 3265TIP3    H131210   6.006   0.019  15.779  2.1363 -0.7995 -0.4913
 3265TIP3    H231211   6.063   0.159  15.779 -2.0544  1.0714  1.3054
 3266TIP3   OH231212   6.629   1.951   5.296  0.0370 -0.1545  0.2656
 3266TIP3    H131213   6.594   1.887   5.358  0.3325 -0.8701 -0.2831
 3266TIP3    H231214   6.715   1.974   5.332 -0.3329  0.4158  0.7934
 3267TIP3   OH231215   0.942   3.807  11.575  0.7027 -0.0993  0.5706
 3267TIP3    H131216   0.877   3.874  11.596  1.8125  0.4043  2.7226
 3267TIP3    H231217   0.942   3.748  11.651  1.2486 -1.3220 -0.3409
 3268TIP3   OH231218   5.194   4.193   0.779  0.5294  0.2595  0.5560
 3268TIP3    H131219   5.146   4.264   0.736  0.0352  0.2265  1.0338
 3268TIP3    H231220   5.189   4.214   0.872 -0.1767 -0.7240  0.7623
 3269TIP3   OH231221   5.458   1.086   0.036  0.5550  0.3117 -0.1594
 3269TIP3    H131222   5.420   1.101   0.123  0.8127 -1.5103  0.3095
 3269TIP3    H231223   5.520   1.014   0.050 -0.5931 -1.1328 -2.1776
 3270TIP3   OH231224   6.722   6.566   1.424 -0.2837 -0.2043  0.0760
 3270TIP3    H131225   6.675   6.489   1.456 -0.5282 -0.4024 -0.7285
 3270TIP3    H231226   6.687   6.580   1.336  1.5457 -0.6973 -0.7804
 3271TIP3   OH231227   1.393   3.738  12.986 -0.4362  0.5603 -0.2545
 3271TIP3    H131228   1.457   3.668  12.972  0.1938  1.2288 -0.8116
 3271TIP3    H231229   1.339   3.707  13.059  1.3993  0.5719  1.2016
 3272TIP3   OH231230   0.919   0.243  13.291 -0.1611  0.5194 -0.2123
 3272TIP3    H131231   0.832   0.274  13.316 -0.0786  1.2116 -0.7435
 3272TIP3    H231232   0.961   0.219  13.374 -0.7828  0.3707  0.0604
 3273TIP3   OH231233   3.617   5.416   0.245  0.2074 -0.0824 -0.3937
 3273TIP3    H131234   3.665   5.421   0.328 -0.6696  0.4799  0.1004
 3273TIP3    H231235   3.543   5.357   0.264 -1.8805  2.5622  0.2486
 3274TIP3   OH231236   6.287   3.081  16.970  0.0221 -0.9644 -0.6787
 3274TIP3    H131237   6.303   3.040  17.055 -1.7392 -2.9029 -1.2046
 3274TIP3    H231238   6.369   3.068  16.922  0.7390 -0.6103  0.4110
 3275TIP3   OH231239   2.894   5.195  12.048  0.0777 -0.3897 -0.1241
 3275TIP3    H131240   2.831   5.267  12.042  1.8046  1.3231  0.8670
 3275TIP3    H231241   2.888   5.151  11.963  0.4781  2.3126 -1.6959
 3276TIP3   OH231242   2.715   3.747  16.672 -0.1621 -0.5350 -0.3294
 3276TIP3    H131243   2.791   3.712  16.717  0.2152  0.3438 -0.2659
 3276TIP3    H231244   2.658   3.671  16.658 -0.5418 -0.7573  2.0803
 3277TIP3   OH231245   6.064   6.692   2.253 -0.2344  0.5953 -0.1386
 3277TIP3    H131246   6.051   6.778   2.294  1.2336  2.2491 -2.8518
 3277TIP3    H231247   6.017   6.698   2.170  1.3741 -0.5109 -1.1918
 3278TIP3   OH231248   5.460   3.702   3.618  0.3931  0.2521  0.3202
 3278TIP3    H131249   5.550   3.730   3.600 -0.1301  2.2123  0.4638
 3278TIP3    H231250   5.433   3.758   3.692 -0.4170 -1.4449  1.3615
 3279TIP3   OH231251   3.919   1.699  13.049 -0.0678  0.2286 -0.6653
 3279TIP3    H131252   3.964   1.631  12.999 -1.1267  0.4083 -1.9262
 3279TIP3    H231253   3.888   1.654  13.127  3.3747  0.4011  0.9543
 3280TIP3   OH231254   1.495   0.084  14.542  0.2148  0.5529 -0.4970
 3280TIP3    H131255   1.407   0.059  14.568 -1.5681  0.7413 -5.3499
 3280TIP3    H231256   1.552   0.026  14.591 -2.9457 -3.0823 -0.6755
 3281TIP3   OH231257   1.139   5.055   5.014  0.1695  0.4748 -0.1787
 3281TIP3    H131258   1.208   5.119   5.032  0.9590 -0.5143  0.4152
 3281TIP3    H231259   1.119   5.017   5.099 -0.8980  0.5318 -0.3985
 3282TIP3   OH231260   4.416   5.653  14.484 -0.5166 -0.0447  0.1118
 3282TIP3    H131261   4.423   5.714  14.557 -1.1242 -0.2451  0.3458
 3282TIP3    H231262   4.507   5.637  14.458 -0.3427  0.7846  0.1849
 3283TIP3   OH231263   5.933   1.672   0.292  0.3429 -0.4835 -0.0875
 3283TIP3    H131264   5.968   1.623   0.218 -1.4273 -0.7093 -0.8227
 3283TIP3    H231265   5.963   1.762   0.278  1.6316 -0.8729  0.0002
 3284TIP3   OH231266   1.181   5.883  14.323 -0.1128 -0.2950 -0.5147
 3284TIP3    H131267   1.112   5.829  14.285  0.8199 -3.8798  2.3250
 3284TIP3    H231268   1.161   5.886  14.417  1.7445  1.5140 -0.0844
 3285TIP3   OH231269   2.275   1.285  12.901 -0.1589 -0.0879  0.2182
 3285TIP3    H131270   2.285   1.361  12.958  0.4293  0.8046 -1.0411
 3285TIP3    H231271   2.193   1.244  12.931  0.2137  0.2439  1.7905
 3286TIP3   OH231272   3.790   4.260  16.945  0.1270  0.5332  0.4118
 3286TIP3    H131273   3.849   4.232  16.875  0.0089 -0.2448  0.6107
 3286TIP3    H231274   3.750   4.179  16.976 -0.4201  0.9612  0.8449
 3287TIP3   OH231275   4.622   3.815   0.457  0.8671  0.1430  0.0310
 3287TIP3    H131276   4.685   3.750   0.487 -1.4160 -1.7436  1.0682
 3287TIP3    H231277   4.656   3.845   0.373  2.8887 -1.0837  0.3524
 3288TIP3   OH231278   5.929   1.095   0.590  0.2622  0.3334 -0.7794
 3288TIP3    H131279   5.922   1.190   0.586 -0.4456  0.3915  0.8507
 3288TIP3    H231280   5.838   1.064   0.585  0.2176 -0.0568  1.4753
 3289TIP3   OH231281   5.969   0.263   5.743  0.1224  0.4348 -0.1706
 3289TIP3    H131282   5.947   0.173   5.767  0.0682  0.5878  0.3771
 3289TIP3    H231283   6.065   0.264   5.741  0.1149 -0.1070 -2.0687
 3290TIP3   OH231284   1.068   2.627  15.116 -0.1434 -0.0642 -0.4068
 3290TIP3    H131285   1.029   2.709  15.149 -0.6678  0.4210 -2.1406
 3290TIP3    H231286   1.018   2.607  15.037 -1.6825 -3.4349  1.2284
 3291TIP3   OH231287   5.059   3.996  14.170 -0.4005 -0.5072  0.1144
 3291TIP3    H131288   5.150   3.990  14.142 -0.0743  0.5943  0.8606
 3291TIP3    H231289   5.008   3.983  14.090  0.3799 -1.8445 -0.1840
 3292TIP3   OH231290   3.812   0.501   2.466  0.3552 -0.2080 -0.5470
 3292TIP3    H131291   3.862   0.544   2.397  1.6953 -1.1558 -0.2008
 3292TIP3    H231292   3.774   0.574   2.516  2.3368  0.6250 -0.1470
 3293TIP3   OH231293   5.007   3.819   1.756  0.8897 -0.2702  0.1994
 3293TIP3    H131294   4.969   3.733   1.737  1.9397 -0.3972 -1.5198
 3293TIP3    H231295   4.932   3.877   1.766  0.1760 -1.2898  1.0178
 3294TIP3   OH231296   6.061   6.544   4.271 -0.2496 -0.8009 -0.2193
 3294TIP3    H131297   5.997   6.552   4.200 -1.2075  1.4286  0.8330
 3294TIP3    H231298   6.129   6.608   4.249 -1.6428  1.5465  1.8966
 3295TIP3   OH231299   2.846   6.334   2.555 -0.2640 -0.2856 -0.0337
 3295TIP3    H131300   2.889   6.364   2.635  1.6865  1.9945 -1.7844
 3295TIP3    H231301   2.902   6.263   2.523 -1.1192 -1.2901  0.6518
 3296TIP3   OH231302   5.334   1.971  10.818  0.0708  0.0770  0.7844
 3296TIP3    H131303   5.258   1.914  10.800  0.7116 -0.1893 -1.3821
 3296TIP3    H231304   5.384   1.970  10.736 -0.1041  4.1507  0.4722
 3297TIP3   OH231305   4.090   2.897  16.590 -0.0274  0.1466  0.3135
 3297TIP3    H131306   4.077   2.990  16.609  2.0157  0.6187 -0.3421
 3297TIP3    H231307   4.165   2.872  16.643 -0.2766 -1.0279  0.1321
 3298TIP3   OH231308   2.989   5.110  14.485 -0.1054  0.4599 -0.3039
 3298TIP3    H131309   2.972   5.018  14.507 -1.0973  0.7498  0.1584
 3298TIP3    H231310   3.069   5.107  14.433  0.4786 -0.5611  0.6069
 3299TIP3   OH231311   3.545   3.283  16.248  0.3447  0.2417  0.7329
 3299TIP3    H131312   3.489   3.212  16.278  1.8321 -0.3535  2.2898
 3299TIP3    H231313   3.554   3.268  16.154 -0.4381 -0.8555  0.8134
 3300TIP3   OH231314   4.916   4.367  17.093  0.1071 -0.2887 -0.4701
 3300TIP3    H131315   4.957   4.294  17.139  1.4149 -0.0965 -1.2812
 3300TIP3    H231316   4.822   4.356  17.109  0.4223 -0.9285  1.1713
 3301TIP3   OH231317   3.550   2.122  12.875  0.3477  0.3772  0.2568
 3301TIP3    H131318   3.518   2.036  12.901 -0.1390  0.0947 -1.1802
 3301TIP3    H231319   3.472   2.167  12.842  0.9013  0.7560 -0.5517
 3302TIP3   OH231320   4.981   6.029  16.104  0.5461  0.3596 -0.3306
 3302TIP3    H131321   4.950   6.060  16.189 -0.7664 -0.8895 -0.3361
 3302TIP3    H231322   4.902   6.022  16.050  1.3322  0.9360 -1.6142
 3303TIP3   OH231323   1.219   3.845   1.237  0.0491  0.2631 -0.0571
 3303TIP3    H131324   1.192   3.816   1.150  0.8217 -0.1652 -0.1590
 3303TIP3    H231325   1.165   3.793   1.297 -0.7154  0.7902 -0.2721
 3304TIP3   OH231326   4.371   0.629  12.133 -0.0024 -0.5419 -0.2945
 3304TIP3    H131327   4.302   0.564  12.146 -0.8739  0.7466  2.0338
 3304TIP3    H231328   4.451   0.576  12.120 -0.7526 -2.0934  1.0432
 3305TIP3   OH231329   2.219   5.526   4.443 -0.4538 -0.1061 -0.1909
 3305TIP3    H131330   2.170   5.523   4.525 -0.8898 -0.3462 -0.4526
 3305TIP3    H231331   2.191   5.607   4.401 -0.0770  0.1177 -0.0101
 3306TIP3   OH231332   3.584   1.385   5.590 -0.1700 -0.1767 -0.5152
 3306TIP3    H131333   3.653   1.404   5.653 -0.4925  0.6265 -0.3838
 3306TIP3    H231334   3.627   1.395   5.505  0.2635 -1.2590 -0.4336
 3307TIP3   OH231335   3.471   5.455   5.883 -0.2128  0.3923  0.1136
 3307TIP3    H131336   3.486   5.506   5.963 -1.1887  0.9747 -0.0570
 3307TIP3    H231337   3.376   5.459   5.870  0.0111  0.9920 -1.5348
 3308TIP3   OH231338   1.916   3.113  13.226 -0.1532 -0.3750  0.4647
 3308TIP3    H131339   1.994   3.060  13.206  0.5876  0.7236  0.3418
 3308TIP3    H231340   1.849   3.081  13.166  0.4935 -0.7005 -0.0983
 3309TIP3   OH231341   1.515   3.465  16.758  0.0157 -0.2366 -0.3506
 3309TIP3    H131342   1.515   3.522  16.681  0.0493 -1.5579 -1.3735
 3309TIP3    H231343   1.462   3.511  16.822  0.9821  1.4656 -0.7196
 3310TIP3   OH231344   3.430   2.355   4.027 -0.0920  0.7076  0.3805
 3310TIP3    H131345   3.447   2.364   3.933 -0.0146 -1.4164  0.1499
 3310TIP3    H231346   3.516   2.363   4.068  0.3380 -1.2574 -0.0308
 3311TIP3   OH231347   5.690   4.324  15.412 -0.2800 -0.7903 -0.3178
 3311TIP3    H131348   5.759   4.342  15.349  0.5947 -0.4968  0.6877
 3311TIP3    H231349   5.660   4.410  15.441 -0.7432 -0.9191 -0.3972
 3312TIP3   OH231350   0.776   2.372  15.794  0.0634  0.1529 -0.3382
 3312TIP3    H131351   0.818   2.439  15.741  0.6715 -0.8061 -1.1115
 3312TIP3    H231352   0.826   2.292  15.776 -0.1083 -0.3450  1.1909
 3313TIP3   OH231353   5.032   5.706  14.534 -0.2445  0.1938  0.1762
 3313TIP3    H131354   4.965   5.705  14.603 -0.1531 -0.3271  0.2637
 3313TIP3    H231355   5.083   5.626  14.550 -1.4450 -1.0141 -1.6883
 3314TIP3   OH231356   3.431   0.329   3.384  0.0179 -0.1273 -0.3613
 3314TIP3    H131357   3.424   0.273   3.462  0.4236 -0.7536 -0.7674
 3314TIP3    H231358   3.520   0.365   3.387  0.2527 -0.6490 -0.8587
 3315TIP3   OH231359   5.826   1.142  13.388 -0.0903 -0.2170  0.1117
 3315TIP3    H131360   5.860   1.057  13.414  1.5592  0.3861  0.0702
 3315TIP3    H231361   5.838   1.197  13.465 -1.2967 -0.0481  0.1916
 3316TIP3   OH231362   3.829   2.139  16.006 -0.2893  0.1470  0.1353
 3316TIP3    H131363   3.770   2.186  16.064 -2.0390 -2.0393  0.2717
 3316TIP3    H231364   3.777   2.125  15.926  0.2833 -1.1968 -0.0206
 3317TIP3   OH231365   5.092   2.599   3.830  0.0852  0.0255  0.1608
 3317TIP3    H131366   5.043   2.653   3.768  0.1270 -1.4698 -1.2508
 3317TIP3    H231367   5.114   2.521   3.780  3.1092  0.2211  0.9914
 3318TIP3   OH231368   2.753   2.309   0.543  0.0755  0.2039  0.6882
 3318TIP3    H131369   2.788   2.346   0.462  2.9723 -0.3350  1.6001
 3318TIP3    H231370   2.668   2.272   0.517  1.7223 -1.7483 -2.5774
 3319TIP3   OH231371   0.656   1.472   3.016 -0.0902 -0.1703  0.1846
 3319TIP3    H131372   0.686   1.559   2.992 -0.3806 -0.2789 -0.5677
 3319TIP3    H231373   0.680   1.464   3.109 -1.1256  1.1517  0.5967
 3320TIP3   OH231374   6.231   0.706   2.101  0.0403  0.4092  0.3555
 3320TIP3    H131375   6.160   0.754   2.058  0.9420  0.3314 -1.3337
 3320TIP3    H231376   6.238   0.625   2.051  1.8723  0.8059 -0.1095
 3321TIP3   OH231377   0.604   5.661  11.155  0.0257  0.1557  0.0685
 3321TIP3    H131378   0.615   5.587  11.095  0.4223  1.1317 -1.1031
 3321TIP3    H231379   0.526   5.640  11.206  0.2504 -1.1524 -0.0997
 3322TIP3   OH231380   0.048   4.050   3.557 -0.0742  0.3783  0.9983
 3322TIP3    H131381   0.009   4.006   3.482  0.1198  1.3048  0.3463
 3322TIP3    H231382   0.142   4.046   3.541  0.0623 -0.6193  1.8810
 3323TIP3   OH231383   2.920   0.833  14.789  0.2389 -0.5952  0.5347
 3323TIP3    H131384   2.892   0.798  14.704 -0.3089 -0.0218  0.4717
 3323TIP3    H231385   2.996   0.888  14.768  1.0471 -1.6512  0.6223
 3324TIP3   OH231386   6.084   0.369   2.555  0.0121  0.3562 -0.7479
 3324TIP3    H131387   6.075   0.382   2.650  0.1190 -0.9360 -0.5362
 3324TIP3    H231388   5.996   0.386   2.520  0.0555  1.1935 -0.4771
 3325TIP3   OH231389   0.337   5.926   3.421  0.3757  0.0060 -0.3653
 3325TIP3    H131390   0.385   5.965   3.348  1.3662  1.1356  0.8332
 3325TIP3    H231391   0.261   5.982   3.432  1.0998  0.8402  0.5072
 3326TIP3   OH231392   5.398   2.549  16.460  0.5234 -0.6240  0.5793
 3326TIP3    H131393   5.435   2.481  16.516 -3.1426 -2.6004  0.8571
 3326TIP3    H231394   5.322   2.582  16.509 -0.9090 -0.1096 -1.8252
 3327TIP3   OH231395   4.253   4.120   5.540  0.7577 -0.1889  0.5808
 3327TIP3    H131396   4.244   4.030   5.508  0.8020 -0.7518  2.0970
 3327TIP3    H231397   4.340   4.123   5.580  0.4402  0.2999  1.2573
 3328TIP3   OH231398   0.999   5.605   0.138 -0.2252  0.4415  0.8456
 3328TIP3    H131399   0.974   5.514   0.127  0.9874  0.1744  0.0527
 3328TIP3    H231400   0.918   5.655   0.126 -0.7779 -0.4899  0.6578
 3329TIP3   OH231401   1.404   0.443   5.639  0.3126  0.1220  0.2805
 3329TIP3    H131402   1.396   0.538   5.640 -0.2469  0.1125 -1.1376
 3329TIP3    H231403   1.315   0.411   5.625  0.5021 -0.6118  0.6839
 3330TIP3   OH231404   3.819   4.039  13.957  0.0864  0.0290  0.1384
 3330TIP3    H131405   3.902   4.078  13.928 -0.6577  2.8069  1.4364
 3330TIP3    H231406   3.805   4.075  14.044 -1.1996 -2.5384  1.0887
 3331TIP3   OH231407   2.446   5.292  14.919 -0.0343 -0.0650  0.3576
 3331TIP3    H131408   2.535   5.280  14.954 -0.3238 -1.5511  0.6533
 3331TIP3    H231409   2.432   5.386  14.921  1.6200  0.2263  0.1172
 3332TIP3   OH231410   4.940   6.069   0.974  0.0426  0.1245  0.3442
 3332TIP3    H131411   4.986   6.099   1.053  0.2206 -0.0927  0.3215
 3332TIP3    H231412   4.933   6.148   0.920  1.8626 -0.1643 -0.3811
 3333TIP3   OH231413   3.679   1.696  16.298 -0.2602  0.2089 -0.0202
 3333TIP3    H131414   3.636   1.640  16.363 -0.0892 -0.5695 -0.5688
 3333TIP3    H231415   3.769   1.702  16.328 -0.6187  1.4819  0.8898
 3334TIP3   OH231416   3.526   4.591   2.094  0.1452 -0.6309 -0.0269
 3334TIP3    H131417   3.484   4.561   2.175 -0.6282 -1.0302 -0.5637
 3334TIP3    H231418   3.616   4.561   2.101  0.2532 -0.1133  0.9661
 3335TIP3   OH231419   0.476   3.025  16.667  0.0598 -0.2534 -0.6750
 3335TIP3    H131420   0.546   3.091  16.671 -0.4242  0.2106  1.4867
 3335TIP3    H231421   0.438   3.035  16.580  1.3025  0.9302 -1.1198
 3336TIP3   OH231422   4.094   1.379   1.033 -0.2085 -0.3957  0.1031
 3336TIP3    H131423   4.101   1.469   1.065 -0.0063 -0.6735  0.8554
 3336TIP3    H231424   4.027   1.383   0.965 -0.3397  0.2856  0.2626
 3337TIP3   OH231425   1.694   6.244   2.900 -0.1352  0.1175 -0.0334
 3337TIP3    H131426   1.687   6.149   2.896  0.9217  0.0296 -0.1167
 3337TIP3    H231427   1.604   6.275   2.903 -0.5030 -0.8587 -0.5928
 3338TIP3   OH231428   3.402   1.173  14.436  0.4644  0.3207  0.1160
 3338TIP3    H131429   3.403   1.185  14.341  1.8244  1.4172  0.2333
 3338TIP3    H231430   3.319   1.211  14.464 -0.3868 -0.8702 -0.7148
 3339TIP3   OH231431   5.995   6.068   3.951 -0.0330  0.4392 -0.4725
 3339TIP3    H131432   5.999   5.999   3.886  0.3115 -0.5870  0.6013
 3339TIP3    H231433   5.914   6.052   4.000  1.4730 -1.0926  1.7225
 3340TIP3   OH231434   4.356   3.355   5.903 -0.1948 -0.3837  0.4843
 3340TIP3    H131435   4.406   3.285   5.945  1.1722 -0.6204 -1.4088
 3340TIP3    H231436   4.412   3.385   5.832 -1.7389  1.0825 -0.1757
 3341TIP3   OH231437   0.730   0.480   2.186  0.2158  0.6519  0.1947
 3341TIP3    H131438   0.678   0.485   2.266  0.2462  0.2835  0.2392
 3341TIP3    H231439   0.820   0.479   2.216  0.4060  3.7537  0.0390
 3342TIP3   OH231440   2.958   1.839  16.605 -0.0931 -0.0316  0.1706
 3342TIP3    H131441   2.920   1.865  16.689 -1.0726 -0.7594 -0.0315
 3342TIP3    H231442   2.964   1.921  16.555 -3.4662 -0.1034 -0.5928
 3343TIP3   OH231443   3.101   0.431  14.408  0.0412  0.4234  0.0596
 3343TIP3    H131444   3.193   0.430  14.383  0.6633 -0.0178  2.1034
 3343TIP3    H231445   3.082   0.340  14.431 -0.9331  0.5020 -0.3870
 3344TIP3   OH231446   6.358   4.330  14.993 -0.3345  0.3332  0.3901
 3344TIP3    H131447   6.409   4.303  15.069 -0.0341 -0.8982 -0.2246
 3344TIP3    H231448   6.294   4.261  14.980 -0.3679  0.5100 -0.4880
 3345TIP3   OH231449   1.519   1.718  16.459  0.2141 -0.2076 -0.0793
 3345TIP3    H131450   1.577   1.649  16.491  2.6566  2.1961  1.1966
 3345TIP3    H231451   1.562   1.750  16.379 -1.7888 -1.1927 -1.6190
 3346TIP3   OH231452   6.258   1.303   1.352 -0.3894 -0.2536 -0.5472
 3346TIP3    H131453   6.305   1.279   1.272  2.1219 -0.6968  0.9628
 3346TIP3    H231454   6.304   1.257   1.422 -1.6312  1.2024  1.3416
 3347TIP3   OH231455   6.079   1.622  14.025  0.0618 -0.0184  0.2803
 3347TIP3    H131456   6.065   1.539  14.072 -0.3186  0.4360  0.9945
 3347TIP3    H231457   6.164   1.654  14.057 -0.2296  0.3260  0.7250
 3348TIP3   OH231458   4.962   6.115   1.484  0.3173 -0.5126 -0.3596
 3348TIP3    H131459   4.917   6.048   1.536  0.5469 -0.9049 -0.6593
 3348TIP3    H231460   4.914   6.196   1.502 -0.2219 -0.8395 -0.3182
 3349TIP3   OH231461   4.690   4.276   0.565 -0.0036  0.4405  0.2578
 3349TIP3    H131462   4.688   4.236   0.652  0.1607 -1.3702 -0.5351
 3349TIP3    H231463   4.765   4.335   0.567 -0.1783  0.6463  1.4239
 3350TIP3   OH231464   1.803   1.725  13.142 -0.5530  0.3139 -0.2371
 3350TIP3    H131465   1.849   1.760  13.217 -0.4936  1.9614 -1.0082
 3350TIP3    H231466   1.747   1.656  13.178  0.3361  0.2753  1.1200
 3351TIP3   OH231467   4.042   5.564  14.248  0.0867 -0.1248  0.0560
 3351TIP3    H131468   4.076   5.572  14.159 -0.8139  2.5276 -0.1453
 3351TIP3    H231469   4.062   5.474  14.274  2.0905 -0.3847 -2.0951
 3352TIP3   OH231470   2.606   0.119   3.485 -0.4753 -0.8452  0.1614
 3352TIP3    H131471   2.582   0.034   3.522 -2.1174 -0.4335  0.1069
 3352TIP3    H231472   2.607   0.179   3.560  0.5284 -0.8522  0.1756
 3353TIP3   OH231473   6.011   5.573   0.686  0.0096 -0.8731  0.0382
 3353TIP3    H131474   5.944   5.641   0.677 -0.2295 -1.2764 -1.7539
 3353TIP3    H231475   5.961   5.491   0.682  0.5998 -1.1883 -1.8629
 3354TIP3   OH231476   0.001   0.713   5.800  0.2551  0.0288  0.0088
 3354TIP3    H131477   0.066   0.660   5.753  0.6577  0.7927 -0.3049
 3354TIP3    H231478   0.020   0.698   5.892 -0.8024 -1.8174  0.0012
 3355TIP3   OH231479   2.389   3.616   2.578 -0.2110 -0.1390  0.3740
 3355TIP3    H131480   2.382   3.548   2.645 -3.7100  1.6543  2.0852
 3355TIP3    H231481   2.407   3.696   2.627 -2.6756  1.1933 -0.7244
 3356TIP3   OH231482   0.645   3.331  12.490 -0.2828  0.1766 -0.4281
 3356TIP3    H131483   0.562   3.361  12.453  0.0439  0.7881 -0.6817
 3356TIP3    H231484   0.621   3.259  12.548 -0.9978  0.3908 -0.4494
 3357TIP3   OH231485   0.271   4.047  11.568  0.1313 -0.0355  0.5300
 3357TIP3    H131486   0.255   3.957  11.541  2.3619 -0.3358 -0.0048
 3357TIP3    H231487   0.300   4.091  11.488  0.0582  0.8991  1.0045
 3358TIP3   OH231488   4.372   3.159  10.708 -0.0622 -0.4131 -0.4516
 3358TIP3    H131489   4.349   3.250  10.727 -0.3706 -0.8869  1.6317
 3358TIP3    H231490   4.318   3.137  10.632  0.7195  1.3893 -1.6254
 3359TIP3   OH231491   3.237   4.487   1.806 -0.3909  0.0588 -0.1858
 3359TIP3    H131492   3.175   4.504   1.734  0.4156  2.8113 -0.3234
 3359TIP3    H231493   3.322   4.480   1.763 -0.3765 -2.6531  0.1206
 3360TIP3   OH231494   2.124   5.277   0.481 -0.0293 -0.0536 -0.1992
 3360TIP3    H131495   2.205   5.312   0.443  0.1007 -0.8111 -0.6457
 3360TIP3    H231496   2.153   5.222   0.554 -0.2452  0.9125  0.6382
 3361TIP3   OH231497   0.485   2.746  17.111 -0.9671 -0.4040  0.2549
 3361TIP3    H131498   0.419   2.724  17.177  0.6518  0.9058  2.4322
 3361TIP3    H231499   0.535   2.665  17.101 -2.6190 -1.3261 -1.2051
 3362TIP3   OH231500   2.574   1.651  16.378 -0.1753 -0.3782 -0.2243
 3362TIP3    H131501   2.488   1.617  16.403 -0.6759  1.1508  0.2368
 3362TIP3    H231502   2.556   1.716  16.310  0.8606 -1.8040 -1.9318
 3363TIP3   OH231503   5.537   4.151  14.746  0.5532 -0.0817 -0.3479
 3363TIP3    H131504   5.474   4.088  14.711  1.5159 -1.4039  0.2054
 3363TIP3    H231505   5.565   4.201  14.670 -0.7563  0.1790 -0.6854
 3364TIP3   OH231506   1.732   6.432   5.479 -0.3564  0.2737 -0.9981
 3364TIP3    H131507   1.775   6.484   5.411 -0.0457  1.2043 -0.1181
 3364TIP3    H231508   1.692   6.497   5.537 -0.1885 -0.4863 -0.0071
 3365TIP3   OH231509   2.066   0.393  16.330 -0.2933 -0.1382  0.4864
 3365TIP3    H131510   2.043   0.379  16.422 -1.1159  1.5610  0.5859
 3365TIP3    H231511   2.026   0.477  16.308  0.2602 -0.2995 -1.3126
 3366TIP3   OH231512   1.636   6.127   4.043 -0.2656  0.2565  0.1161
 3366TIP3    H131513   1.579   6.197   4.075 -0.8713 -0.9718  1.8551
 3366TIP3    H231514   1.627   6.057   4.107  1.6878 -0.7619 -0.6325
 3367TIP3   OH231515   2.428   0.018   3.209  0.2602  0.2509  0.7381
 3367TIP3    H131516   2.339   0.002   3.239  0.2605  0.3823  0.8076
 3367TIP3    H231517   2.483  -0.009   3.283  0.2086  2.0590  1.4836
 3368TIP3   OH231518   4.156   4.568   4.232 -0.3990 -0.1646  0.1932
 3368TIP3    H131519   4.147   4.499   4.298  0.3883 -0.5114 -0.0495
 3368TIP3    H231520   4.225   4.625   4.267  0.4353 -0.6680 -0.5824
 3369TIP3   OH231521   5.595   1.327   3.176 -0.0265  0.4437  0.8750
 3369TIP3    H131522   5.671   1.287   3.134 -0.3779  0.8086 -0.1449
 3369TIP3    H231523   5.616   1.420   3.181 -0.3200  0.5170  0.7797
 3370TIP3   OH231524   3.633   2.676  15.176 -0.0682  0.3473 -0.7191
 3370TIP3    H131525   3.654   2.591  15.216  0.8658 -0.6262 -3.0999
 3370TIP3    H231526   3.559   2.708  15.227  0.0004 -1.5480  0.7145
 3371TIP3   OH231527   2.956   3.465   0.966 -0.1597  0.3612  0.2783
 3371TIP3    H131528   2.937   3.384   1.012  0.2830  0.8522  1.3465
 3371TIP3    H231529   2.950   3.442   0.873  3.5933 -1.8977  0.3692
 3372TIP3   OH231530   4.356   6.236  12.972 -0.7171  0.2800 -0.1107
 3372TIP3    H131531   4.294   6.208  13.040  0.2896 -0.2040  0.6409
 3372TIP3    H231532   4.339   6.330  12.962 -0.6915  0.4341  1.0515
 3373TIP3   OH231533   6.377   2.070  13.468 -0.0748  0.0151  0.2560
 3373TIP3    H131534   6.365   2.070  13.563 -0.5469  2.3430  0.2454
 3373TIP3    H231535   6.453   2.014  13.453 -0.9813 -1.7612  1.8144
 3374TIP3   OH231536   0.595   6.753   4.637 -0.5959 -0.2785  0.6415
 3374TIP3    H131537   0.657   6.746   4.564 -0.5066 -0.7950  0.7634
 3374TIP3    H231538   0.545   6.832   4.618  0.0187  0.0818  0.4770
 3375TIP3   OH231539   1.659   2.474  12.315 -0.1106  0.2412  0.2332
 3375TIP3    H131540   1.705   2.391  12.329  1.1918  0.8863 -0.0325
 3375TIP3    H231541   1.728   2.541  12.320 -1.1425  1.3159  0.5173
 3376TIP3   OH231542   2.864   0.634   5.612  0.0267 -0.0549 -0.1721
 3376TIP3    H131543   2.831   0.689   5.683 -3.1323 -3.2506  1.1638
 3376TIP3    H231544   2.810   0.657   5.536  1.4089  1.3106 -0.7913
 3377TIP3   OH231545   0.607   1.016  12.319 -0.1161  0.4702 -0.5652
 3377TIP3    H131546   0.640   0.933  12.354  1.3342  0.5520 -1.6553
 3377TIP3    H231547   0.530   0.992  12.267  0.2540 -0.1740 -0.8169
 3378TIP3   OH231548   3.388   1.373  16.642 -0.4888 -0.0376 -0.4629
 3378TIP3    H131549   3.384   1.289  16.688  0.3427 -0.1688 -0.6204
 3378TIP3    H231550   3.324   1.363  16.571  1.5666 -1.6347 -2.2142
 3379TIP3   OH231551   0.812   6.425  11.523  0.2230 -0.0240 -0.4093
 3379TIP3    H131552   0.873   6.354  11.503  0.3543 -0.0734  0.1377
 3379TIP3    H231553   0.794   6.416  11.617 -0.7753 -0.1263 -0.5938
 3380TIP3   OH231554   4.214   6.299  16.921  0.4892  0.1918  0.2338
 3380TIP3    H131555   4.188   6.359  16.991 -0.1643  0.0345  0.1288
 3380TIP3    H231556   4.289   6.252  16.957 -0.2741 -0.3821  1.1047
 3381TIP3   OH231557   0.627   2.167   4.715  0.1296 -0.1488 -0.0387
 3381TIP3    H131558   0.692   2.168   4.785  0.1986 -0.1661 -0.1021
 3381TIP3    H231559   0.548   2.203   4.755 -0.0962 -1.0089  0.3068
 3382TIP3   OH231560   6.079   0.726   0.786  0.6012 -0.1237  0.5502
 3382TIP3    H131561   5.985   0.709   0.786  0.2766  1.4890  1.4329
 3382TIP3    H231562   6.096   0.764   0.699  0.2230  0.5521  0.7613
 3383TIP3   OH231563   3.871   3.128  12.423  0.4514  0.4279  0.0819
 3383TIP3    H131564   3.823   3.143  12.342  1.4400  0.2591 -0.5491
 3383TIP3    H231565   3.924   3.206  12.435  0.7984  0.1747  0.2132
 3384TIP3   OH231566   0.999   0.343   1.989 -0.6719 -0.9570 -0.0576
 3384TIP3    H131567   0.930   0.276   1.989  0.2636 -2.0825 -3.0597
 3384TIP3    H231568   1.014   0.362   1.896 -1.0736  3.7296  0.5718
 3385TIP3   OH231569   5.382   1.020  11.335 -0.4224 -0.1789  0.4842
 3385TIP3    H131570   5.371   1.082  11.407 -0.4786 -0.0674  0.3785
 3385TIP3    H231571   5.365   1.071  11.256 -0.9930 -0.4560  0.4273
 3386TIP3   OH231572   4.436   1.678  16.203  0.1885 -0.1299 -0.2855
 3386TIP3    H131573   4.419   1.585  16.219 -0.8782 -0.4308 -2.7505
 3386TIP3    H231574   4.354   1.712  16.167  0.0823  2.1738  1.8491
 3387TIP3   OH231575   0.973   0.458   4.603 -0.2065 -0.4315  0.1779
 3387TIP3    H131576   1.036   0.390   4.580  1.9309  0.7868  2.0798
 3387TIP3    H231577   1.013   0.540   4.574 -1.0363  0.3577  1.1683
 3388TIP3   OH231578   5.890   5.692  15.014 -0.3744 -0.1899  0.4948
 3388TIP3    H131579   5.927   5.719  14.930  1.0350 -4.7058 -0.6456
 3388TIP3    H231580   5.943   5.736  15.080 -0.3458  2.0669 -0.9495
 3389TIP3   OH231581   6.216   2.233   2.292 -0.2711  0.0011  0.0428
 3389TIP3    H131582   6.250   2.176   2.223  0.3800 -0.0815  0.4165
 3389TIP3    H231583   6.124   2.247   2.270 -0.5859 -1.6128  0.2305
 3390TIP3   OH231584   3.992   5.016   4.239 -0.1955  0.2348 -0.3024
 3390TIP3    H131585   3.939   5.000   4.317  0.3999 -1.5298 -0.2247
 3390TIP3    H231586   4.081   5.023   4.272 -0.0202  0.1730 -0.7547
 3391TIP3   OH231587   0.802   6.604  15.428  1.0630  0.0879  0.5034
 3391TIP3    H131588   0.816   6.698  15.420 -1.1328  0.4180  0.0927
 3391TIP3    H231589   0.875   6.565  15.380  1.6987  1.5679  0.2125
 3392TIP3   OH231590   4.882   4.933   3.194  0.3957  0.4533 -0.1775
 3392TIP3    H131591   4.826   4.965   3.265  0.0689  0.6497 -0.5204
 3392TIP3    H231592   4.824   4.877   3.142  0.1018  1.7833 -1.3526
 3393TIP3   OH231593   5.653   0.659   1.607 -0.1104  0.7733 -0.3030
 3393TIP3    H131594   5.572   0.707   1.589 -0.6051 -0.4996 -1.7714
 3393TIP3    H231595   5.661   0.598   1.533  0.2758 -1.6551  1.6270
 3394TIP3   OH231596   0.258   2.279  13.757 -0.2381  0.1942 -0.8122
 3394TIP3    H131597   0.273   2.193  13.717 -1.9851 -0.0935 -0.9072
 3394TIP3    H231598   0.257   2.261  13.851 -2.8206 -0.3520 -0.8675
 3395TIP3   OH231599   4.866   3.246  16.066 -0.0391 -0.1380  0.1652
 3395TIP3    H131600   4.821   3.223  15.984 -0.1092  0.7576 -0.0635
 3395TIP3    H231601   4.938   3.302  16.038 -0.0691  0.1793  0.7153
 3396TIP3   OH231602   5.276   5.548  17.119 -0.4160 -0.3502  0.2021
 3396TIP3    H131603   5.231   5.482  17.065 -2.3649  1.4297 -0.5167
 3396TIP3    H231604   5.263   5.630  17.071  0.2503  0.8696  2.0100
 3397TIP3   OH231605   0.404   4.742   4.948  0.0150  0.0969 -0.7677
 3397TIP3    H131606   0.478   4.790   4.985  0.0059  0.7816 -1.5990
 3397TIP3    H231607   0.331   4.804   4.949 -0.9199 -0.9346  1.1418
 3398TIP3   OH231608   4.059   5.473   0.435 -0.2318 -0.3183 -0.2520
 3398TIP3    H131609   4.113   5.438   0.364 -0.4657 -3.4735  0.9581
 3398TIP3    H231610   4.085   5.422   0.512  2.2867  4.9662  2.9131
 3399TIP3   OH231611   1.388   2.631   0.546 -0.4904 -0.5695  0.6288
 3399TIP3    H131612   1.457   2.671   0.494 -0.1175 -1.3074  0.5497
 3399TIP3    H231613   1.335   2.705   0.576 -0.2516 -0.0764 -0.1374
 3400TIP3   OH231614   4.355   1.701   2.605 -0.2046 -0.1578 -0.0387
 3400TIP3    H131615   4.289   1.633   2.623 -0.3800  0.2287  0.7998
 3400TIP3    H231616   4.346   1.718   2.511  0.0507 -1.5074 -0.3373
 3401TIP3   OH231617   4.436   1.209   0.089 -0.2461 -0.1037  0.1300
 3401TIP3    H131618   4.425   1.251   0.175 -1.0787 -0.3501  0.1550
 3401TIP3    H231619   4.350   1.172   0.070  0.5678 -2.2281  0.3358
 3402TIP3   OH231620   3.907   1.950  15.010  0.2132 -0.0170  0.9744
 3402TIP3    H131621   3.924   1.998  14.929 -0.9331 -0.5181  0.4149
 3402TIP3    H231622   3.828   1.899  14.992  0.4495 -0.8315  2.1125
 3403TIP3   OH231623   5.731   1.726  12.505  0.1110 -0.2110  0.4689
 3403TIP3    H131624   5.680   1.804  12.528 -0.4504 -0.2536 -0.5800
 3403TIP3    H231625   5.804   1.725  12.568  1.4722  2.4606 -0.9203
 3404TIP3   OH231626   5.340   4.280  15.408 -0.3907 -0.8539 -0.0350
 3404TIP3    H131627   5.425   4.311  15.440 -1.4783  0.6315  1.6114
 3404TIP3    H231628   5.279   4.304  15.477 -2.6551  0.9711 -2.4680
 3405TIP3   OH231629   0.889   3.862   6.271 -0.3797  0.1791 -0.1237
 3405TIP3    H131630   0.843   3.858   6.187 -0.6981  1.1932 -0.0090
 3405TIP3    H231631   0.845   3.797   6.326  0.0781 -0.7716 -0.8366
 3406TIP3   OH231632   0.636   4.414   3.499 -0.0592 -0.2543  0.1408
 3406TIP3    H131633   0.650   4.497   3.452  0.7767  0.2909  1.3177
 3406TIP3    H231634   0.622   4.350   3.429  1.6058  0.4485 -0.9138
 3407TIP3   OH231635   4.950   2.135  12.738 -0.2057  0.0975 -0.0412
 3407TIP3    H131636   4.876   2.115  12.680 -0.6290 -0.3800  0.6457
 3407TIP3    H231637   5.021   2.079  12.708  0.1720  1.1752 -1.2556
 3408TIP3   OH231638   2.780   5.513   4.734  0.5256 -0.2962 -0.6269
 3408TIP3    H131639   2.686   5.507   4.749  0.7078 -0.3585  0.5598
 3408TIP3    H231640   2.788   5.547   4.645 -0.6508  2.5744  0.2476
 3409TIP3   OH231641   3.338   1.470   6.583 -0.2465  0.6431  0.0229
 3409TIP3    H131642   3.347   1.540   6.649  0.8391  0.2516  0.3172
 3409TIP3    H231643   3.246   1.445   6.588 -0.0144 -0.0557  2.1351
 3410TIP3   OH231644   3.330   0.485  13.469 -0.5852  0.3797 -0.5368
 3410TIP3    H131645   3.404   0.535  13.435 -0.1923  0.1859  0.0118
 3410TIP3    H231646   3.274   0.551  13.510  0.6274  0.2762  1.4577
 3411TIP3   OH231647   4.264   4.419   0.449  0.4684  0.2718  0.0994
 3411TIP3    H131648   4.268   4.444   0.357  1.4048 -1.7270 -0.4463
 3411TIP3    H231649   4.208   4.485   0.489 -0.9553  0.4991 -2.1219
 3412TIP3   OH231650   5.258   0.641   4.584  0.1178 -0.2233  0.1397
 3412TIP3    H131651   5.189   0.705   4.570 -1.6101 -1.9412  0.3158
 3412TIP3    H231652   5.255   0.621   4.677  0.5928 -0.6168  0.0787
 3413TIP3   OH231653   5.685   3.186  13.014  0.2299  0.6530 -0.4351
 3413TIP3    H131654   5.751   3.169  13.081  0.7786  0.3427 -1.0452
 3413TIP3    H231655   5.602   3.160  13.055  0.1715  2.9309  1.0886
 3414TIP3   OH231656   0.026   2.484  11.543  0.0033 -0.0783 -0.1131
 3414TIP3    H131657   0.005   2.489  11.636  1.1706  1.0696  0.1160
 3414TIP3    H231658   0.057   2.394  11.531  0.7669  0.0388  0.8266
 3415TIP3   OH231659   6.305   0.515  16.662  0.1254  0.0643  0.0564
 3415TIP3    H131660   6.307   0.456  16.737 -2.0011 -0.8730 -0.5403
 3415TIP3    H231661   6.397   0.533  16.643  0.9481 -3.3414  0.0709
 3416TIP3   OH231662   6.475   6.493  13.413 -0.3030  0.1212  0.0319
 3416TIP3    H131663   6.403   6.431  13.423  1.5332 -1.8630  1.7701
 3416TIP3    H231664   6.481   6.537  13.497 -0.5738  1.6200 -0.6865
 3417TIP3   OH231665   1.037   4.343  11.990 -0.1268 -0.0394  0.3575
 3417TIP3    H131666   0.964   4.356  11.928  0.1013 -0.3855  0.0123
 3417TIP3    H231667   0.995   4.339  12.076 -0.6399 -1.3818  0.0600
 3418TIP3   OH231668   4.477   0.876   4.367  0.1444 -0.0747 -1.1335
 3418TIP3    H131669   4.535   0.920   4.430  0.3830 -0.0074 -1.4014
 3418TIP3    H231670   4.500   0.784   4.375  0.3232 -0.0416 -1.2793
 3419TIP3   OH231671   0.270   4.766  13.465  0.1802  0.0999  0.0630
 3419TIP3    H131672   0.183   4.788  13.432  1.2325  1.2754 -2.0678
 3419TIP3    H231673   0.276   4.812  13.549 -0.8526  0.8931 -0.2749
 3420TIP3   OH231674   1.149   0.244   5.808  0.1381 -0.2155 -0.2557
 3420TIP3    H131675   1.123   0.243   5.900 -0.6351 -1.9030 -0.4406
 3420TIP3    H231676   1.080   0.294   5.764 -0.3570 -0.7682 -0.1210
 3421TIP3   OH231677   4.396   6.620  14.411 -0.0079  0.0007  0.4648
 3421TIP3    H131678   4.389   6.659  14.498 -1.8163 -0.5908  0.6275
 3421TIP3    H231679   4.422   6.529  14.427 -1.2850 -0.3848  0.4949
 3422TIP3   OH231680   1.692   5.944   3.004  0.1060 -0.2302  0.1917
 3422TIP3    H131681   1.705   5.862   3.052  1.1474  0.0440  0.4076
 3422TIP3    H231682   1.773   5.956   2.955  0.2355  0.9948  0.6574
 3423TIP3   OH231683   0.164   5.884  16.669 -0.4255  0.1636 -0.2293
 3423TIP3    H131684   0.252   5.886  16.632 -0.5641  2.1212 -0.6059
 3423TIP3    H231685   0.108   5.919  16.599 -1.0808  1.4061  0.8601
 3424TIP3   OH231686   6.139   1.174  10.560 -0.4803 -0.2773  0.2180
 3424TIP3    H131687   6.110   1.119  10.487 -1.2898  0.4656 -0.0467
 3424TIP3    H231688   6.058   1.207  10.598 -0.0148  1.4002 -0.1666
 3425TIP3   OH231689   0.022   5.270  11.580  0.3798  0.3051 -0.5907
 3425TIP3    H131690   0.055   5.199  11.635 -1.6623 -0.6957 -0.5680
 3425TIP3    H231691   0.015   5.231  11.493 -1.5113  0.1622 -0.4261
 3426TIP3   OH231692   3.037   0.403  17.104  0.2899 -0.1659  0.0647
 3426TIP3    H131693   2.964   0.464  17.088  1.1007  1.0270  0.8072
 3426TIP3    H231694   2.994   0.319  17.123 -0.9108  0.6038  0.8850
 3427TIP3   OH231695   6.198   1.948  15.499  0.2987 -0.0777  0.0765
 3427TIP3    H131696   6.203   2.044  15.505 -0.1227 -0.0607  0.1944
 3427TIP3    H231697   6.118   1.925  15.547 -0.7559 -0.3042 -1.6742
 3428TIP3   OH231698   4.640   3.584  12.900  0.3591 -0.0891  0.0804
 3428TIP3    H131699   4.579   3.604  12.829 -0.7806  0.2884  1.1492
 3428TIP3    H231700   4.726   3.582  12.857 -0.6160 -3.9735 -2.1374
 3429TIP3   OH231701   1.881   1.296   0.872  0.0956 -0.5910 -0.5194
 3429TIP3    H131702   1.841   1.217   0.906 -0.0831 -0.6340 -0.8235
 3429TIP3    H231703   1.934   1.330   0.944  2.8092 -2.7176 -1.3398
 3430TIP3   OH231704   1.908   6.013  15.787  0.3526 -0.0520 -0.0697
 3430TIP3    H131705   1.830   6.063  15.765  1.1704  1.6452  0.6820
 3430TIP3    H231706   1.886   5.968  15.869 -0.7381 -1.7918 -1.2807
 3431TIP3   OH231707   0.966   3.909  12.676  0.3643  0.0995  0.3293
 3431TIP3    H131708   0.997   3.820  12.656 -0.3579 -0.6245  2.2316
 3431TIP3    H231709   0.882   3.895  12.720 -0.3477  1.8119 -0.4144
 3432TIP3   OH231710   3.974   6.068  11.988  0.2365 -0.2099 -0.4503
 3432TIP3    H131711   4.041   6.001  12.000  0.1610 -0.4426 -1.2774
 3432TIP3    H231712   4.018   6.139  11.942 -0.1898 -0.5703 -1.4480
 3433TIP3   OH231713   3.535   1.336   1.829 -0.3746  0.3150 -0.6171
 3433TIP3    H131714   3.574   1.413   1.870  0.2151 -0.7393  0.9205
 3433TIP3    H231715   3.463   1.370   1.776  0.1223  1.9394 -0.3068
 3434TIP3   OH231716   1.091   3.711   6.613 -0.1525  0.7894  0.2910
 3434TIP3    H131717   1.077   3.795   6.569 -0.4546  0.5774 -0.0272
 3434TIP3    H231718   1.103   3.733   6.705  2.6137  1.4615 -0.1299
 3435TIP3   OH231719   4.034   1.471  11.786  0.3833  0.5848 -0.3890
 3435TIP3    H131720   4.039   1.447  11.879 -0.8557 -1.0334 -0.6792
 3435TIP3    H231721   4.063   1.561  11.782 -0.7748  1.1193  1.7755
 3436TIP3   OH231722   2.703   3.281   1.153 -0.2266 -0.8189  0.3178
 3436TIP3    H131723   2.660   3.297   1.069 -1.1445 -1.0270  0.7401
 3436TIP3    H231724   2.759   3.205   1.137  0.1875 -0.3948 -0.3026
 3437TIP3   OH231725   2.296   1.597  16.443  0.1542  0.3309  0.3458
 3437TIP3    H131726   2.237   1.665  16.412  1.2625  0.8613 -0.6955
 3437TIP3    H231727   2.245   1.516  16.438 -0.6487  0.8527  0.0083
 3438TIP3   OH231728   2.075   0.539  16.846 -0.4959 -0.0129 -0.6373
 3438TIP3    H131729   2.002   0.600  16.859 -0.6885 -0.7066  1.8880
 3438TIP3    H231730   2.033   0.459  16.814 -0.5183  0.3640 -1.5919
 3439TIP3   OH231731   1.306   2.696   2.448  0.5162 -0.2116 -0.9972
 3439TIP3    H131732   1.289   2.762   2.516  0.7287 -0.3027 -0.8563
 3439TIP3    H231733   1.393   2.662   2.468 -0.3217 -1.8554  0.0218
 3440TIP3   OH231734   5.188   1.122   1.500  0.2512 -0.4343  0.3669
 3440TIP3    H131735   5.179   1.076   1.416  0.3021  1.6020 -0.8405
 3440TIP3    H231736   5.151   1.209   1.482  1.5894  0.5231  2.0489
 3441TIP3   OH231737   0.341   4.044   0.593 -0.1153  0.0957  0.6350
 3441TIP3    H131738   0.291   4.034   0.674 -1.0781  0.1644  0.0729
 3441TIP3    H231739   0.286   4.100   0.538  0.6130  0.2134  0.0095
 3442TIP3   OH231740   1.403   1.837  11.281 -0.1616  0.0564  0.3194
 3442TIP3    H131741   1.470   1.838  11.350  1.8283  0.4096 -1.5228
 3442TIP3    H231742   1.325   1.871  11.324  0.6487 -0.8510  2.7028
 3443TIP3   OH231743   1.449   6.732  12.323  0.2158  0.0615 -0.5478
 3443TIP3    H131744   1.441   6.699  12.413 -1.5106 -2.0710 -1.4055
 3443TIP3    H231745   1.534   6.700  12.293  0.7961  0.7735  0.2632
 3444TIP3   OH231746   2.228   5.854  16.572 -0.0714 -0.0813  0.3598
 3444TIP3    H131747   2.149   5.852  16.519 -0.7266  0.2062  1.2955
 3444TIP3    H231748   2.200   5.894  16.655  0.6702 -1.4380  1.3002
 3445TIP3   OH231749   5.178   5.827  12.504  0.1733 -0.5255 -0.1072
 3445TIP3    H131750   5.209   5.855  12.418 -1.1102  0.7123 -0.1945
 3445TIP3    H231751   5.146   5.738  12.490 -1.0382  0.0540 -1.1837
 3446TIP3   OH231752   2.199   1.894  11.349 -0.3306  0.3037 -0.4575
 3446TIP3    H131753   2.167   1.858  11.432  0.2958 -1.9790 -1.1336
 3446TIP3    H231754   2.293   1.882  11.352 -0.2749  0.4359 -1.3793
 3447TIP3   OH231755   4.023   2.681   4.020 -0.0900 -0.3792  0.1536
 3447TIP3    H131756   3.986   2.627   3.950 -0.3381  0.8047 -0.6520
 3447TIP3    H231757   4.059   2.757   3.975  0.6132 -0.0591  1.2344
 3448TIP3   OH231758   2.217   2.791   3.184 -0.5733  0.5052  0.0083
 3448TIP3    H131759   2.129   2.812   3.216 -0.3455  0.0416  0.9916
 3448TIP3    H231760   2.273   2.800   3.262  0.0203 -0.5563 -0.2826
 3449TIP3   OH231761   3.550   0.932   1.515  0.0462 -0.3674  0.2139
 3449TIP3    H131762   3.499   0.979   1.582 -0.8546 -0.9407 -0.0436
 3449TIP3    H231763   3.487   0.871   1.476  0.6267 -0.2370 -0.9740
 3450TIP3   OH231764   2.044   1.718   1.751 -0.8379 -0.6638 -0.2013
 3450TIP3    H131765   2.100   1.794   1.768 -0.7995 -1.1477  2.2406
 3450TIP3    H231766   2.104   1.648   1.726 -0.4929 -0.7298  0.7570
 3451TIP3   OH231767   2.564   1.614  12.809  0.0003 -0.1539  0.4439
 3451TIP3    H131768   2.527   1.666  12.738 -0.9885 -0.0116  1.0461
 3451TIP3    H231769   2.574   1.676  12.881  1.0942 -0.2741  0.4157
 3452TIP3   OH231770   1.035   3.951  11.190 -0.4817 -0.2443 -0.1196
 3452TIP3    H131771   0.968   3.894  11.154 -0.2919  0.5276 -1.7806
 3452TIP3    H231772   1.111   3.895  11.202 -0.8012 -0.6888 -0.1695
 3453TIP3   OH231773   0.451   1.019   3.162  0.0374 -0.2363 -0.1231
 3453TIP3    H131774   0.363   0.981   3.158  0.0916 -0.2841 -2.4018
 3453TIP3    H231775   0.439   1.112   3.141  0.4259  0.0070  0.6744
 3454TIP3   OH231776   3.060   3.360   4.388  1.0484 -0.5660  0.4871
 3454TIP3    H131777   3.059   3.305   4.310 -0.1311  0.6948 -0.4389
 3454TIP3    H231778   3.000   3.318   4.449 -0.1756 -0.1271 -0.3733
 3455TIP3   OH231779   2.960   3.769   3.467 -0.2727  0.1906  0.3347
 3455TIP3    H131780   2.914   3.721   3.398 -0.5592 -0.1046  0.7270
 3455TIP3    H231781   2.941   3.720   3.547  0.4868  0.2281  0.5464
 3456TIP3   OH231782   5.850   4.102  16.655  1.1475 -1.1383  0.2925
 3456TIP3    H131783   5.878   4.131  16.568 -0.0487 -2.1672 -0.4799
 3456TIP3    H231784   5.906   4.026  16.674  2.6141  0.1155  1.2434
 3457TIP3   OH231785   3.685   1.299  15.812 -0.5351 -0.3918 -0.3620
 3457TIP3    H131786   3.768   1.268  15.777  0.2527  0.6985  0.4876
 3457TIP3    H231787   3.694   1.289  15.907 -0.6855  1.2926 -0.1330
 3458TIP3   OH231788   3.813   2.137   1.856  0.6298  0.1173  0.1382
 3458TIP3    H131789   3.758   2.109   1.930  1.1991  2.0467  1.3627
 3458TIP3    H231790   3.877   2.067   1.846  0.3640 -0.3150  1.2984
 3459TIP3   OH231791   6.247   1.755   5.967  0.1934  0.4699  0.1649
 3459TIP3    H131792   6.333   1.741   6.008  0.0334 -1.9671 -0.2024
 3459TIP3    H231793   6.250   1.704   5.886 -1.1511  1.4447 -0.5301
 3460TIP3   OH231794   2.899   3.950  11.073  0.2229  0.9200  0.2907
 3460TIP3    H131795   2.859   3.972  10.988  0.7933  0.5644 -0.0751
 3460TIP3    H231796   2.886   3.856  11.082  3.4869  0.1820 -1.2177
 3461TIP3   OH231797   0.777   0.730   2.063 -0.2966 -0.9496  0.2196
 3461TIP3    H131798   0.761   0.646   2.106 -1.6445 -1.7628 -1.7306
 3461TIP3    H231799   0.843   0.711   1.997 -1.6499 -0.8615 -1.2112
 3462TIP3   OH231800   0.137   0.778  12.293  0.0457  0.2848 -0.1230
 3462TIP3    H131801   0.048   0.770  12.259 -0.9844  3.1579  1.5357
 3462TIP3    H231802   0.125   0.790  12.387  2.1319  1.4747  0.0496
 3463TIP3   OH231803   6.677   5.862  13.668 -0.2859  0.3356  0.1350
 3463TIP3    H131804   6.608   5.807  13.632 -0.8208 -0.8587  2.7807
 3463TIP3    H231805   6.744   5.801  13.699  1.3555  1.4163 -1.0937
 3464TIP3   OH231806   1.546   3.864  15.676  0.0923 -0.0525  0.1139
 3464TIP3    H131807   1.543   3.843  15.769 -3.4094  2.6910  0.8141
 3464TIP3    H231808   1.616   3.929  15.668  0.1579 -0.0248  0.9110
 3465TIP3   OH231809   4.081   5.854  11.470  0.4124  0.3220  0.1703
 3465TIP3    H131810   4.141   5.781  11.455 -0.0635 -0.4826  1.9337
 3465TIP3    H231811   4.129   5.931  11.438  1.2897 -0.6185 -0.8705
 3466TIP3   OH231812   4.769   2.109   6.090 -0.3669  0.0983  0.2764
 3466TIP3    H131813   4.684   2.075   6.062 -0.3638  0.0232  0.3582
 3466TIP3    H231814   4.824   2.031   6.100 -0.1550  0.1782 -0.2261
 3467TIP3   OH231815   1.968   1.085   5.884 -0.7880 -0.2344  0.0814
 3467TIP3    H131816   1.961   0.990   5.895 -2.7903 -0.0991  0.3718
 3467TIP3    H231817   1.994   1.117   5.970  1.3964 -0.5860 -0.3827
 3468TIP3   OH231818   0.783   3.059  13.136 -0.0785 -0.4295  0.4973
 3468TIP3    H131819   0.744   3.042  13.050  0.4753 -2.4666  0.6072
 3468TIP3    H231820   0.786   2.974  13.179  2.4733 -0.0159  1.3449
 3469TIP3   OH231821   5.129   4.989  12.999  0.2794 -0.1084  0.2984
 3469TIP3    H131822   5.181   4.947  12.930 -0.7366 -0.1411 -0.4804
 3469TIP3    H231823   5.128   5.082  12.975 -0.3264 -0.1644  0.1012
 3470TIP3   OH231824   3.364   0.483  14.376 -0.2384  0.2617 -0.1024
 3470TIP3    H131825   3.378   0.501  14.283 -1.0003 -0.7582 -0.4308
 3470TIP3    H231826   3.322   0.562  14.410 -0.4298  0.4388 -0.7399
 3471TIP3   OH231827   0.625   5.194   1.937  1.1690  0.1855 -0.1209
 3471TIP3    H131828   0.691   5.260   1.960  1.5014  0.0315 -0.6214
 3471TIP3    H231829   0.645   5.171   1.846  0.8151 -0.3244 -0.0716
 3472TIP3   OH231830   5.090   2.355   0.031  0.2075 -0.0118 -0.7676
 3472TIP3    H131831   5.066   2.348  -0.061 -2.2710  0.1233 -0.2006
 3472TIP3    H231832   5.086   2.265   0.064  0.3521  0.0301 -0.6347
 3473TIP3   OH231833   6.139   5.792  11.351  0.1095 -0.2854 -0.4817
 3473TIP3    H131834   6.128   5.713  11.404  0.0114  0.7745  1.1377
 3473TIP3    H231835   6.125   5.864  11.412  2.6465  1.0399 -1.3191
 3474TIP3   OH231836   0.238   5.171  12.478  0.0791  0.3210 -0.1843
 3474TIP3    H131837   0.222   5.150  12.386  0.8400  3.0436 -1.0352
 3474TIP3    H231838   0.306   5.110  12.506 -2.4983 -2.8762 -0.2806
 3475TIP3   OH231839   5.608   1.909   2.508 -0.3837  0.2808 -0.3725
 3475TIP3    H131840   5.598   1.954   2.591  1.2284 -0.2051  0.1172
 3475TIP3    H231841   5.565   1.825   2.520 -0.9894  0.5909 -0.3612
 3476TIP3   OH231842   2.779   3.986  16.097 -0.6270  0.3534 -0.1809
 3476TIP3    H131843   2.872   3.996  16.075 -0.8939  0.0756 -1.5156
 3476TIP3    H231844   2.779   3.949  16.185  0.5303  0.2358 -0.2178
 3477TIP3   OH231845   2.585   6.090   0.915  0.9551 -0.1306  0.2759
 3477TIP3    H131846   2.547   6.115   0.831  2.4019 -2.7820 -1.2913
 3477TIP3    H231847   2.511   6.060   0.967 -0.0925  2.3994  0.4222
 3478TIP3   OH231848   2.639   4.769   4.364  0.7137  0.3515 -0.2974
 3478TIP3    H131849   2.622   4.776   4.458 -0.3714  0.4877 -0.4874
 3478TIP3    H231850   2.711   4.830   4.348  0.5008  0.7796  0.3451
 3479TIP3   OH231851   0.343   6.324  12.553  0.8987  0.2334  0.1679
 3479TIP3    H131852   0.397   6.334  12.475  1.3364 -0.0352  0.4378
 3479TIP3    H231853   0.382   6.251  12.601 -0.0442 -0.3450  0.0738
 3480TIP3   OH231854   4.447   6.640   3.302 -0.4413 -0.0745  0.3330
 3480TIP3    H131855   4.371   6.615   3.249  0.0648 -1.7146  0.3414
 3480TIP3    H231856   4.518   6.587   3.267 -0.0767 -1.1778  2.6281
 3481TIP3   OH231857   3.831   6.567   1.762  0.1163 -0.4820  0.4069
 3481TIP3    H131858   3.802   6.483   1.725  1.7349 -0.8985 -0.0185
 3481TIP3    H231859   3.806   6.562   1.854  1.3121 -2.0255  0.7003
 3482TIP3   OH231860   0.432   5.767  12.063  0.5425 -0.9611  0.0784
 3482TIP3    H131861   0.426   5.801  11.974  0.8299 -1.5308 -0.1595
 3482TIP3    H231862   0.369   5.695  12.065 -0.7515  0.1294  0.8499
 3483TIP3   OH231863   6.371   6.350   2.406 -0.0553  0.0313 -0.8221
 3483TIP3    H131864   6.340   6.439   2.394  1.9257  0.4074 -4.8425
 3483TIP3    H231865   6.454   6.359   2.453 -0.8327  0.0503  0.5825
 3484TIP3   OH231866   2.529   2.155   3.878  0.3773 -0.9434  0.3858
 3484TIP3    H131867   2.540   2.210   3.800  0.4484 -0.6798  0.5810
 3484TIP3    H231868   2.617   2.123   3.896  0.4348 -0.6588  0.6111
 3485TIP3   OH231869   0.717   6.421  11.815  0.1415 -0.4303  0.2030
 3485TIP3    H131870   0.741   6.513  11.809 -0.6910 -0.1077  1.4408
 3485TIP3    H231871   0.638   6.420  11.869 -1.9192 -1.5464 -2.5883
 3486TIP3   OH231872   3.809   0.503  15.903  0.5074  0.1743 -0.5117
 3486TIP3    H131873   3.844   0.417  15.928  2.6966  0.6017 -1.8519
 3486TIP3    H231874   3.871   0.566  15.939 -0.7184  1.1871 -0.1030
 3487TIP3   OH231875   3.318   1.690  12.152 -0.3917  0.0039 -0.1821
 3487TIP3    H131876   3.256   1.628  12.115 -0.7126 -0.3137  0.8541
 3487TIP3    H231877   3.278   1.718  12.235 -0.5182  1.9940 -0.8465
 3488TIP3   OH231878   1.671   2.915   4.135  0.2770 -0.0426  0.3619
 3488TIP3    H131879   1.670   2.953   4.223  1.2974 -2.3510  1.4430
 3488TIP3    H231880   1.754   2.943   4.098 -0.4289  1.4641 -0.1766
 3489TIP3   OH231881   6.780   2.454   0.636 -0.1092 -0.0218  0.5204
 3489TIP3    H131882   6.766   2.508   0.714  1.6941  0.8096  0.3337
 3489TIP3    H231883   6.842   2.505   0.583 -1.5538 -0.3984 -1.6512
 3490TIP3   OH231884   3.894   1.763  12.251 -0.1777  0.2494 -0.8430
 3490TIP3    H131885   3.865   1.674  12.270 -0.2506  0.1525 -1.3989
 3490TIP3    H231886   3.984   1.767  12.284 -0.3557  0.1363 -0.3386
 3491TIP3   OH231887   1.241   5.659   2.670 -0.2079  0.1119  0.1710
 3491TIP3    H131888   1.167   5.713   2.643 -0.1012 -0.0228 -0.3984
 3491TIP3    H231889   1.222   5.635   2.761 -2.0287 -1.8787 -0.6618
 3492TIP3   OH231890   2.099   6.267  13.173  0.3749  0.8587  0.0499
 3492TIP3    H131891   2.027   6.327  13.157  0.1619  0.0352 -2.5028
 3492TIP3    H231892   2.169   6.297  13.116  0.1926 -1.3417 -1.4587
 3493TIP3   OH231893   2.733   4.668  15.670  0.3654  0.1331 -0.5360
 3493TIP3    H131894   2.804   4.656  15.732  0.9452  1.9403 -0.7951
 3493TIP3    H231895   2.654   4.667  15.724  0.6449 -0.8941 -0.1259
 3494TIP3   OH231896   3.164   4.778   5.824 -0.4082  0.7103  0.4647
 3494TIP3    H131897   3.081   4.805   5.784 -0.2299  0.7240  0.1065
 3494TIP3    H231898   3.231   4.828   5.778 -0.2706  1.4302  1.4152
 3495TIP3   OH231899   3.057   5.285   2.756  0.0918 -0.3703 -0.2530
 3495TIP3    H131900   2.990   5.275   2.689 -0.1522  0.9595 -0.2429
 3495TIP3    H231901   3.026   5.231   2.829 -1.0365  0.2804 -0.2200
 3496TIP3   OH231902   6.693   4.458   3.016  0.3298  0.2598 -0.3837
 3496TIP3    H131903   6.648   4.539   2.995  0.1578  0.3696  0.3938
 3496TIP3    H231904   6.625   4.390   3.011  0.3475  0.2447 -0.4298
 3497TIP3   OH231905   5.106   1.252  16.765 -0.3285 -0.1150  0.2829
 3497TIP3    H131906   5.194   1.246  16.803 -0.0069  2.1424 -0.0126
 3497TIP3    H231907   5.048   1.261  16.840  0.1520  2.6522  0.4260
 3498TIP3   OH231908   3.881   1.622  10.709 -0.2262  0.2041 -0.2960
 3498TIP3    H131909   3.900   1.596  10.619  0.9224  0.0401 -0.0164
 3498TIP3    H231910   3.823   1.698  10.700 -0.0415  0.2546 -1.1721
 3499TIP3   OH231911   5.285   0.389  16.718  0.2627  0.1859 -0.0033
 3499TIP3    H131912   5.199   0.370  16.681  1.3227 -1.4085 -1.8086
 3499TIP3    H231913   5.327   0.303  16.728  1.5605  0.8962  1.0948
 3500TIP3   OH231914   0.426   4.594  13.163 -0.1287 -0.4440  0.0066
 3500TIP3    H131915   0.468   4.620  13.081  1.9553 -0.4194  1.0223
 3500TIP3    H231916   0.497   4.589  13.226 -1.6825 -0.4120  1.8584
 3501TIP3   OH231917   3.002   0.813  16.033 -0.0576 -0.4248 -0.6616
 3501TIP3    H131918   2.931   0.842  15.976 -0.1342  0.9957  0.1340
 3501TIP3    H231919   2.958   0.775  16.109  0.0433 -0.4831 -0.6304
 3502TIP3   OH231920   5.300   6.676   2.742  0.0233  0.4062 -0.0154
 3502TIP3    H131921   5.255   6.760   2.729  0.4097  0.5375 -0.5189
 3502TIP3    H231922   5.289   6.630   2.658  1.9086  0.9590 -0.6251
 3503TIP3   OH231923   0.690   4.083   3.605 -0.1741 -0.1901 -0.1927
 3503TIP3    H131924   0.751   4.021   3.564  0.0627 -0.6897  0.8920
 3503TIP3    H231925   0.640   4.119   3.532  0.1444 -1.1655 -0.9098
 3504TIP3   OH231926   2.541   5.256  12.834 -0.0208 -0.5822  0.6471
 3504TIP3    H131927   2.461   5.204  12.828 -0.0339 -0.7362  1.8661
 3504TIP3    H231928   2.511   5.347  12.836 -0.0366 -0.5313 -0.8128
 3505TIP3   OH231929   6.601   2.534   4.640  0.4552 -0.3453 -0.4544
 3505TIP3    H131930   6.629   2.561   4.727 -2.1055  1.9572 -0.2216
 3505TIP3    H231931   6.582   2.440   4.649 -1.2923  0.1462  1.9630
 3506TIP3   OH231932   3.204   2.571  15.846  0.0315 -0.5004  0.0352
 3506TIP3    H131933   3.199   2.609  15.758 -1.0880 -1.3026 -0.2587
 3506TIP3    H231934   3.195   2.647  15.905 -0.3703 -0.0931 -0.5397
 3507TIP3   OH231935   2.400   6.284  16.985 -0.0917 -0.2661 -0.4174
 3507TIP3    H131936   2.436   6.195  16.992 -1.5773 -0.8949 -0.5553
 3507TIP3    H231937   2.314   6.279  17.026  0.4503  1.5359  1.1061
 3508TIP3   OH231938   2.803   1.495   4.055 -0.2059 -0.1715 -0.6665
 3508TIP3    H131939   2.730   1.552   4.078 -0.4326 -0.4317 -0.7444
 3508TIP3    H231940   2.764   1.423   4.007 -0.2491 -1.5969  1.3817
 3509TIP3   OH231941   5.883   3.195  12.378 -0.2765  0.3074  0.2408
 3509TIP3    H131942   5.846   3.279  12.352 -1.5379 -0.2953  0.0425
 3509TIP3    H231943   5.938   3.216  12.454 -0.3021  1.3540 -0.0213
 3510TIP3   OH231944   4.581   3.684  16.155  0.0888  0.5057  0.0475
 3510TIP3    H131945   4.492   3.662  16.185 -0.7510  1.2595 -1.7335
 3510TIP3    H231946   4.606   3.611  16.098  0.5466  0.3740  0.4161
 3511TIP3   OH231947   0.097   4.017   4.838 -0.4688 -0.1864  0.6424
 3511TIP3    H131948   0.010   4.042   4.806 -0.1270 -0.9070 -0.9286
 3511TIP3    H231949   0.147   4.098   4.836 -0.8241  0.0384  0.6444
 3512TIP3   OH231950   4.955   2.014   1.922  0.1123  0.5677 -0.0548
 3512TIP3    H131951   5.019   2.066   1.873  0.5936  0.0186 -0.0170
 3512TIP3    H231952   4.884   2.076   1.941  2.9236  2.9707  4.7254
 3513TIP3   OH231953   5.232   4.100  12.795 -0.8256  0.0309 -0.5411
 3513TIP3    H131954   5.153   4.152  12.809 -1.1318 -0.3161 -0.9344
 3513TIP3    H231955   5.283   4.110  12.875 -1.7184 -0.5205  0.1076
 3514TIP3   OH231956   6.285   1.400  14.939  0.0511  0.2563  0.1045
 3514TIP3    H131957   6.293   1.404  15.034  0.1403  0.5808  0.0866
 3514TIP3    H231958   6.193   1.382  14.922  0.2804 -1.1892  0.2780
 3515TIP3   OH231959   5.490   3.138  10.985 -0.2166 -0.7262  0.6870
 3515TIP3    H131960   5.402   3.176  10.991 -0.2933 -0.7982  0.1323
 3515TIP3    H231961   5.504   3.127  10.891 -0.1984 -2.0783  0.8280
 3516TIP3   OH231962   0.656   6.203   2.370 -0.3580  0.5373 -0.2365
 3516TIP3    H131963   0.664   6.235   2.280 -0.0071 -2.2385 -1.2745
 3516TIP3    H231964   0.564   6.218   2.393 -0.0870  2.7495 -0.3962
 3517TIP3   OH231965   6.181   4.512   4.501 -0.5992  0.2651  0.3536
 3517TIP3    H131966   6.168   4.607   4.513 -0.8000  0.6880 -2.5009
 3517TIP3    H231967   6.254   4.506   4.439 -0.9833 -1.4196  0.0299
 3518TIP3   OH231968   1.079   2.780  13.347  0.1797  0.1627  0.0652
 3518TIP3    H131969   0.989   2.794  13.317  0.1765  1.5278  0.6211
 3518TIP3    H231970   1.133   2.817  13.277  0.1958  2.3493  1.1464
 3519TIP3   OH231971   0.858   6.244   4.263 -0.0090 -0.1527  0.4804
 3519TIP3    H131972   0.814   6.280   4.186  1.0055 -1.3675 -0.7130
 3519TIP3    H231973   0.805   6.274   4.337 -1.7578 -0.0433 -0.7668
 3520TIP3   OH231974   4.833   3.478  10.985 -0.2407 -0.0022 -0.6471
 3520TIP3    H131975   4.861   3.538  11.054  2.1638  1.0440 -2.3975
 3520TIP3    H231976   4.808   3.535  10.912  0.0794 -1.0943 -1.6397
 3521TIP3   OH231977   1.926   4.414  14.261  0.4594  0.0706  0.0995
 3521TIP3    H131978   1.849   4.361  14.240 -0.1636  1.1219 -0.3577
 3521TIP3    H231979   1.970   4.428  14.177  1.1630 -0.5175  0.3548
 3522TIP3   OH231980   2.301   1.513   4.626  0.1860 -0.0113 -0.2367
 3522TIP3    H131981   2.284   1.599   4.588 -1.8028 -0.3771 -0.3098
 3522TIP3    H231982   2.235   1.504   4.696 -0.7069 -2.0436 -1.2339
 3523TIP3   OH231983   2.512   5.632   5.637  0.4706  0.5342  0.2076
 3523TIP3    H131984   2.565   5.699   5.595 -1.3568  2.6678  1.1225
 3523TIP3    H231985   2.449   5.605   5.570 -0.4441  1.6851  0.5571
 3524TIP3   OH231986   4.229   3.945   4.101 -0.2351 -0.0392  0.2639
 3524TIP3    H131987   4.148   3.919   4.058  0.4336 -0.0708 -1.0280
 3524TIP3    H231988   4.298   3.905   4.049  0.6169 -0.1695  1.4525
 3525TIP3   OH231989   1.462   3.340  14.312 -0.1697  0.3360  0.2092
 3525TIP3    H131990   1.507   3.257  14.326  1.0842  0.6045 -1.9350
 3525TIP3    H231991   1.508   3.402  14.369 -0.8095 -0.2961  1.4592
 3526TIP3   OH231992   4.932   5.789   0.674  0.4679  0.4628  0.0997
 3526TIP3    H131993   4.977   5.757   0.596  0.2664  2.5925 -0.9630
 3526TIP3    H231994   5.002   5.809   0.736  0.7811  0.6464 -0.3104
 3527TIP3   OH231995   0.079   6.276  12.470 -0.2083 -0.5071 -0.9030
 3527TIP3    H131996   0.112   6.192  12.437  0.0923  0.2008 -2.4816
 3527TIP3    H231997   0.158   6.326  12.492 -0.3874 -0.6297  0.0789
 3528TIP3   OH231998   5.757   5.816   0.956 -0.2087 -0.4931  0.1178
 3528TIP3    H131999   5.791   5.856   1.036  0.4839 -0.0280 -0.3992
 3528TIP3    H232000   5.742   5.724   0.979 -0.1746 -0.3250  0.8232
 3529TIP3   OH232001   5.037   1.029  11.717 -0.2290 -0.0659 -0.4287
 3529TIP3    H132002   4.968   1.088  11.749 -1.3959 -0.3493 -2.2867
 3529TIP3    H232003   5.061   1.064  11.632  1.0468 -0.7123 -0.3549
 3530TIP3   OH232004   6.151   4.170  11.247  0.6020  0.0433 -0.2860
 3530TIP3    H132005   6.073   4.216  11.278  0.1497 -1.1122  0.3468
 3530TIP3    H232006   6.120   4.082  11.225  1.7878 -0.5591  0.3364
 3531TIP3   OH232007   2.622   1.781  14.535  0.1699  0.1416 -0.2652
 3531TIP3    H132008   2.664   1.826  14.610  0.4572  1.4317 -1.1599
 3531TIP3    H232009   2.670   1.699  14.527  0.4314  0.1807  0.6910
 3532TIP3   OH232010   3.726   0.907  14.849  0.0927  0.4432 -0.2158
 3532TIP3    H132011   3.786   0.980  14.834  1.2270  0.0715  2.1464
 3532TIP3    H232012   3.781   0.836  14.880 -1.2121 -0.9261 -0.8951
 3533TIP3   OH232013   1.656   0.066  13.893 -0.1633  0.3441  0.1971
 3533TIP3    H132014   1.690  -0.010  13.940 -1.5160  1.1290  2.6034
 3533TIP3    H232015   1.578   0.033  13.848  0.8098 -0.2779 -1.0906
 3534TIP3   OH232016   0.106   5.165   5.753  0.1546  0.0583 -0.3379
 3534TIP3    H132017   0.106   5.260   5.764  0.8193  0.3066 -2.1758
 3534TIP3    H232018   0.121   5.131   5.841 -1.5881  1.5832  0.6183
 3535TIP3   OH232019   6.376   4.587  16.314  0.0844  0.3708  0.1473
 3535TIP3    H132020   6.453   4.641  16.297 -0.7420  0.7427 -3.0013
 3535TIP3    H232021   6.394   4.504  16.270 -1.0599  0.2668 -0.1695
 3536TIP3   OH232022   6.032   4.304  14.208 -0.5877  0.1080 -0.1094
 3536TIP3    H132023   5.993   4.367  14.269 -0.4909 -0.2516  0.3305
 3536TIP3    H232024   6.080   4.359  14.145 -1.6039  0.5406 -0.5294
 3537TIP3   OH232025   3.779   6.539   4.739  0.1262 -0.2957 -0.2649
 3537TIP3    H132026   3.701   6.503   4.698  0.2604 -1.4208  0.4375
 3537TIP3    H232027   3.754   6.628   4.764 -0.5552 -0.2541 -1.0580
 3538TIP3   OH232028   5.560   0.929   4.522  0.0519  0.0229 -0.0890
 3538TIP3    H132029   5.544   0.837   4.544 -0.9390  0.1280 -0.3055
 3538TIP3    H232030   5.473   0.969   4.526  0.5139  1.0044  0.2333
 3539TIP3   OH232031   3.540   6.484  13.184 -0.2235 -0.4656  0.1716
 3539TIP3    H132032   3.592   6.483  13.104  1.9159  0.0244  1.4680
 3539TIP3    H232033   3.599   6.448  13.251 -1.2628  0.8748  1.8861
 3540TIP3   OH232034   2.356   1.559   6.319  0.5212  0.2950 -0.0477
 3540TIP3    H132035   2.379   1.556   6.226 -1.3499 -2.5965 -0.5490
 3540TIP3    H232036   2.428   1.606   6.360  3.3351 -1.5673 -2.4578
 3541TIP3   OH232037   1.592   1.322  14.017 -0.7096  0.1799  0.2218
 3541TIP3    H132038   1.594   1.374  14.098  1.5862  0.3861  0.1115
 3541TIP3    H232039   1.581   1.232  14.047 -3.1193  0.5097  0.5125
 3542TIP3   OH232040   2.779   3.087  12.963  0.2440 -0.3196 -0.1100
 3542TIP3    H132041   2.816   3.072  13.050  0.3143  1.8445  0.2666
 3542TIP3    H232042   2.790   3.002  12.919  0.2961 -1.4401  1.9166
 3543TIP3   OH232043   3.242   3.945  15.396  0.2240 -0.2096 -0.3915
 3543TIP3    H132044   3.289   3.901  15.325  0.9663  0.2991 -0.2202
 3543TIP3    H232045   3.203   3.874  15.447  0.0205 -0.5934 -1.0770
 3544TIP3   OH232046   3.117   2.232  13.727  0.6886 -0.0365 -0.3073
 3544TIP3    H132047   3.028   2.265  13.740  0.1698 -1.6371  0.4737
 3544TIP3    H232048   3.106   2.154  13.673  1.4656 -0.9398  0.7993
 3545TIP3   OH232049   6.519   0.690  13.503 -0.9203 -0.3096  0.0047
 3545TIP3    H132050   6.523   0.651  13.590 -1.0999 -1.6035 -0.5538
 3545TIP3    H232051   6.540   0.618  13.443  1.1815  0.9759 -0.9369
 3546TIP3   OH232052   3.554   1.229   2.589 -0.0984  0.3882 -0.0156
 3546TIP3    H132053   3.512   1.153   2.549  1.0057 -0.3433  0.1672
 3546TIP3    H232054   3.565   1.204   2.681  2.3426 -0.1990 -0.4107
 3547TIP3   OH232055   6.611   5.010  15.184 -0.0095  0.3048 -0.1764
 3547TIP3    H132056   6.570   5.039  15.265 -0.9667  1.0019 -0.8770
 3547TIP3    H232057   6.564   4.930  15.161  0.5951 -0.1636  0.2057
 3548TIP3   OH232058   3.820   6.285  14.472  0.3783  0.0236 -0.6579
 3548TIP3    H132059   3.837   6.366  14.423  0.2122  0.1244 -0.5501
 3548TIP3    H232060   3.838   6.215  14.409  1.6625  0.1057 -0.4110
 3549TIP3   OH232061   2.252   0.516  12.062 -0.6739 -0.1435 -0.0221
 3549TIP3    H132062   2.234   0.611  12.060  0.6037  0.1479  1.2961
 3549TIP3    H232063   2.324   0.504  12.001 -0.2739 -0.1335  0.4467
 3550TIP3   OH232064   6.670   2.548   0.138  0.3750  0.5197  0.1236
 3550TIP3    H132065   6.694   2.485   0.070  2.4027  0.2290  1.0411
 3550TIP3    H232066   6.580   2.525   0.160  0.3405 -0.6608 -1.0645
 3551TIP3   OH232067   5.999   6.590   5.946 -0.4721  0.1628 -0.2631
 3551TIP3    H132068   6.066   6.526   5.919 -0.0773  0.3562  0.2475
 3551TIP3    H232069   5.996   6.583   6.041  0.3320  1.6329 -0.1032
 3552TIP3   OH232070   1.128   4.151  13.675  0.1596  0.1321 -0.1877
 3552TIP3    H132071   1.068   4.095  13.625 -1.1851  0.1886  1.3105
 3552TIP3    H232072   1.120   4.237  13.634 -2.5825  0.7211  1.3317
 3553TIP3   OH232073   6.489   0.250   0.173 -0.2328  0.1253 -0.1789
 3553TIP3    H132074   6.417   0.197   0.207 -2.0554  1.6343 -1.4178
 3553TIP3    H232075   6.513   0.209   0.090 -0.8611  0.5472 -0.5820
 3554TIP3   OH232076   3.953   2.728  15.045 -0.2819  0.1131  0.3757
 3554TIP3    H132077   3.932   2.666  15.115  0.7181  0.5685  1.1020
 3554TIP3    H232078   3.967   2.674  14.968  0.3665 -0.5638  0.9514
 3555TIP3   OH232079   6.332   6.768  13.517  0.2397  0.0036  0.4260
 3555TIP3    H132080   6.245   6.781  13.480  1.0131  1.1310 -1.1080
 3555TIP3    H232081   6.358   6.681  13.488  0.6011  0.6483 -1.2624
 3556TIP3   OH232082   3.941   1.639   1.775 -0.6469  0.0717 -0.0017
 3556TIP3    H132083   4.034   1.654   1.758 -0.1473 -1.7539  0.8321
 3556TIP3    H232084   3.931   1.543   1.770 -2.3300  0.1763  0.6838
 3557TIP3   OH232085   6.240   4.469   4.935  0.3454 -0.0425  0.3000
 3557TIP3    H132086   6.221   4.560   4.958  2.9522  0.5353  0.4208
 3557TIP3    H232087   6.308   4.442   4.996 -0.1669 -2.0025  0.0605
 3558TIP3   OH232088   0.087   4.884  14.133 -0.3066  0.1372 -0.5425
 3558TIP3    H132089   0.133   4.845  14.207  0.8047  2.2475 -0.0379
 3558TIP3    H232090   0.156   4.906  14.070 -1.0753 -0.2321 -1.5494
 3559TIP3   OH232091   1.484   1.167   0.264  1.1780 -0.0885 -0.5029
 3559TIP3    H132092   1.507   1.260   0.270 -1.2372  0.4815  1.5242
 3559TIP3    H232093   1.388   1.166   0.262  1.1411 -2.5171 -1.9619
 3560TIP3   OH232094   3.969   0.590   3.344  0.2970  0.4787 -0.0211
 3560TIP3    H132095   3.984   0.634   3.260 -1.1954 -2.2337 -1.8873
 3560TIP3    H232096   4.040   0.527   3.351 -0.3176 -0.2238  0.0290
 3561TIP3   OH232097   5.469   2.867   6.469  0.2661 -0.3898 -0.1515
 3561TIP3    H132098   5.556   2.908   6.472  0.1885 -0.2608  1.1201
 3561TIP3    H232099   5.431   2.897   6.386  1.5827 -0.7780 -0.9196
 3562TIP3   OH232100   6.297   5.242   3.781 -0.3228 -0.3726  0.2321
 3562TIP3    H132101   6.324   5.206   3.866 -0.2100 -2.6934 -0.7290
 3562TIP3    H232102   6.299   5.337   3.795  0.3060 -0.6515  2.6293
 3563TIP3   OH232103   2.359   5.396   2.897 -1.0470 -0.1501  0.0882
 3563TIP3    H132104   2.386   5.486   2.880 -0.5062 -0.3637 -0.2125
 3563TIP3    H232105   2.409   5.344   2.834 -0.7499 -0.7338  0.7857
 3564TIP3   OH232106   5.667   0.575   3.636  0.6195 -0.2392  0.2432
 3564TIP3    H132107   5.697   0.549   3.549  0.0195  0.3942 -0.1592
 3564TIP3    H232108   5.580   0.613   3.621 -0.1122 -1.4453  1.3016
 3565TIP3   OH232109   4.766   4.296   1.889 -0.3743  0.0861  0.3537
 3565TIP3    H132110   4.839   4.358   1.883 -3.0443  3.6811  1.1684
 3565TIP3    H232111   4.727   4.313   1.975 -1.9518 -1.9514  0.1145
 3566TIP3   OH232112   6.551   1.024   4.362 -0.0680  0.2311 -0.4200
 3566TIP3    H132113   6.531   1.105   4.315  0.2685 -0.1389 -1.2230
 3566TIP3    H232114   6.466   0.981   4.373 -0.1732  0.4078 -0.5381
 3567TIP3   OH232115   3.156   4.024   5.066  0.4692  0.5536  0.6103
 3567TIP3    H132116   3.197   3.937   5.066  0.4848  0.5401  1.8104
 3567TIP3    H232117   3.084   4.016   5.129  0.2361  1.3024  0.4431
 3568TIP3   OH232118   6.015   5.632   2.805 -0.8791 -0.2869 -0.3544
 3568TIP3    H132119   6.045   5.624   2.714 -4.0512 -1.0571 -1.4681
 3568TIP3    H232120   6.061   5.562   2.851  0.8433  0.1525 -1.2992
 3569TIP3   OH232121   1.002   2.631   0.566  0.5035  0.2193  0.0392
 3569TIP3    H132122   1.034   2.617   0.655  0.6160 -0.4890 -0.1026
 3569TIP3    H232123   0.944   2.557   0.550  1.6031 -0.4733 -0.9790
 3570TIP3   OH232124   0.031   3.626  13.801 -0.4682  0.2703  0.0914
 3570TIP3    H132125  -0.014   3.656  13.880  0.1469  1.0564  0.1606
 3570TIP3    H232126  -0.034   3.636  13.731 -1.4701 -1.7306  0.6885
 3571TIP3   OH232127   4.703   3.272  15.820 -0.1679  0.0541  0.0194
 3571TIP3    H132128   4.677   3.202  15.761 -0.2703 -1.0944  1.3907
 3571TIP3    H232129   4.781   3.310  15.779 -0.7702 -0.0671 -1.3154
 3572TIP3   OH232130   1.843   5.880   3.477 -0.2457  0.3654 -0.2627
 3572TIP3    H132131   1.801   5.959   3.510 -0.8085  0.7502 -1.7997
 3572TIP3    H232132   1.786   5.809   3.505 -0.0447  0.5477  0.6319
 3573TIP3   OH232133   2.471   3.336  11.680 -0.6673  0.2219  0.2279
 3573TIP3    H132134   2.437   3.269  11.621 -1.1221 -0.5321  1.3154
 3573TIP3    H232135   2.566   3.328  11.672 -0.6945  1.2086 -1.5643
 3574TIP3   OH232136   0.632   5.337  12.607 -0.2618  0.2849  0.3833
 3574TIP3    H132137   0.722   5.335  12.640 -0.1788 -0.5286  0.1166
 3574TIP3    H232138   0.588   5.402  12.663 -0.0336 -0.7876  1.8821
 3575TIP3   OH232139   1.950   2.505  13.113  0.1179  0.4213  0.1887
 3575TIP3    H132140   2.021   2.564  13.089  0.2836 -0.1272 -0.7622
 3575TIP3    H232141   1.886   2.514  13.042 -0.6757  0.7667  0.9367
 3576TIP3   OH232142   0.977   0.845  11.414  0.4742  0.2826  0.1897
 3576TIP3    H132143   0.928   0.884  11.486  1.0851 -2.1239  2.0257
 3576TIP3    H232144   1.066   0.880  11.425  0.8252 -0.9150  1.3164
 3577TIP3   OH232145   2.999   6.299   1.424 -0.0482 -0.1820 -0.3847
 3577TIP3    H132146   2.952   6.236   1.480  0.7036 -1.1071 -0.7671
 3577TIP3    H232147   3.043   6.358   1.485 -1.5589  0.6159 -0.0171
 3578TIP3   OH232148   2.420   5.428  13.212  0.2298  0.0705  0.1987
 3578TIP3    H132149   2.395   5.442  13.120  0.3998  0.6526  0.2371
 3578TIP3    H232150   2.442   5.335  13.217  0.6038  0.1205 -0.4399
 3579TIP3   OH232151   3.579   5.617   4.566  0.4861  0.8538 -0.4063
 3579TIP3    H132152   3.626   5.577   4.639 -0.3814  0.2604 -0.1669
 3579TIP3    H232153   3.526   5.686   4.607 -0.4523  0.1324 -0.3798
 3580TIP3   OH232154   4.864   1.271   4.648  0.2598 -0.3354 -0.2668
 3580TIP3    H132155   4.769   1.259   4.648 -0.0946  1.8803 -1.1328
 3580TIP3    H232156   4.893   1.233   4.731 -0.8833 -3.9291 -1.3527
 3581TIP3   OH232157   6.522   4.812   0.533 -0.1107 -0.2309  0.4494
 3581TIP3    H132158   6.509   4.787   0.441  0.3519 -0.8126  0.5393
 3581TIP3    H232159   6.541   4.730   0.578 -0.6064  0.0130  1.1242
 3582TIP3   OH232160   4.079   5.179   1.389 -0.2945  0.5146 -0.0622
 3582TIP3    H132161   4.018   5.165   1.316 -0.7666  1.3007  0.1640
 3582TIP3    H232162   4.117   5.092   1.406  0.4787  0.4866 -1.7971
 3583TIP3   OH232163   3.705   2.962   6.898 -0.5195  0.0024 -0.0413
 3583TIP3    H132164   3.702   2.960   6.802 -0.5010 -1.2300 -0.0434
 3583TIP3    H232165   3.792   2.996   6.918 -0.0709 -0.8296 -0.4932
 3584TIP3   OH232166   6.260   6.664  14.350  0.0710  0.5227  0.0165
 3584TIP3    H132167   6.215   6.624  14.425 -1.4362  1.3063 -0.4343
 3584TIP3    H232168   6.231   6.612  14.275  1.7788 -0.4241 -0.0416
 3585TIP3   OH232169   3.828   6.322  11.642 -0.4514 -0.4813 -0.5178
 3585TIP3    H132170   3.920   6.326  11.669 -1.4275 -0.2900  3.3086
 3585TIP3    H232171   3.781   6.293  11.720 -3.7182 -0.3703 -2.2702
 3586TIP3   OH232172   4.809   3.117  14.450  0.6750  0.0882 -0.1244
 3586TIP3    H132173   4.808   3.174  14.527 -2.2531  1.4905 -1.0631
 3586TIP3    H232174   4.896   3.129  14.412  1.6462  0.5310  2.0692
 3587TIP3   OH232175   6.346   5.359  13.283  0.3635  0.3049  0.6483
 3587TIP3    H132176   6.349   5.447  13.247  2.6554 -0.7094 -2.0053
 3587TIP3    H232177   6.408   5.359  13.356  0.9659  0.6907  0.1351
 3588TIP3   OH232178   2.219   1.723   5.037  0.0346 -0.4309  0.4836
 3588TIP3    H132179   2.150   1.679   4.988  1.2440 -1.7122 -0.1516
 3588TIP3    H232180   2.261   1.653   5.087  0.5626  0.4041  1.2372
 3589TIP3   OH232181   2.373   0.837   2.027  0.3702 -0.3792 -0.0815
 3589TIP3    H132182   2.380   0.921   2.071  1.6088 -0.0618 -0.8238
 3589TIP3    H232183   2.443   0.839   1.961  0.7712 -2.1975  0.2470
 3590TIP3   OH232184   2.266   0.814  12.035 -0.1846  0.6124 -0.0343
 3590TIP3    H132185   2.276   0.901  12.074  0.9027 -0.0273  1.1863
 3590TIP3    H232186   2.293   0.826  11.944 -0.1387  1.5667  0.0881
 3591TIP3   OH232187   5.287   3.532   5.251 -0.2636  0.3284  0.0266
 3591TIP3    H132188   5.287   3.627   5.259  1.8260  0.3155  0.7216
 3591TIP3    H232189   5.306   3.515   5.159 -0.0207  0.5810  0.0317
 3592TIP3   OH232190   0.103   3.368  12.079 -0.0486  0.5058  0.7003
 3592TIP3    H132191   0.098   3.419  12.160  1.1150  0.3740  0.8620
 3592TIP3    H232192   0.194   3.375  12.051 -0.1023 -0.6620  0.1823
 3593TIP3   OH232193   1.550   4.444  14.289 -0.0248  0.1132  0.2640
 3593TIP3    H132194   1.637   4.479  14.310  0.0647 -0.4488  0.8501
 3593TIP3    H232195   1.521   4.496  14.214  0.5399  0.7466  0.4737
 3594TIP3   OH232196   6.570   0.942  16.798 -0.0320 -0.0750  0.6219
 3594TIP3    H132197   6.659   0.970  16.822 -0.5126  0.8947  1.3428
 3594TIP3    H232198   6.584   0.870  16.737  1.2659  0.7689 -0.1458
 3595TIP3   OH232199   5.695   4.516   2.505 -0.4320 -0.6488 -0.1331
 3595TIP3    H132200   5.703   4.554   2.592 -0.5771 -1.8160  0.4181
 3595TIP3    H232201   5.648   4.434   2.519 -0.5170 -0.8254 -1.3234
 3596TIP3   OH232202   0.635   1.182   4.554 -0.3047 -0.2981 -0.3040
 3596TIP3    H132203   0.611   1.109   4.610 -0.4823 -1.2508 -1.5676
 3596TIP3    H232204   0.671   1.141   4.475  3.5851  0.9999  0.5969
 3597TIP3   OH232205   5.089   2.518   4.075  0.4985 -0.0801  0.1246
 3597TIP3    H132206   5.137   2.437   4.056  1.1222  0.0898  0.9517
 3597TIP3    H232207   5.100   2.571   3.996  0.1057 -0.7815 -0.4135
 3598TIP3   OH232208   6.443   6.262  15.976  0.1833 -0.1300  0.3044
 3598TIP3    H132209   6.370   6.303  16.023 -0.4310 -0.9357  0.0660
 3598TIP3    H232210   6.514   6.326  15.983 -0.3233  0.3664  1.1354
 3599TIP3   OH232211   5.073   5.452   0.207  0.1458  0.3326 -0.1623
 3599TIP3    H132212   5.144   5.460   0.270  2.3362  1.3312 -2.5749
 3599TIP3    H232213   5.019   5.530   0.222  0.5327  0.4717  0.5594
 3600TIP3   OH232214   3.952   5.485  11.393  0.0137 -0.3943  0.5916
 3600TIP3    H132215   3.872   5.530  11.423 -0.2775 -0.7165  0.3064
 3600TIP3    H232216   4.020   5.551  11.400 -0.3462 -0.0099  0.5066
 3601TIP3   OH232217   1.366   4.992   0.310 -0.5821  0.4045  0.1043
 3601TIP3    H132218   1.294   5.002   0.373 -1.2608  2.2254 -0.8801
 3601TIP3    H232219   1.421   4.923   0.347 -1.3664  0.8775  2.2986
 3602TIP3   OH232220   0.481   5.348   4.660  0.3366 -0.1083  0.4355
 3602TIP3    H132221   0.411   5.284   4.669 -1.3926  1.8302  1.6912
 3602TIP3    H232222   0.551   5.314   4.717 -1.5378  0.3133  3.1544
 3603TIP3   OH232223   0.940   3.882   2.395 -0.3496  0.1393 -0.5455
 3603TIP3    H132224   0.999   3.807   2.385 -0.4129  0.0414 -0.1935
 3603TIP3    H232225   0.852   3.844   2.388 -0.3962  0.0805  0.2645
 3604TIP3   OH232226   0.647   3.247   1.486  0.0971  0.3559  0.6219
 3604TIP3    H132227   0.602   3.227   1.568 -1.3184 -2.1989 -0.6751
 3604TIP3    H232228   0.578   3.278   1.428  0.0798 -2.4061 -1.0049
 3605TIP3   OH232229   1.826   0.683  11.127 -0.2820  0.6438  0.4118
 3605TIP3    H132230   1.909   0.662  11.084  0.0983  2.6457  0.0964
 3605TIP3    H232231   1.808   0.773  11.102 -0.7142  1.4952  3.4010
 3606TIP3   OH232232   2.166   4.203   4.289  0.1250  0.5879  0.0158
 3606TIP3    H132233   2.071   4.216   4.284  0.2936  1.7666 -0.5644
 3606TIP3    H232234   2.188   4.155   4.210  0.1267  1.1727 -0.3460
 3607TIP3   OH232235   5.246   1.052  14.184  0.5554 -0.1945 -0.0852
 3607TIP3    H132236   5.216   0.962  14.194 -1.0992  0.4726  1.9959
 3607TIP3    H232237   5.220   1.077  14.096 -0.1938 -1.3670 -0.2210
 3608TIP3   OH232238   0.408   5.984  11.524  0.3925  0.4384  0.3047
 3608TIP3    H132239   0.435   6.065  11.568 -0.4746  1.6621 -1.3194
 3608TIP3    H232240   0.490   5.939  11.504  0.8678  0.7296  1.5532
 3609TIP3   OH232241   6.551   4.777   3.854  0.5791  0.0518  0.0998
 3609TIP3    H132242   6.550   4.872   3.841  2.1104  0.3253  1.6314
 3609TIP3    H232243   6.581   4.742   3.770 -0.5697  0.8524 -0.6716
 3610TIP3   OH232244   1.975   4.536  16.810  0.1571  0.9969 -0.1673
 3610TIP3    H132245   2.031   4.513  16.885  1.1056  1.2613 -0.7837
 3610TIP3    H232246   1.927   4.613  16.840  0.8207  1.3430  0.0408
 3611TIP3   OH232247   0.976   2.243  15.492 -0.4045 -0.0456 -0.3119
 3611TIP3    H132248   0.954   2.315  15.551  1.4336  0.2554  0.0701
 3611TIP3    H232249   0.984   2.283  15.406  0.7175  0.2559 -0.0817
 3612TIP3   OH232250   3.397   1.068   4.258  0.3416 -0.5996  0.5799
 3612TIP3    H132251   3.382   0.977   4.231 -0.8064  0.2775 -2.1292
 3612TIP3    H232252   3.356   1.075   4.344 -2.2367 -1.9432 -0.4456
 3613TIP3   OH232253   4.512   6.573   0.398 -0.1807  0.0494  0.0519
 3613TIP3    H132254   4.438   6.589   0.457  0.3547 -0.6853  0.9576
 3613TIP3    H232255   4.589   6.584   0.454  0.3326 -0.7622 -0.4761
 3614TIP3   OH232256   5.035   1.381  11.979  0.0941  0.0041 -0.1754
 3614TIP3    H132257   5.015   1.289  11.960 -0.8795  0.2283 -0.2629
 3614TIP3    H232258   5.075   1.414  11.898  1.3350 -0.5761  0.1676
 3615TIP3   OH232259   2.910   0.591  13.427 -0.1611  0.0008 -0.9509
 3615TIP3    H132260   2.884   0.521  13.487 -1.0430  0.0086 -1.3069
 3615TIP3    H232261   2.980   0.552  13.375  2.6126  0.8634  1.8581
 3616TIP3   OH232262   1.501   5.721  10.447 -0.8411 -0.4198  0.3951
 3616TIP3    H132263   1.439   5.668  10.395 -1.2281 -0.4347  0.8651
 3616TIP3    H232264   1.507   5.804  10.399 -1.3938 -0.3382  0.4577
 3617TIP3   OH232265   3.285   4.555   3.550  0.1073 -1.1012  0.2177
 3617TIP3    H132266   3.333   4.637   3.541 -0.4954 -0.7009  0.5393
 3617TIP3    H232267   3.344   4.488   3.515  0.0809 -0.3710 -1.2861
 3618TIP3   OH232268   5.509   6.587  14.203  0.1164  0.7669  0.3533
 3618TIP3    H132269   5.531   6.537  14.125  1.5812 -1.6252  2.1664
 3618TIP3    H232270   5.420   6.560  14.225  0.4957 -0.2579  0.6937
 3619TIP3   OH232271   4.715   2.982  10.713  0.1419 -0.2660 -0.2463
 3619TIP3    H132272   4.803   3.004  10.744 -0.1649 -0.9767  1.2235
 3619TIP3    H232273   4.725   2.895  10.675  0.0997 -0.2898 -0.2028
 3620TIP3   OH232274   0.782   4.732   0.817 -0.0931 -0.2080 -0.0440
 3620TIP3    H132275   0.854   4.768   0.867 -1.0429 -0.6957  1.7718
 3620TIP3    H232276   0.784   4.778   0.734  2.6280 -0.6134 -0.2788
 3621TIP3   OH232277   3.132   3.938   1.424 -0.2522  0.5688  0.5766
 3621TIP3    H132278   3.163   3.955   1.335 -1.8624 -0.8709 -0.3141
 3621TIP3    H232279   3.114   4.025   1.460 -0.9303  1.1438 -1.0309
 3622TIP3   OH232280   1.690   1.311   2.884  0.2110 -0.5770  0.1742
 3622TIP3    H132281   1.601   1.324   2.849  1.7009  1.7373 -3.2710
 3622TIP3    H232282   1.711   1.220   2.862 -1.0449 -0.9506  0.4323
 3623TIP3   OH232283   5.399   4.334  12.145 -0.2003 -0.4533  0.3045
 3623TIP3    H132284   5.466   4.302  12.085  0.6338 -1.6067  1.7804
 3623TIP3    H232285   5.324   4.356  12.089  0.6605 -1.1494 -1.1602
 3624TIP3   OH232286   6.677   0.821  12.130 -0.3005  0.1747 -0.4346
 3624TIP3    H132287   6.709   0.732  12.115  1.5121  0.7410 -0.1400
 3624TIP3    H232288   6.625   0.842  12.052 -0.0405 -0.8268 -0.8891
 3625TIP3   OH232289   6.097   0.885  16.793  0.3917  0.3418 -0.4855
 3625TIP3    H132290   6.176   0.832  16.803  1.1811  1.3761 -1.0564
 3625TIP3    H232291   6.037   0.850  16.859  1.9360  0.6613  1.1899
 3626TIP3   OH232292   0.556   5.243   0.237 -0.0915 -0.1130  0.0858
 3626TIP3    H132293   0.497   5.239   0.311  1.3376  0.4420  1.3146
 3626TIP3    H232294   0.583   5.153   0.221 -1.3147 -0.3795 -0.5556
 3627TIP3   OH232295   0.351   1.813  13.414  0.3782  0.0900 -0.5463
 3627TIP3    H132296   0.374   1.889  13.467 -1.1484  1.2117 -1.3900
 3627TIP3    H232297   0.285   1.846  13.353  1.2584 -1.3953 -2.4152
 3628TIP3   OH232298   2.601   2.069  13.306  0.1520  0.5370  0.5356
 3628TIP3    H132299   2.562   2.083  13.392 -0.9202 -3.5574  0.9202
 3628TIP3    H232300   2.528   2.079  13.245  0.1467  0.1108  0.4708
 3629TIP3   OH232301   1.962   4.929   5.064  0.0329  0.0807 -0.7512
 3629TIP3    H132302   2.050   4.900   5.087  0.1646  0.8909 -0.1813
 3629TIP3    H232303   1.974   4.986   4.989  0.0804  0.7294 -0.2588
 3630TIP3   OH232304   5.927   0.354   4.016  0.1611 -0.3963  0.3292
 3630TIP3    H132305   5.974   0.310   4.086 -1.5479 -1.8331  0.6386
 3630TIP3    H232306   5.982   0.343   3.939  1.0526 -0.6631  0.9904
 3631TIP3   OH232307   5.029   5.312  12.173 -0.2737  0.1851  0.0200
 3631TIP3    H132308   5.056   5.396  12.137 -4.4381  1.7230 -0.0705
 3631TIP3    H232309   5.066   5.247  12.113  1.2996  2.0377 -1.1382
 3632TIP3   OH232310   4.868   3.882  11.823  0.2468 -0.3186  0.0000
 3632TIP3    H132311   4.884   3.947  11.754  1.1066  0.0852  0.5575
 3632TIP3    H232312   4.810   3.818  11.783  2.0137 -0.9794 -1.6870
 3633TIP3   OH232313   2.848   6.123   2.159 -0.4191  0.3814  0.1720
 3633TIP3    H132314   2.925   6.179   2.152 -1.1305  1.4191  0.4414
 3633TIP3    H232315   2.842   6.081   2.074  0.0604  0.7938 -0.0742
 3634TIP3   OH232316   5.439   4.983   1.540 -0.1749  0.0732 -0.3138
 3634TIP3    H132317   5.476   4.962   1.625 -1.6982  0.3508  0.4596
 3634TIP3    H232318   5.514   4.989   1.481  0.7830 -1.7100  0.6552
 3635TIP3   OH232319   3.537   0.063  17.013  0.0890  0.1121 -0.2782
 3635TIP3    H132320   3.464   0.120  16.985  0.4197  0.4705 -0.4145
 3635TIP3    H232321   3.538   0.070  17.108  0.3918  0.6692 -0.3183
 3636TIP3   OH232322   5.494   2.558   0.801 -0.3072 -0.1908 -0.4769
 3636TIP3    H132323   5.409   2.601   0.814 -0.0562  0.1220  0.1227
 3636TIP3    H232324   5.514   2.518   0.885 -0.7128 -1.8191 -1.1095
 3637TIP3   OH232325   3.757   4.861  11.748  0.2163  0.3199 -0.4087
 3637TIP3    H132326   3.844   4.837  11.715  0.6497  0.2098  0.7823
 3637TIP3    H232327   3.703   4.866  11.669  0.9152 -1.2273 -1.0307
 3638TIP3   OH232328   6.494   4.375   6.762  0.2803 -0.3639  0.0151
 3638TIP3    H132329   6.550   4.451   6.748 -0.4214  0.1066 -0.3051
 3638TIP3    H232330   6.405   4.407   6.747 -0.0912 -1.0701  0.6219
 3639TIP3   OH232331   6.503   1.227  11.761  0.0715  0.0688  0.0827
 3639TIP3    H132332   6.448   1.256  11.834  0.9900  0.1880  0.7476
 3639TIP3    H232333   6.441   1.201  11.693 -0.8021  0.2349  0.7962
 3640TIP3   OH232334   6.076   1.151  12.014 -0.1630 -0.1611  0.3876
 3640TIP3    H132335   6.058   1.230  12.065 -1.5922 -0.1920 -0.0472
 3640TIP3    H232336   6.091   1.083  12.080 -2.1338 -0.2330  0.8030
 3641TIP3   OH232337   2.499   0.896   4.811  0.0660 -0.8553  0.7317
 3641TIP3    H132338   2.410   0.893   4.847 -0.0703  0.3917  0.5267
 3641TIP3    H232339   2.487   0.916   4.719  0.5952  3.2608  1.3644
 3642TIP3   OH232340   1.475   1.490  16.733  0.2356 -0.4496  0.3531
 3642TIP3    H132341   1.543   1.491  16.666  0.6938 -1.1093  0.7878
 3642TIP3    H232342   1.393   1.486  16.685  0.5300 -0.1909 -0.1741
 3643TIP3   OH232343   3.448   1.276  12.041 -0.1407  0.6586 -0.0081
 3643TIP3    H132344   3.391   1.229  12.102  1.4975 -1.3703  0.0568
 3643TIP3    H232345   3.454   1.220  11.964 -0.2000  2.0223 -1.0495
 3644TIP3   OH232346   5.523   5.143  12.692  0.3158 -0.3819  0.1172
 3644TIP3    H132347   5.559   5.082  12.757 -0.5136 -0.7042  0.2789
 3644TIP3    H232348   5.508   5.089  12.614 -2.1482 -0.8411  0.8328
 3645TIP3   OH232349   4.499   2.592  15.868  1.0987 -0.1222 -0.1183
 3645TIP3    H132350   4.459   2.580  15.954  0.2670  0.8025 -0.3595
 3645TIP3    H232351   4.471   2.516  15.817  1.2131 -0.4349  0.2853
 3646TIP3   OH232352   1.215   0.804   5.331  0.3601 -0.5622 -0.2674
 3646TIP3    H132353   1.264   0.724   5.313  0.3849 -0.8009  0.8286
 3646TIP3    H232354   1.259   0.871   5.279  1.1852 -0.9840 -0.1319
 3647TIP3   OH232355   5.294   1.687  12.844  0.7137 -0.5530 -0.1812
 3647TIP3    H132356   5.378   1.732  12.834  0.0992  0.3634 -1.6877
 3647TIP3    H232357   5.253   1.694  12.758 -0.8058 -1.2055  0.4487
 3648TIP3   OH232358   6.513   0.056  14.656 -0.3027  0.2949 -0.6192
 3648TIP3    H132359   6.420   0.072  14.670 -0.6677 -2.6961  1.0921
 3648TIP3    H232360   6.519  -0.035  14.628  1.8348  1.6659 -5.7871
 3649TIP3   OH232361   4.081   0.488   2.994  0.0791 -0.3612  0.3281
 3649TIP3    H132362   4.094   0.408   3.045  0.2441 -0.2848  0.4051
 3649TIP3    H232363   4.001   0.527   3.029 -0.8899 -1.2972 -0.7426
 3650TIP3   OH232364   6.509   4.952  16.088 -0.3538 -0.5747  0.0656
 3650TIP3    H132365   6.423   4.924  16.122 -0.3935 -0.9718 -0.3562
 3650TIP3    H232366   6.540   5.016  16.152 -2.0193  1.3686 -0.9538
 3651TIP3   OH232367   2.864   3.628   3.688 -0.4110  0.1908  0.3416
 3651TIP3    H132368   2.769   3.623   3.676 -0.2746 -0.5321 -0.5754
 3651TIP3    H232369   2.885   3.556   3.746 -0.7958  2.3870  3.4716
 3652TIP3   OH232370   0.314   0.762  16.562  0.2211 -0.0245 -0.2873
 3652TIP3    H132371   0.393   0.733  16.516  0.5521  1.8476 -1.0129
 3652TIP3    H232372   0.346   0.819  16.632 -0.4246 -0.6285  0.5206
 3653TIP3   OH232373   5.737   5.353  12.299 -0.8471 -0.5528 -0.0886
 3653TIP3    H132374   5.828   5.374  12.277 -0.7461 -0.5456  0.3311
 3653TIP3    H232375   5.712   5.420  12.362 -1.5192  0.1404 -1.0513
 3654TIP3   OH232376   4.288   3.661  13.706  0.1844  0.7112 -0.0835
 3654TIP3    H132377   4.230   3.638  13.634 -0.1904  0.8208  0.1806
 3654TIP3    H232378   4.236   3.720  13.761 -0.5776 -1.5210  1.7674
 3655TIP3   OH232379   6.338   0.680   2.543  0.5970 -0.2865  0.0918
 3655TIP3    H132380   6.386   0.597   2.549 -0.1421 -0.7529 -0.3825
 3655TIP3    H232381   6.369   0.719   2.461  1.4428  0.2447  0.6366
 3656TIP3   OH232382   1.501   1.512  11.510  0.4527 -0.0448  0.1182
 3656TIP3    H132383   1.528   1.492  11.599  0.7676  0.7433  0.2008
 3656TIP3    H232384   1.426   1.454  11.494  0.5177 -0.3233  0.8195
 3657TIP3   OH232385   2.146   4.961   4.093 -0.9841 -0.1126 -0.7437
 3657TIP3    H132386   2.164   4.887   4.034 -0.6862 -0.2040 -0.5388
 3657TIP3    H232387   2.231   4.986   4.127 -0.9100  1.1338 -1.7565
 3658TIP3   OH232388   6.318   4.189  13.922 -0.0442 -0.1035  0.5316
 3658TIP3    H132389   6.346   4.200  14.013  1.1607 -1.8537  0.4205
 3658TIP3    H232390   6.378   4.244  13.872 -0.7454  0.9071  0.7675
 3659TIP3   OH232391   0.461   4.917   6.432 -0.6012 -0.4734  0.5677
 3659TIP3    H132392   0.508   4.856   6.375 -0.6445  2.4703 -3.0294
 3659TIP3    H232393   0.369   4.909   6.406 -0.6869  0.6503  0.4855
 3660TIP3   OH232394   2.096   3.884   3.893 -0.2140  0.0982 -0.0557
 3660TIP3    H132395   2.118   3.866   3.802  1.3800 -1.1730  0.5276
 3660TIP3    H232396   2.005   3.858   3.902  0.1460 -1.5419 -0.8632
 3661TIP3   OH232397   0.734   6.092  10.758 -0.8044  0.1972  0.1355
 3661TIP3    H132398   0.721   6.186  10.775 -1.3664  0.4554 -1.5337
 3661TIP3    H232399   0.649   6.052  10.779 -1.4513  0.4953 -1.7134
 3662TIP3   OH232400   5.010   6.289  12.085  0.1389  0.2288  0.1134
 3662TIP3    H132401   4.959   6.211  12.064  2.2554 -0.7800 -1.7696
 3662TIP3    H232402   5.066   6.261  12.158  1.4122 -0.3332 -1.0290
 3663TIP3   OH232403   1.058   3.992  13.376 -0.5777 -0.4575 -0.1813
 3663TIP3    H132404   1.121   4.064  13.383  0.7015 -1.4265 -1.3183
 3663TIP3    H232405   1.110   3.913  13.388 -1.8394 -1.2390  0.3137
 3664TIP3   OH232406   4.506   2.082   2.755 -0.0740 -0.5635 -0.2107
 3664TIP3    H132407   4.434   2.028   2.787 -0.6041 -0.5269 -1.3113
 3664TIP3    H232408   4.550   2.028   2.690  0.4950 -0.3305 -0.0281
 3665TIP3   OH232409   3.912   3.643  15.207  0.5445 -0.1010 -0.3854
 3665TIP3    H132410   3.853   3.675  15.140  1.0993 -0.9603 -1.3219
 3665TIP3    H232411   3.999   3.654  15.169  0.7496 -3.7696 -1.3762
 3666TIP3   OH232412   5.553   4.853  15.121  0.0844 -0.3965  0.3424
 3666TIP3    H132413   5.579   4.777  15.069  3.0684  1.5196 -1.2572
 3666TIP3    H232414   5.576   4.829  15.211  2.9873 -0.7588 -0.3779
 3667TIP3   OH232415   4.020   3.763   2.276  0.2394  0.9376  0.7278
 3667TIP3    H132416   4.066   3.680   2.266  0.4136  1.1490 -0.4503
 3667TIP3    H232417   4.083   3.829   2.247 -0.5967  1.2734 -0.4473
 3668TIP3   OH232418   1.329   5.665   3.354 -0.3085  0.7746 -0.0255
 3668TIP3    H132419   1.315   5.746   3.403  0.3224  1.0270 -0.2587
 3668TIP3    H232420   1.423   5.661   3.341 -0.3478  0.0610 -0.1243
 3669TIP3   OH232421   5.747   6.729   5.577 -0.2983 -0.3856 -0.0177
 3669TIP3    H132422   5.823   6.700   5.527 -1.3152 -0.5621 -1.5116
 3669TIP3    H232423   5.784   6.772   5.654  1.3006 -0.8655 -0.4904
 3670TIP3   OH232424   4.072   6.405   1.918  0.5494 -0.1092 -0.2279
 3670TIP3    H132425   4.077   6.445   1.830  0.9556  1.9258  0.6605
 3670TIP3    H232426   4.148   6.346   1.921  0.8056  0.1456 -1.0812
 3671TIP3   OH232427   3.025   3.343  11.743  0.4411  0.3945  0.8929
 3671TIP3    H132428   3.043   3.250  11.735 -1.7249  0.0239 -0.6259
 3671TIP3    H232429   3.047   3.380  11.658 -0.4773  0.9119  0.8634
 3672TIP3   OH232430   3.641   3.429  15.214  0.1350  0.0326  0.6538
 3672TIP3    H132431   3.699   3.505  15.213 -1.2095  1.0748  0.4966
 3672TIP3    H232432   3.612   3.419  15.123  0.8211 -1.0987  0.5355
 3673TIP3   OH232433   2.997   0.251  11.570 -0.5428 -0.0624 -0.2260
 3673TIP3    H132434   2.987   0.208  11.484  0.4943 -1.5037  0.3404
 3673TIP3    H232435   3.091   0.252  11.586 -0.7349  0.0102  0.9958
 3674TIP3   OH232436   6.458   1.028  13.796  0.4718  0.0925  0.5170
 3674TIP3    H132437   6.469   0.944  13.752 -0.5736  0.2490 -0.0685
 3674TIP3    H232438   6.371   1.024  13.836  0.2458  1.0306  0.1547
 3675TIP3   OH232439   1.173   3.058   2.374 -0.2694  0.4503  0.2448
 3675TIP3    H132440   1.220   3.020   2.448  0.5516  1.8280  0.4728
 3675TIP3    H232441   1.081   3.056   2.400 -0.1416 -0.3888  0.6742
 3676TIP3   OH232442   3.109   4.374  13.918 -0.0667 -0.0127  0.0191
 3676TIP3    H132443   3.101   4.314  13.992 -0.8512 -0.4574 -0.4130
 3676TIP3    H232444   3.019   4.399  13.898  0.2502  1.4836  0.3201
 3677TIP3   OH232445   5.347   4.444  16.861 -0.1606 -0.4570 -0.3286
 3677TIP3    H132446   5.363   4.538  16.875  0.6540 -0.6399 -0.0199
 3677TIP3    H232447   5.310   4.414  16.944  0.4608 -0.6020 -0.1002
 3678TIP3   OH232448   6.649   2.273  16.868 -0.8313 -0.0021  0.5217
 3678TIP3    H132449   6.606   2.253  16.785 -1.0015 -0.0870  0.6294
 3678TIP3    H232450   6.721   2.209  16.874  2.1609  2.8021 -1.7582
 3679TIP3   OH232451   3.054   0.533  16.581 -0.1946  0.3838  0.1748
 3679TIP3    H132452   3.024   0.534  16.671 -0.1294  3.3350  0.2604
 3679TIP3    H232453   2.981   0.498  16.531 -1.0675  0.7621  1.1651
 3680TIP3   OH232454   4.818   3.570   3.457  0.6260 -0.4133 -0.3247
 3680TIP3    H132455   4.772   3.639   3.408 -0.9391 -0.8098  0.5104
 3680TIP3    H232456   4.757   3.497   3.458  0.8073 -0.6064  1.7340
 3681TIP3   OH232457   0.164   1.087  12.867 -0.0048  0.0134 -0.1701
 3681TIP3    H132458   0.248   1.073  12.824 -1.0526 -1.5649 -1.8205
 3681TIP3    H232459   0.153   1.010  12.924  0.4677  1.1227  1.4970
 3682TIP3   OH232460   2.024   0.231   2.186 -0.2761 -0.2117 -0.2538
 3682TIP3    H132461   2.117   0.209   2.196  0.3092  1.5424 -1.3954
 3682TIP3    H232462   1.999   0.269   2.270  0.4259  0.5332 -0.3691
 3683TIP3   OH232463   6.251   6.594   3.108  0.2436 -0.0418 -0.7890
 3683TIP3    H132464   6.317   6.600   3.177  0.9949 -1.5348 -1.3170
 3683TIP3    H232465   6.203   6.513   3.129 -0.5039  0.2923 -1.1856
 3684TIP3   OH232466   5.774   2.082  15.913 -0.3305 -0.0212  0.0008
 3684TIP3    H132467   5.831   2.035  15.974  0.3980 -0.3222 -0.8892
 3684TIP3    H232468   5.827   2.155  15.882  0.4668 -1.5843 -2.5727
 3685TIP3   OH232469   4.774   4.897  11.371 -0.3543  0.2687 -0.6016
 3685TIP3    H132470   4.848   4.882  11.430  1.8398 -2.2476 -3.6580
 3685TIP3    H232471   4.797   4.978  11.325  0.1298 -0.0666 -0.9648
 3686TIP3   OH232472   6.514   6.713   4.107 -0.1448  0.3935  0.7713
 3686TIP3    H132473   6.556   6.751   4.185 -0.1822 -0.5998  1.2949
 3686TIP3    H232474   6.530   6.777   4.038  0.2820  1.0890  1.4910
 3687TIP3   OH232475   4.576   6.127   0.069  0.1058 -0.2160 -0.0345
 3687TIP3    H132476   4.500   6.121   0.126  0.6059 -1.3319  0.5454
 3687TIP3    H232477   4.608   6.037   0.062  0.3903 -0.0259 -1.6342
 3688TIP3   OH232478   2.102   5.718   2.160 -0.0046 -0.5946 -0.4779
 3688TIP3    H132479   2.029   5.715   2.223 -0.4989 -1.3363 -1.0628
 3688TIP3    H232480   2.115   5.811   2.143  1.4611 -0.2262  2.1983
 3689TIP3   OH232481   0.309   4.893   0.768 -0.3171  0.5082  0.0302
 3689TIP3    H132482   0.400   4.917   0.747 -1.0880  2.3021 -1.4955
 3689TIP3    H232483   0.298   4.918   0.859  0.6303  0.5418  0.1488
 3690TIP3   OH232484   5.985   3.369  13.169 -0.4511  0.1632 -0.3866
 3690TIP3    H132485   5.938   3.452  13.169 -0.0206  0.4099  0.1375
 3690TIP3    H232486   5.934   3.312  13.225 -0.7191  0.0874 -0.7050
 3691TIP3   OH232487   5.589   6.150   2.560 -0.1668 -0.0164  0.5365
 3691TIP3    H132488   5.631   6.113   2.482  0.1939  0.1104  0.6663
 3691TIP3    H232489   5.509   6.191   2.527  0.2826  0.5586  0.1318
 3692TIP3   OH232490   5.266   3.934   1.830 -0.3964  0.3629  0.8520
 3692TIP3    H132491   5.174   3.905   1.833 -0.3129  0.0202  0.3322
 3692TIP3    H232492   5.261   4.029   1.835 -1.0271  0.6256 -2.4540
 3693TIP3   OH232493   3.245   0.029   4.203  0.2599 -0.4047  0.4213
 3693TIP3    H132494   3.313  -0.004   4.261 -0.5713 -1.4721  0.8207
 3693TIP3    H232495   3.289   0.046   4.120  1.0581 -0.7974  0.7647
 3694TIP3   OH232496   0.734   1.044  16.306 -0.2638 -0.3306  0.2925
 3694TIP3    H132497   0.747   1.104  16.233  1.7764  0.3447  1.1305
 3694TIP3    H232498   0.712   0.960  16.265 -2.6857  0.8218 -0.9137
 3695TIP3   OH232499   2.936   5.059   4.817  0.3370  0.0449 -0.3397
 3695TIP3    H132500   2.991   5.087   4.890  0.4679  1.0333 -0.7954
 3695TIP3    H232501   2.998   5.039   4.747  0.1901 -0.4885 -0.3240
 3696TIP3   OH232502   2.870   4.656  10.962  0.2213  0.2840 -0.4850
 3696TIP3    H132503   2.780   4.680  10.983  0.2671  1.3763 -1.4537
 3696TIP3    H232504   2.906   4.733  10.919  1.7631  0.0151  0.2649
 3697TIP3   OH232505   3.461   6.250  16.626  0.2175 -0.9615  0.5143
 3697TIP3    H132506   3.535   6.301  16.660 -0.6496  2.7292 -2.4424
 3697TIP3    H232507   3.496   6.208  16.547 -0.2342 -1.2608  0.4724
 3698TIP3   OH232508   1.733   0.304   3.671 -0.4704  0.0689 -0.6675
 3698TIP3    H132509   1.672   0.287   3.743  0.2127 -2.8588 -0.6375
 3698TIP3    H232510   1.814   0.331   3.715 -0.1024 -1.5542 -0.2697
 3699TIP3   OH232511   4.256   3.960  15.267  0.1375 -0.2863 -0.1110
 3699TIP3    H132512   4.199   4.015  15.321 -0.1422 -1.0662  0.4022
 3699TIP3    H232513   4.345   3.991  15.287 -0.0571  0.4832 -0.4048
 3700TIP3   OH232514   3.519   6.443   0.148 -0.2276  0.1670  0.2661
 3700TIP3    H132515   3.564   6.430   0.231  0.2636 -0.9305 -0.1571
 3700TIP3    H232516   3.566   6.388   0.086  0.2211  1.9396 -1.0588
 3701TIP3   OH232517   6.024   6.739  14.900  0.1316  0.2761  0.2143
 3701TIP3    H132518   6.098   6.785  14.861  0.5689  0.9736  1.7711
 3701TIP3    H232519   5.948   6.766  14.849  0.8510  0.0555 -1.0023
 3702TIP3   OH232520   3.844   0.175  13.940 -0.0260  0.4057  0.0231
 3702TIP3    H132521   3.801   0.198  14.022  0.5627  1.5347  0.0251
 3702TIP3    H232522   3.909   0.109  13.965 -0.0573  0.5222  0.4106
 3703TIP3   OH232523   5.830   1.632  11.951 -0.1199  0.1927 -0.0354
 3703TIP3    H132524   5.742   1.629  11.989 -0.8806 -0.8064 -1.7254
 3703TIP3    H232525   5.880   1.567  12.002 -0.0754  1.3746  1.4937
 3704TIP3   OH232526   6.298   4.817   5.701 -0.3942 -0.2097  0.1440
 3704TIP3    H132527   6.338   4.793   5.784  1.1321 -1.8754 -0.9897
 3704TIP3    H232528   6.225   4.756   5.690  1.4100 -2.2729 -1.1676
 3705TIP3   OH232529   2.036   1.059   1.601  0.0683  0.5374  0.3658
 3705TIP3    H132530   2.036   1.097   1.513 -2.4150  0.6697  0.3752
 3705TIP3    H232531   2.073   0.971   1.589  0.0136  0.6490 -0.7443
 3706TIP3   OH232532   3.627   1.471  10.820  0.7306  0.6058 -0.5462
 3706TIP3    H132533   3.689   1.421  10.767  0.8036  0.3947 -0.2638
 3706TIP3    H232534   3.619   1.421  10.901 -0.7285 -0.0161 -1.0367
 3707TIP3   OH232535   3.619   2.895  16.047  0.3017 -0.2057 -0.2644
 3707TIP3    H132536   3.551   2.853  15.994  1.7695 -0.5413 -1.9669
 3707TIP3    H232537   3.695   2.899  15.990  2.1085 -0.9049  1.9582
 3708TIP3   OH232538   1.610   5.126  17.089 -0.5383 -0.1093  0.5044
 3708TIP3    H132539   1.687   5.182  17.101 -0.3262  0.6260 -3.2295
 3708TIP3    H232540   1.565   5.129  17.174  1.3479  2.8332  1.5515
 3709TIP3   OH232541   3.274   0.641   1.931  0.4700  0.4479  0.3739
 3709TIP3    H132542   3.333   0.594   1.989  0.8537  0.5580  0.0711
 3709TIP3    H232543   3.199   0.581   1.920  0.5641  0.2723  0.6792
 3710TIP3   OH232544   2.758   4.934  15.086 -0.3902 -0.2778 -0.2860
 3710TIP3    H132545   2.774   4.889  15.169 -1.0743  1.1651  0.6687
 3710TIP3    H232546   2.664   4.927  15.072 -0.4101  0.2826 -0.4559
 3711TIP3   OH232547   5.963   4.843  16.191 -0.2950 -0.1876 -0.2085
 3711TIP3    H132548   5.976   4.910  16.258  1.0890 -0.6143 -0.0188
 3711TIP3    H232549   5.960   4.892  16.108  1.4539  0.0652 -0.1440
 3712TIP3   OH232550   2.187   2.495   1.538  0.9374 -0.5165  0.0961
 3712TIP3    H132551   2.135   2.554   1.483  1.0273  0.5676  1.1375
 3712TIP3    H232552   2.210   2.422   1.480  0.0809  0.0387 -0.9784
 3713TIP3   OH232553   5.840   5.419   5.302 -0.2847  0.4273 -0.4804
 3713TIP3    H132554   5.758   5.374   5.326 -0.1030  1.1469  1.6940
 3713TIP3    H232555   5.813   5.509   5.285 -0.1427  0.3192 -1.3167
 3714TIP3   OH232556   1.844   0.264   4.088  0.6105  0.0446  0.1448
 3714TIP3    H132557   1.861   0.330   4.020  0.6654 -1.0916 -1.0013
 3714TIP3    H232558   1.931   0.230   4.110  0.7489  1.4287  1.9106
 3715TIP3   OH232559   2.932   5.962  16.673  0.2749  0.1277  0.0393
 3715TIP3    H132560   2.965   5.905  16.742  2.1197 -0.0647 -0.9126
 3715TIP3    H232561   3.002   6.026  16.660 -0.8586  1.3329 -0.3475
 3716TIP3   OH232562   5.608   4.997  11.437 -0.4440  0.0670 -0.2415
 3716TIP3    H132563   5.663   4.977  11.512 -0.0522  1.0952 -0.2361
 3716TIP3    H232564   5.619   4.923  11.378 -0.0353 -0.3147  0.3070
 3717TIP3   OH232565   5.287   2.238  14.372 -0.2641  0.2571 -0.0040
 3717TIP3    H132566   5.302   2.205  14.283 -0.3583  2.4573 -0.9042
 3717TIP3    H232567   5.374   2.265  14.402  0.5348 -3.8762  2.2006
 3718TIP3   OH232568   0.660   0.564   1.659  0.4006 -0.4805  0.0396
 3718TIP3    H132569   0.651   0.658   1.644 -2.7304 -0.6570  0.3178
 3718TIP3    H232570   0.659   0.526   1.571  0.6708 -0.3520 -0.0227
 3719TIP3   OH232571   0.699   1.748   0.037  0.1338  0.3550 -0.1466
 3719TIP3    H132572   0.782   1.762  -0.009  0.7834  0.1390  0.9319
 3719TIP3    H232573   0.641   1.710  -0.029  1.2387 -0.5435 -0.6361
 3720TIP3   OH232574   3.511   4.777  13.068  0.1349 -0.3981 -0.1958
 3720TIP3    H132575   3.461   4.735  12.998 -1.5810 -0.0043  0.7451
 3720TIP3    H232576   3.450   4.780  13.142  0.6633  2.4277  0.2090
 3721TIP3   OH232577   2.208   0.570   1.594  0.1217  0.0027  0.4616
 3721TIP3    H132578   2.177   0.558   1.683 -0.9381  0.5073  0.1827
 3721TIP3    H232579   2.257   0.653   1.597 -0.3271  0.2705  0.4792
 3722TIP3   OH232580   0.245   4.235  15.302  0.0928  0.7073  0.0029
 3722TIP3    H132581   0.315   4.204  15.244 -0.2721 -1.2111  0.5195
 3722TIP3    H232582   0.285   4.237  15.389 -0.1696  0.7279  0.1243
 3723TIP3   OH232583   0.338   1.536  12.804 -0.1478 -0.1882 -0.2395
 3723TIP3    H132584   0.297   1.466  12.754  0.0392  0.3630 -1.1862
 3723TIP3    H232585   0.410   1.567  12.748  0.1753  0.3289  0.4420
 3724TIP3   OH232586   1.864   2.267  14.602  0.5590  0.3741  0.0420
 3724TIP3    H132587   1.802   2.198  14.579 -0.4999  0.6573  1.8681
 3724TIP3    H232588   1.950   2.228  14.588  0.0280 -1.8204  2.2528
 3725TIP3   OH232589   5.224   5.626   3.804 -0.1767 -0.0563 -0.0682
 3725TIP3    H132590   5.261   5.708   3.838  0.8321 -0.7922  0.6365
 3725TIP3    H232591   5.291   5.592   3.745  0.5722 -1.6600  1.6151
 3726TIP3   OH232592   5.677   1.940  12.845  0.0592  0.3424  0.4523
 3726TIP3    H132593   5.670   1.951  12.751 -1.7891 -1.0375  0.3770
 3726TIP3    H232594   5.620   2.007  12.882  1.2217  1.2545  0.6407
 3727TIP3   OH232595   5.526   5.094  16.551  0.1493 -0.1762  0.2843
 3727TIP3    H132596   5.572   5.178  16.555  1.2422 -0.8085  1.8389
 3727TIP3    H232597   5.568   5.040  16.618 -2.4899 -1.0043  1.4057
 3728TIP3   OH232598   5.537   0.935   5.683  0.0226  0.3700  0.9255
 3728TIP3    H132599   5.508   0.893   5.603  0.6211  0.0312  0.8746
 3728TIP3    H232600   5.474   0.907   5.750 -1.1449  1.5795  0.3575
 3729TIP3   OH232601   0.607   6.524   1.860  0.3338  0.0255  0.4562
 3729TIP3    H132602   0.535   6.581   1.834 -0.2515 -1.2213 -0.7719
 3729TIP3    H232603   0.629   6.552   1.949 -1.2365  0.8447  0.6185
 3730TIP3   OH232604   1.409   2.660  17.062  0.2474 -0.3187 -0.3869
 3730TIP3    H132605   1.367   2.666  17.148  0.4005  2.3042 -0.4072
 3730TIP3    H232606   1.503   2.652  17.081  0.7161  3.8265 -0.1099
 3731TIP3   OH232607   5.755   4.477  10.576  0.5059 -0.1048  0.1656
 3731TIP3    H132608   5.662   4.458  10.561  0.3019  1.3843 -0.6284
 3731TIP3    H232609   5.793   4.482  10.488  1.2168 -0.1147  0.4673
 3732TIP3   OH232610   4.269   3.311   2.472  0.6934 -0.0394  0.0941
 3732TIP3    H132611   4.269   3.259   2.392  1.6181 -1.8260  1.1703
 3732TIP3    H232612   4.329   3.384   2.453 -0.9946  1.0059 -1.6035
 3733TIP3   OH232613   6.754   5.754   2.588 -0.3760 -0.3173  0.1729
 3733TIP3    H132614   6.730   5.842   2.559  2.6330 -0.1423 -2.2520
 3733TIP3    H232615   6.840   5.764   2.628 -0.0562 -2.1202  0.0058
 3734TIP3   OH232616   2.469   0.843  14.450 -0.0251  0.0730 -0.0193
 3734TIP3    H132617   2.558   0.816  14.427  0.1817  0.6712  0.0377
 3734TIP3    H232618   2.462   0.932  14.415 -0.4866  0.1489  0.2603
 3735TIP3   OH232619   2.748   4.493   3.585  0.4165 -0.1327  0.2130
 3735TIP3    H132620   2.756   4.556   3.657  0.6696 -1.2107  1.1799
 3735TIP3    H232621   2.817   4.428   3.604  0.5103 -0.4104 -1.0341
 3736TIP3   OH232622   0.844   0.378   0.759  0.1634  0.1915  0.1400
 3736TIP3    H132623   0.922   0.377   0.815  0.4649  1.8271 -0.1849
 3736TIP3    H232624   0.771   0.387   0.820  0.4122  0.8617  0.3588
 3737TIP3   OH232625   4.666   6.420  13.326 -0.1911  0.0410 -0.3626
 3737TIP3    H132626   4.674   6.448  13.417 -0.0128  1.1071 -0.6865
 3737TIP3    H232627   4.698   6.330  13.325  0.2546  0.1807  0.5463
 3738TIP3   OH232628   5.091   4.213  13.803 -0.0858 -0.0517  0.4566
 3738TIP3    H132629   5.165   4.264  13.837 -0.3019  0.5984 -0.0299
 3738TIP3    H232630   5.028   4.211  13.875 -0.4359  1.1087  0.2011
 3739TIP3   OH232631   5.095   1.678   0.440 -0.0285 -0.1108  0.2110
 3739TIP3    H132632   5.173   1.636   0.404 -0.1450 -1.1505  1.1224
 3739TIP3    H232633   5.129   1.736   0.509  0.1337  1.3785 -1.0505
 3740TIP3   OH232634   1.409   2.785   4.401 -0.4178 -0.1092 -0.4445
 3740TIP3    H132635   1.504   2.787   4.399 -0.1241 -4.1092  0.6567
 3740TIP3    H232636   1.383   2.765   4.311 -0.2745  1.1099 -0.7722
 3741TIP3   OH232637   2.701   5.087  16.334  0.2321  0.3205 -0.1765
 3741TIP3    H132638   2.711   5.013  16.394  0.6702 -0.1037 -0.7629
 3741TIP3    H232639   2.778   5.083  16.277  0.0041  0.9241 -0.5375
 3742TIP3   OH232640   5.996   3.729   3.279  0.1962  0.6059 -0.1013
 3742TIP3    H132641   6.076   3.740   3.228 -0.4428  0.8339 -1.0856
 3742TIP3    H232642   5.963   3.818   3.291  0.8364  0.6450  1.5609
 3743TIP3   OH232643   2.594   0.706  16.460 -0.3523  1.2194  0.1794
 3743TIP3    H132644   2.593   0.798  16.436 -0.3569  0.6436 -2.2822
 3743TIP3    H232645   2.614   0.660  16.379  0.4957 -0.9194  1.4974
 3744TIP3   OH232646   6.057   1.230  13.040 -0.0445  0.2085  0.5692
 3744TIP3    H132647   6.139   1.214  12.993 -0.6274 -3.1404  0.4969
 3744TIP3    H232648   6.084   1.241  13.131  0.6939  2.5140  0.1478
 3745TIP3   OH232649   4.148   0.498  16.822  0.0409 -0.5974  0.1447
 3745TIP3    H132650   4.093   0.452  16.886 -0.1213 -1.4885 -0.6241
 3745TIP3    H232651   4.111   0.476  16.737  1.7592 -1.4713 -0.4215
 3746TIP3   OH232652   1.013   4.761   0.265  0.7080 -0.0760 -0.4999
 3746TIP3    H132653   0.942   4.699   0.251  0.2815  0.6167 -1.5246
 3746TIP3    H232654   1.020   4.809   0.182  0.4621  1.7822  0.4794
 3747TIP3   OH232655   4.095   3.207   3.768 -0.1198 -0.4460 -0.3140
 3747TIP3    H132656   4.117   3.140   3.703  1.5604 -1.1928  0.9469
 3747TIP3    H232657   4.145   3.284   3.741  0.1230 -0.5740 -0.2307
 3748TIP3   OH232658   2.041   5.496  10.739  0.7037 -1.1365  0.5549
 3748TIP3    H132659   2.016   5.453  10.658  2.4129 -0.4373 -0.3791
 3748TIP3    H232660   2.036   5.426  10.805 -2.3241 -1.3492  0.2733
 3749TIP3   OH232661   3.543   6.491  14.284 -0.4704  0.6003  0.2009
 3749TIP3    H132662   3.518   6.498  14.192  1.0441  1.0951 -0.2113
 3749TIP3    H232663   3.472   6.533  14.332 -2.5069 -1.8286 -0.5014
 3750TIP3   OH232664   1.101   5.807   0.647  0.2293  0.2523 -0.2165
 3750TIP3    H132665   1.028   5.868   0.631 -0.1091 -0.0789  0.0314
 3750TIP3    H232666   1.058   5.723   0.666  0.6328  0.3367  1.1732
 3751TIP3   OH232667   3.796   0.651   4.387 -0.3101 -0.0218  0.6935
 3751TIP3    H132668   3.841   0.599   4.455 -0.5840  0.6916  1.4351
 3751TIP3    H232669   3.866   0.681   4.330  0.0745  0.3479  1.3393
 3752TIP3   OH232670   0.549   5.074  16.059  0.0632  0.1855  0.5229
 3752TIP3    H132671   0.518   5.105  15.974  0.3501 -0.6465  0.1020
 3752TIP3    H232672   0.488   5.112  16.122  0.0593  1.1064 -0.0114
 3753TIP3   OH232673   0.846   0.057   1.862  0.2498 -0.3647 -0.2295
 3753TIP3    H132674   0.889  -0.029   1.856  0.8400 -0.0243 -1.1571
 3753TIP3    H232675   0.818   0.063   1.953 -0.9465 -2.0797 -0.4345
 3754TIP3   OH232676   2.414   0.123   0.895 -0.1562  0.2260 -0.6014
 3754TIP3    H132677   2.469   0.155   0.967  1.5546  0.8486 -2.1104
 3754TIP3    H232678   2.331   0.169   0.907  0.3117  0.8185  0.6003
 3755TIP3   OH232679   6.772   6.072   2.749 -0.1226  0.0622 -0.4049
 3755TIP3    H132680   6.731   6.158   2.746 -0.1279  0.0486 -2.0995
 3755TIP3    H232681   6.747   6.031   2.666  1.3194 -0.8681 -0.4235
 3756TIP3   OH232682   5.376   1.214  16.938  0.5090  0.1052  0.0404
 3756TIP3    H132683   5.362   1.146  16.872 -1.0830 -1.0520  1.4539
 3756TIP3    H232684   5.468   1.205  16.963  1.0912  0.4430 -1.8285
 3757TIP3   OH232685   4.550   0.645   2.324 -0.8918  0.2260  0.3331
 3757TIP3    H132686   4.493   0.573   2.351  0.0220 -0.4643  0.4725
 3757TIP3    H232687   4.585   0.618   2.239 -1.7200  1.2081 -0.3409
 3758TIP3   OH232688   4.758   0.111   1.363 -0.0860  0.0998 -0.8079
 3758TIP3    H132689   4.673   0.090   1.401  0.6415 -1.3239  0.1229
 3758TIP3    H232690   4.759   0.064   1.279  1.1382 -3.0965  0.8134
 3759TIP3   OH232691   5.089   5.105   0.552 -0.2547 -0.0755  0.9314
 3759TIP3    H132692   5.046   5.156   0.484 -0.6866 -1.9408 -0.2640
 3759TIP3    H232693   5.018   5.074   0.608 -0.0646  0.0294  1.2384
 3760TIP3   OH232694   6.771   0.104   1.330 -0.1955  0.0028 -0.0058
 3760TIP3    H132695   6.838   0.040   1.305 -0.2974  0.8462 -2.8452
 3760TIP3    H232696   6.694   0.079   1.280 -1.7767 -0.3603  2.4564
 3761TIP3   OH232697   5.274   1.258   2.942 -0.4194 -0.6302  0.0252
 3761TIP3    H132698   5.285   1.236   2.849 -1.4037  0.8631 -0.4790
 3761TIP3    H232699   5.352   1.308   2.965  1.3510 -3.5348  0.9141
 3762TIP3   OH232700   2.538   4.645  13.648 -0.1527  0.4971  0.2947
 3762TIP3    H132701   2.491   4.701  13.709 -0.5965  1.7139 -1.1134
 3762TIP3    H232702   2.527   4.556  13.683 -2.5070  0.8749  0.6309
 3763TIP3   OH232703   6.420   6.772  14.139  0.5978 -0.1991  0.2378
 3763TIP3    H132704   6.509   6.762  14.172  0.8278  3.9600  1.4188
 3763TIP3    H232705   6.366   6.784  14.218 -0.7153 -0.7181 -0.5432
 3764TIP3   OH232706   2.574   2.929   2.315  0.2528  0.9290 -0.0906
 3764TIP3    H132707   2.533   2.935   2.229  0.9395  0.4366 -0.4682
 3764TIP3    H232708   2.659   2.973   2.304  1.1613 -0.7505 -0.2187
 3765TIP3   OH232709   4.579   4.048   1.199  0.4498 -0.4876 -0.1576
 3765TIP3    H132710   4.659   4.096   1.180  1.0647 -1.5403 -0.3388
 3765TIP3    H232711   4.514   4.082   1.137  1.0469 -0.3622 -0.7237
 3766TIP3   OH232712   4.471   6.054  11.202  0.9912  0.3615 -0.6560
 3766TIP3    H132713   4.426   5.971  11.189 -0.0105  0.8624 -0.5141
 3766TIP3    H232714   4.515   6.072  11.119  0.8764 -0.1047 -0.8198
 3767TIP3   OH232715   2.413   3.262   3.984 -0.2258 -0.1489 -0.0620
 3767TIP3    H132716   2.430   3.355   3.999  0.2034  0.1358 -2.0047
 3767TIP3    H232717   2.322   3.250   4.011 -0.1132  0.7011  0.7358
 3768TIP3   OH232718   3.453   1.797   1.943  0.4553 -0.3679  0.4940
 3768TIP3    H132719   3.530   1.781   1.889 -0.2268 -0.7157 -0.3903
 3768TIP3    H232720   3.416   1.878   1.907  0.3504 -0.2517  0.8609
 3769TIP3   OH232721   0.938   5.556  13.831  0.8342 -0.2293 -0.1905
 3769TIP3    H132722   0.964   5.647  13.813 -0.2227  0.9889  3.4263
 3769TIP3    H232723   0.843   5.556  13.821  0.7580 -0.7506  0.4731
 3770TIP3   OH232724   1.378   2.943   0.540  0.2133 -0.4667 -0.3760
 3770TIP3    H132725   1.357   2.956   0.633  0.6602  1.5323 -0.5050
 3770TIP3    H232726   1.305   2.985   0.493  1.7741  1.8852 -0.8565
 3771TIP3   OH232727   1.220   0.859   1.714 -0.1537  1.2388 -0.2530
 3771TIP3    H132728   1.271   0.898   1.785 -3.9696  0.1617  3.4924
 3771TIP3    H232729   1.165   0.931   1.682 -1.7835  0.7435  1.3154
 3772TIP3   OH232730   6.455   5.896   0.388  0.3576  0.0014  0.3294
 3772TIP3    H132731   6.381   5.852   0.429  0.2479  0.0765  0.2122
 3772TIP3    H232732   6.460   5.856   0.300  1.0646 -0.7114  0.6800
 3773TIP3   OH232733   0.598   5.559  12.810  0.1912 -0.0360  0.0868
 3773TIP3    H132734   0.580   5.639  12.759  0.2617 -0.6170 -0.8739
 3773TIP3    H232735   0.682   5.577  12.852  1.1044 -0.2573 -1.5489
 3774TIP3   OH232736   2.574   0.519  15.097  0.4510 -0.5944  0.1427
 3774TIP3    H132737   2.496   0.558  15.057  0.4425 -0.4867  0.2640
 3774TIP3    H232738   2.617   0.473  15.025  0.0916 -0.9434  0.1489
 3775TIP3   OH232739   0.226   0.671  15.661  0.1044  0.2219 -0.1987
 3775TIP3    H132740   0.287   0.617  15.610 -0.4948 -0.7867  0.1066
 3775TIP3    H232741   0.154   0.611  15.682  0.9456  0.1486  2.9976
 3776TIP3   OH232742   2.785   5.544   4.469  0.4975  0.0810  0.0662
 3776TIP3    H132743   2.744   5.601   4.403 -2.3877 -0.1404  1.5369
 3776TIP3    H232744   2.796   5.460   4.425 -1.1399  0.0149 -0.2771
 3777TIP3   OH232745   6.552   3.049   2.282  0.0804 -0.1412 -0.3672
 3777TIP3    H132746   6.486   3.115   2.262 -0.5553 -0.2165  1.2674
 3777TIP3    H232747   6.614   3.095   2.340  0.2806 -0.6417 -0.1813
 3778TIP3   OH232748   1.523   5.474  13.863 -0.1182  0.3661 -0.4599
 3778TIP3    H132749   1.538   5.446  13.953 -0.1254 -0.3249 -0.6737
 3778TIP3    H232750   1.453   5.539  13.870 -2.6536 -2.1926 -0.3074
 3779TIP3   OH232751   5.007   5.191   5.436 -0.4214 -0.3187  0.0681
 3779TIP3    H132752   5.068   5.186   5.362 -1.1676  0.0259 -0.5838
 3779TIP3    H232753   4.937   5.248   5.406 -0.8021 -0.2661  1.0092
 3780TIP3   OH232754   1.632   1.743   3.534 -0.0953 -0.4672  0.4353
 3780TIP3    H132755   1.640   1.709   3.445  0.1521  1.8087 -0.4817
 3780TIP3    H232756   1.694   1.691   3.585  1.1465 -0.5894 -1.1121
 3781TIP3   OH232757   6.756   0.034   1.610  0.2161 -0.0328  0.6055
 3781TIP3    H132758   6.755  -0.016   1.529 -0.5459 -0.8913  1.1226
 3781TIP3    H232759   6.826   0.097   1.599  0.2395 -0.2614 -0.6471
 3782TIP3   OH232760   6.755   1.273  15.976 -0.2942 -0.3598  0.6162
 3782TIP3    H132761   6.716   1.189  15.950 -0.2433 -0.5174  1.0546
 3782TIP3    H232762   6.696   1.339  15.939 -0.7105 -0.5953  0.8604
 3783TIP3   OH232763   0.789   0.021  14.761  0.5725 -0.2241  0.3986
 3783TIP3    H132764   0.765   0.012  14.669  0.7174 -0.8530  0.4165
 3783TIP3    H232765   0.755  -0.058  14.803  1.2220 -0.3383  0.7286
 3784TIP3   OH232766   3.872   1.956  11.262 -0.5925 -0.7228  0.7804
 3784TIP3    H132767   3.858   1.940  11.356  0.3056 -1.2117  0.8420
 3784TIP3    H232768   3.964   1.980  11.255 -0.9113  0.3949  0.1398
 3785TIP3   OH232769   4.519   0.003  16.987  0.3205  0.0044 -0.1310
 3785TIP3    H132770   4.549   0.094  16.990 -0.3665  0.2349  0.0684
 3785TIP3    H232771   4.441   0.002  17.042  0.3298 -0.7159 -0.1176
 3786TIP3   OH232772   6.267   1.066   3.943  0.4351 -0.1192 -0.1599
 3786TIP3    H132773   6.327   0.995   3.967  0.0130 -0.3401  0.2549
 3786TIP3    H232774   6.325   1.139   3.921  0.8653 -0.4382 -0.1036
 3787TIP3   OH232775   2.940   6.721  11.850  0.0629  0.1849  0.1164
 3787TIP3    H132776   2.898   6.641  11.816 -0.2968  0.5626 -0.3485
 3787TIP3    H232777   3.031   6.694  11.868 -0.7299 -1.1020  2.7545
 3788TIP3   OH232778   0.825   3.223  13.788 -0.5453 -0.0508  0.2220
 3788TIP3    H132779   0.823   3.280  13.865 -0.8688 -0.0460  0.2132
 3788TIP3    H232780   0.733   3.199  13.774 -0.9663  2.3126 -1.9212
 3789TIP3   OH232781   6.398   1.644  13.961 -0.6355  0.0578  0.6576
 3789TIP3    H132782   6.380   1.677  14.050  0.4208 -0.4716  1.0823
 3789TIP3    H232783   6.332   1.686  13.907 -1.1084  0.6406  1.6471
 3790TIP3   OH232784   3.576   2.641   3.876  1.3309 -0.1798 -0.7097
 3790TIP3    H132785   3.609   2.698   3.806  1.8680  0.4225  0.0261
 3790TIP3    H232786   3.604   2.684   3.957  0.5422 -0.7681 -0.1171
 3791TIP3   OH232787   3.952   2.846  12.388 -0.0097 -0.6078 -0.0520
 3791TIP3    H132788   3.914   2.830  12.301 -0.3133  0.6377 -0.1648
 3791TIP3    H232789   3.946   2.940  12.399  3.2065 -0.3160 -0.1047
 3792TIP3   OH232790   1.909   0.069  16.689  0.1859 -0.1899  0.3796
 3792TIP3    H132791   1.848   0.059  16.616  0.5119  2.2257 -0.2927
 3792TIP3    H232792   1.975   0.000  16.673 -0.0895 -0.1295 -1.2631
 3793TIP3   OH232793   3.398   3.670   1.354  0.4920  0.2244 -0.1284
 3793TIP3    H132794   3.424   3.603   1.417  1.1897 -0.1530 -0.7939
 3793TIP3    H232795   3.468   3.735   1.358  0.3620  0.3750 -0.2667
 3794TIP3   OH232796   4.483   0.848  16.461  0.5819 -0.3251  0.3824
 3794TIP3    H132797   4.482   0.863  16.556  0.6638 -0.0074  0.3350
 3794TIP3    H232798   4.564   0.889  16.432  1.9249 -2.7066  0.5363
 3795TIP3   OH232799   5.334   5.032   3.553  0.6472  0.2056  0.5252
 3795TIP3    H132800   5.315   4.975   3.628  0.8981  1.3966  1.5263
 3795TIP3    H232801   5.379   5.107   3.591 -0.0581  1.2776 -0.7017
 3796TIP3   OH232802   1.770   3.727  15.349 -0.1368  0.1035  0.1245
 3796TIP3    H132803   1.796   3.707  15.439 -1.4927 -1.7431  0.1600
 3796TIP3    H232804   1.707   3.799  15.358  0.3113  0.4486  0.5641
 3797TIP3   OH232805   1.335   0.298  16.563  0.7557  0.1581  0.5015
 3797TIP3    H132806   1.284   0.334  16.635 -0.8610 -0.8845 -0.0556
 3797TIP3    H232807   1.426   0.322  16.582  0.2375  0.7640  2.3390
 3798TIP3   OH232808   1.116   6.180   1.654  0.4991  0.1978  0.2671
 3798TIP3    H132809   1.035   6.130   1.668  0.2883  0.0378 -1.3886
 3798TIP3    H232810   1.093   6.270   1.678 -0.1293  0.1294 -0.0583
 3799TIP3   OH232811   4.263   2.245   1.214  0.9119  0.7369  0.0009
 3799TIP3    H132812   4.201   2.315   1.233 -1.5108 -0.6190 -2.2457
 3799TIP3    H232813   4.222   2.167   1.252 -0.0291 -0.5711 -3.3718
 3800TIP3   OH232814   2.032   2.983   4.632 -0.2288 -0.0045  0.8876
 3800TIP3    H132815   2.068   3.071   4.642 -0.7139  0.3834 -0.5133
 3800TIP3    H232816   1.998   2.961   4.718  1.6578  0.3606  1.7794
 3801TIP3   OH232817   1.695   4.083   5.469  0.1247 -0.4784  0.1871
 3801TIP3    H132818   1.657   4.145   5.406 -1.9822 -2.8789 -1.0362
 3801TIP3    H232819   1.778   4.056   5.428  0.1031  0.0262 -0.2074
 3802TIP3   OH232820   1.095   0.540  16.444  0.1353  0.4989  0.3146
 3802TIP3    H132821   1.063   0.451  16.459 -0.1284  0.4323 -0.6352
 3802TIP3    H232822   1.039   0.595  16.500  0.2173  0.0901  0.8065
 3803TIP3   OH232823   3.016   0.133   4.377 -0.4014 -0.0952  0.0222
 3803TIP3    H132824   3.086   0.127   4.313 -0.0974 -0.2704  0.3674
 3803TIP3    H232825   3.054   0.181   4.450 -0.9713  0.7761 -0.2293
 3804TIP3   OH232826   4.091   1.603  16.732 -0.9105  0.1613 -0.0815
 3804TIP3    H132827   4.178   1.567  16.710 -0.6716  0.0192  1.0631
 3804TIP3    H232828   4.040   1.590  16.652  0.1367  0.3014 -0.7945
 3805TIP3   OH232829   4.820   5.074  14.292  0.3048 -0.1740 -0.2056
 3805TIP3    H132830   4.725   5.079  14.302 -0.1502 -2.3203 -2.5769
 3805TIP3    H232831   4.834   5.015  14.218  3.5106  0.1115  0.0221
 3806TIP3   OH232832   3.985   2.308   1.330 -0.5462  0.1110  0.1363
 3806TIP3    H132833   3.978   2.276   1.420 -1.2053 -0.9193 -0.2677
 3806TIP3    H232834   3.904   2.279   1.288  0.8758 -1.6939 -1.5047
 3807TIP3   OH232835   2.597   2.551   2.467  0.2128  0.0800 -0.0745
 3807TIP3    H132836   2.565   2.514   2.549 -0.2033  2.1889  0.7917
 3807TIP3    H232837   2.625   2.476   2.415 -0.6217 -1.3920  1.5245
 3808TIP3   OH232838   1.164   0.562   3.115 -0.8262  0.4860  0.9058
 3808TIP3    H132839   1.206   0.476   3.121  0.6859  1.1578  0.2547
 3808TIP3    H232840   1.112   0.557   3.035  1.0014  0.8749 -0.3650
 3809TIP3   OH232841   1.576   2.122   1.184 -0.4133  0.2749 -0.1368
 3809TIP3    H132842   1.537   2.071   1.255 -0.9523  0.8030 -0.0485
 3809TIP3    H232843   1.514   2.194   1.169 -0.6662 -0.2082 -1.6020
 3810TIP3   OH232844   5.887   6.423   5.657 -0.0930  0.3629 -0.2361
 3810TIP3    H132845   5.878   6.490   5.725 -0.0184  1.2461 -1.0809
 3810TIP3    H232846   5.893   6.472   5.575  0.1508 -0.6737 -0.8568
 3811TIP3   OH232847   0.262   4.126  16.987  0.1872 -0.2092 -1.1687
 3811TIP3    H132848   0.170   4.111  16.966  0.0415 -1.1901  0.0094
 3811TIP3    H232849   0.261   4.204  17.044  0.0025 -0.5535 -0.6900
 3812TIP3   OH232850   6.787   5.276   3.341  0.5137  0.9782  0.0005
 3812TIP3    H132851   6.882   5.281   3.337  0.6275 -0.7438 -3.5656
 3812TIP3    H232852   6.769   5.190   3.379  0.8163 -1.4828 -4.5956
 3813TIP3   OH232853   3.485   2.846  10.874  0.0948  0.3028  0.3572
 3813TIP3    H132854   3.531   2.763  10.868 -0.1218  0.2623 -0.9933
 3813TIP3    H232855   3.549   2.906  10.914  1.4307  0.2892 -1.6206
 3814TIP3   OH232856   6.025   3.888  15.922 -0.3549  0.0454 -0.1502
 3814TIP3    H132857   6.061   3.800  15.909  0.7177  0.5767 -0.9423
 3814TIP3    H232858   6.089   3.931  15.979 -0.4240  0.5845 -0.4783
 3815TIP3   OH232859   1.918   4.089  14.292 -0.1248  0.0412  0.2209
 3815TIP3    H132860   1.965   4.171  14.278  0.9793 -0.8843 -1.9679
 3815TIP3    H232861   1.829   4.106  14.260 -0.8324  1.2163  2.5844
 3816TIP3   OH232862   3.508   5.296   2.391 -0.0205  0.2917  0.6061
 3816TIP3    H132863   3.596   5.333   2.383  1.7595 -3.6240 -0.7313
 3816TIP3    H232864   3.474   5.330   2.474  3.5758  0.4642  2.1776
 3817TIP3   OH232865   1.207   6.720   1.417 -0.1772  0.2830 -0.2499
 3817TIP3    H132866   1.151   6.795   1.397 -0.3040 -0.0555 -1.1782
 3817TIP3    H232867   1.285   6.759   1.457 -0.4700  0.8646 -0.2300
 3818TIP3   OH232868   3.537   4.553   5.187 -0.6474  0.3001  0.1131
 3818TIP3    H132869   3.631   4.561   5.202 -0.7106 -0.0329  0.6957
 3818TIP3    H232870   3.527   4.474   5.134 -0.4527  1.3091 -1.5349
 3819TIP3   OH232871   3.981   1.119   1.278 -0.4942 -0.4625  0.9075
 3819TIP3    H132872   4.053   1.121   1.341 -0.3964 -2.5807  0.9293
 3819TIP3    H232873   3.960   1.026   1.269 -1.0345 -0.1647 -1.5843
 3820TIP3   OH232874   3.142   4.701   4.933  0.0923  0.3908 -0.1159
 3820TIP3    H132875   3.077   4.645   4.977 -0.1870 -0.5836 -1.6853
 3820TIP3    H232876   3.179   4.645   4.865  0.9471  1.6554 -0.7255
 3821TIP3   OH232877   3.613   6.405  16.806  0.4240  0.5903  0.2468
 3821TIP3    H132878   3.645   6.383  16.894 -0.7345  1.8676  1.0251
 3821TIP3    H232879   3.646   6.493  16.790  1.4978 -0.0327 -1.0599
 3822TIP3   OH232880   1.211   2.238   3.556  0.0569 -0.2554 -0.1224
 3822TIP3    H132881   1.131   2.198   3.522 -0.5519  0.5777  0.2964
 3822TIP3    H232882   1.260   2.263   3.477 -0.5473  0.1098 -0.3865
 3823TIP3   OH232883   4.007   4.209   3.404  0.7516  0.0037  0.0415
 3823TIP3    H132884   3.976   4.124   3.435 -0.8452 -0.3278 -2.1883
 3823TIP3    H232885   3.968   4.273   3.464 -0.3987 -0.6993  0.0616
 3824TIP3   OH232886   0.701   4.363  13.225  0.1542 -0.0295  0.2753
 3824TIP3    H132887   0.698   4.457  13.209  1.9653 -0.3297 -2.7165
 3824TIP3    H232888   0.794   4.343  13.234 -0.3206 -1.2187  4.0831
 3825TIP3   OH232889   6.173   4.227   2.428 -0.2762  0.2984 -0.0750
 3825TIP3    H132890   6.180   4.250   2.335 -0.0822 -0.4605 -0.2587
 3825TIP3    H232891   6.098   4.278   2.460  0.0922  1.1044 -0.4707
 3826TIP3   OH232892   6.333   3.380  16.992  0.1256 -0.3252  0.4948
 3826TIP3    H132893   6.307   3.457  16.942 -0.4495 -1.4748 -1.0503
 3826TIP3    H232894   6.276   3.310  16.960  1.2735 -1.6166  1.1713
 3827TIP3   OH232895   3.550   5.325  13.575 -0.2932 -0.0562 -0.8875
 3827TIP3    H132896   3.637   5.350  13.545 -0.3385  1.6406  0.2303
 3827TIP3    H232897   3.555   5.232  13.592  1.5761  0.1916  0.0434
 3828TIP3   OH232898   5.825   2.957  15.596  0.1831 -0.0680  0.5085
 3828TIP3    H132899   5.784   2.877  15.562 -0.7071  1.1897 -1.5778
 3828TIP3    H232900   5.889   2.981  15.529 -0.1903  1.4346  0.6524
 3829TIP3   OH232901   2.281   1.032  15.368  0.3147 -0.3409  0.2461
 3829TIP3    H132902   2.188   1.039  15.389  0.3169 -0.5806  0.3301
 3829TIP3    H232903   2.309   0.951  15.409  0.2081 -1.0726 -1.0541
 3830TIP3   OH232904   4.242   5.181  12.644 -0.2354 -0.1575 -0.0251
 3830TIP3    H132905   4.307   5.143  12.585  0.5265 -0.6517  1.0927
 3830TIP3    H232906   4.159   5.171  12.597 -0.0573 -3.0532  0.0575
 3831TIP3   OH232907   4.954   5.247   0.054  0.1891  0.0084 -0.7670
 3831TIP3    H132908   5.007   5.312   0.100 -1.1860 -0.0777  1.0061
 3831TIP3    H232909   4.943   5.175   0.116 -0.6922 -0.6674 -1.6687
 3832TIP3   OH232910   2.400   5.871  15.092  0.1052 -0.4028 -0.6211
 3832TIP3    H132911   2.353   5.804  15.043  0.8660 -1.2322 -0.2550
 3832TIP3    H232912   2.415   5.942  15.029 -2.1536  0.1886 -0.5893
 3833TIP3   OH232913   3.968   3.316  15.641 -0.2884  0.2019 -0.0594
 3833TIP3    H132914   3.905   3.267  15.589 -0.4565  2.7863 -2.4902
 3833TIP3    H232915   4.044   3.258  15.648 -0.4269 -0.4456 -2.8720
 3834TIP3   OH232916   2.266   1.389  16.704 -0.2674 -0.4915  0.1685
 3834TIP3    H132917   2.318   1.462  16.671 -0.2868  0.0868  1.3768
 3834TIP3    H232918   2.175   1.421  16.700 -0.2821 -0.4671  0.6259
 3835TIP3   OH232919   4.723   3.353  13.829  0.1623  0.1517  0.4838
 3835TIP3    H132920   4.768   3.340  13.912  1.0494 -0.6404 -0.0932
 3835TIP3    H232921   4.668   3.275  13.819  1.1058 -0.4354 -0.2973
 3836TIP3   OH232922   6.592   3.310  17.142  0.1216  0.0451  0.1012
 3836TIP3    H132923   6.591   3.222  17.181  1.4206 -0.0631 -0.0708
 3836TIP3    H232924   6.515   3.311  17.085 -2.1765  0.4083  2.9763
 3837TIP3   OH232925   3.562   2.367   2.643 -0.4862 -0.1265 -0.0144
 3837TIP3    H132926   3.588   2.282   2.607  2.4914  0.6944  0.0161
 3837TIP3    H232927   3.587   2.363   2.735 -1.3507  0.4096  0.2558
 3838TIP3   OH232928   2.793   4.561   3.324  0.0098  0.0858 -0.1759
 3838TIP3    H132929   2.732   4.620   3.280  0.8022  1.3459  0.3469
 3838TIP3    H232930   2.746   4.530   3.401  0.8197  3.1546  1.7238
 3839TIP3   OH232931   3.508   4.131   4.500  0.0233  0.0197 -0.2990
 3839TIP3    H132932   3.423   4.128   4.544  0.7117 -0.5000  1.0643
 3839TIP3    H232933   3.487   4.128   4.407 -1.5532  2.7007 -0.1205
 3840TIP3   OH232934   0.514   5.637  13.181  0.1702 -0.0558 -0.3851
 3840TIP3    H132935   0.442   5.635  13.118  1.2258 -2.2147 -1.6378
 3840TIP3    H232936   0.485   5.580  13.253 -0.7625  1.8875  0.8555
 3841TIP3   OH232937   1.097   2.899   2.158  0.5416 -0.1816  0.0190
 3841TIP3    H132938   1.132   2.946   2.083 -0.9686  1.8202  0.4980
 3841TIP3    H232939   1.156   2.920   2.230 -0.4412  1.5477  0.3660
 3842TIP3   OH232940   0.397   1.543  11.758 -0.0977 -0.0771  0.2805
 3842TIP3    H132941   0.489   1.518  11.756  0.1582  0.8435 -0.1037
 3842TIP3    H232942   0.397   1.637  11.736 -1.1852 -0.2390 -0.5011
 3843TIP3   OH232943   2.241   3.599  13.087  0.3169 -0.1270 -0.4033
 3843TIP3    H132944   2.231   3.505  13.101  0.6371  0.0907  1.4387
 3843TIP3    H232945   2.252   3.636  13.174 -1.5611  1.8562 -0.9316
 3844TIP3   OH232946   0.303   1.329  10.950 -0.3193 -0.3472  0.2987
 3844TIP3    H132947   0.379   1.339  10.894  0.0913 -1.0758  0.7222
 3844TIP3    H232948   0.338   1.295  11.032 -1.0665 -0.4309  0.5880
 3845TIP3   OH232949   0.276   5.229  17.023  0.3231 -0.2073 -0.2814
 3845TIP3    H132950   0.239   5.249  17.109 -0.4460 -0.7624 -0.4672
 3845TIP3    H232951   0.214   5.166  16.985  0.5537  0.1737 -1.3122
 3846TIP3   OH232952   4.266   6.261   2.046 -0.3200  0.1407  0.6703
 3846TIP3    H132953   4.353   6.230   2.019 -1.3400 -2.6672  0.3433
 3846TIP3    H232954   4.250   6.216   2.129 -1.7170  0.1595  0.4226
 3847TIP3   OH232955   3.218   1.314   2.831  0.5245 -0.1790 -0.0905
 3847TIP3    H132956   3.226   1.408   2.846 -0.6406  0.5432 -3.1334
 3847TIP3    H232957   3.139   1.289   2.880  1.3878  0.1711  1.5361
 3848TIP3   OH232958   5.912   5.845  14.145  0.3400 -0.0005 -0.5315
 3848TIP3    H132959   5.863   5.823  14.065  0.6465  1.1232 -1.0563
 3848TIP3    H232960   5.944   5.761  14.178  0.9692 -0.4006 -2.0901
 3849TIP3   OH232961   0.475   3.492  13.391 -0.5834 -0.0527 -0.7507
 3849TIP3    H132962   0.379   3.489  13.387 -0.6862  1.7803 -0.4127
 3849TIP3    H232963   0.500   3.405  13.423 -2.0969 -0.7191 -1.2955
 3850TIP3   OH232964   3.802   6.436   3.980  0.3376  0.4440  0.1330
 3850TIP3    H132965   3.817   6.522   3.943 -0.6021  0.9816  0.9479
 3850TIP3    H232966   3.717   6.409   3.946  0.9229 -0.4619 -0.6469
 3851TIP3   OH232967   6.379   4.031   4.438  0.3747  0.0554 -0.2435
 3851TIP3    H132968   6.355   4.116   4.402 -1.0655  0.6663  1.9291
 3851TIP3    H232969   6.307   4.009   4.498  2.3470 -1.0356  1.9018
 3852TIP3   OH232970   3.844   0.585   3.051 -0.4027  0.9541  0.1477
 3852TIP3    H132971   3.867   0.657   2.991 -1.2072  0.8299 -0.3164
 3852TIP3    H232972   3.779   0.534   3.003 -0.5942  0.4980  0.8902
 3853TIP3   OH232973   1.665   4.373  16.975  0.3908 -0.7040 -0.2931
 3853TIP3    H132974   1.744   4.329  16.944  1.5414 -0.2494  1.8138
 3853TIP3    H232975   1.677   4.464  16.951 -0.2198 -0.8762 -1.2964
 3854TIP3   OH232976   5.415   3.464  11.782  0.5416  0.2354  0.2681
 3854TIP3    H132977   5.443   3.436  11.870 -0.3074  0.6309  0.6784
 3854TIP3    H232978   5.424   3.560  11.784  2.9451  0.1087 -0.9510
 3855TIP3   OH232979   1.325   5.773   4.719  0.3228 -0.0435  0.2563
 3855TIP3    H132980   1.315   5.754   4.813 -1.6262 -0.5906 -0.0213
 3855TIP3    H232981   1.262   5.843   4.701  0.1068 -0.4867 -0.7881
 3856TIP3   OH232982   5.334   0.222  14.479  0.1823  0.8239  0.4168
 3856TIP3    H132983   5.356   0.291  14.416  1.5940 -0.1836 -0.2381
 3856TIP3    H232984   5.359   0.140  14.436 -0.7536 -0.0574  1.4759
 3857TIP3   OH232985   5.965   2.556  17.159 -0.1995 -0.3029 -1.0583
 3857TIP3    H132986   5.913   2.621  17.205 -0.3212 -1.5447  0.6721
 3857TIP3    H232987   6.051   2.597  17.148  0.1710 -0.2917  1.2784
 3858TIP3   OH232988   0.983   3.156   0.974  0.2000  0.6528 -0.3651
 3858TIP3    H132989   0.932   3.221   1.021 -1.4256 -0.0384 -1.0970
 3858TIP3    H232990   1.057   3.205   0.938  1.2788  1.2743  2.4844
 3859TIP3   OH232991   4.100   5.595  16.639  0.1846  0.0228 -0.5246
 3859TIP3    H132992   4.065   5.684  16.625 -1.0784 -0.2781  0.4761
 3859TIP3    H232993   4.075   5.547  16.560  0.4591  0.4323 -0.8662
 3860TIP3   OH232994   3.393   4.766   5.098  0.0094  0.3893 -0.5436
 3860TIP3    H132995   3.427   4.685   5.136  0.0517  0.3692 -0.6241
 3860TIP3    H232996   3.330   4.736   5.032  0.2749  0.4169 -0.8098
 3861TIP3   OH232997   6.110   0.661  13.148 -0.0527  0.7653  0.4936
 3861TIP3    H132998   6.198   0.659  13.186 -0.3394 -1.2481  1.1926
 3861TIP3    H232999   6.053   0.683  13.222 -0.2537  0.9087  0.2972
 3862TIP3   OH233000   3.308   0.851   1.413 -0.4375  0.1152 -0.7310
 3862TIP3    H133001   3.305   0.854   1.317 -1.4709  0.8418 -0.7040
 3862TIP3    H233002   3.256   0.927   1.440 -2.4419 -1.5381  0.3858
 3863TIP3   OH233003   4.978   0.315  13.738 -0.4023  0.7000  0.1913
 3863TIP3    H133004   5.030   0.242  13.703 -0.6399  1.0851 -1.0448
 3863TIP3    H233005   4.889   0.296  13.710 -0.7632  0.5824  1.3909
 3864TIP3   OH233006   6.212   4.167   4.989 -0.6094 -0.2888  0.1722
 3864TIP3    H133007   6.282   4.189   4.928 -0.7294 -1.9848 -0.6293
 3864TIP3    H233008   6.255   4.158   5.074 -0.1000  0.0875 -0.0480
 3865TIP3   OH233009   0.298   1.115  15.128  0.1362 -0.0474  0.2159
 3865TIP3    H133010   0.305   1.208  15.149 -0.3221  0.5571 -2.0442
 3865TIP3    H233011   0.215   1.108  15.080 -0.7008 -1.9592  1.8200
 3866TIP3   OH233012   2.105   6.024   0.076  0.3356  0.0378 -0.0949
 3866TIP3    H133013   2.085   5.933   0.100  0.0614  0.0572 -0.2349
 3866TIP3    H233014   2.025   6.072   0.097  0.1632  0.0917 -0.8352
 3867TIP3   OH233015   0.318   5.445   0.308  0.3632  0.1940 -0.2276
 3867TIP3    H133016   0.346   5.510   0.372 -1.3431 -0.9283  1.7800
 3867TIP3    H233017   0.324   5.361   0.354 -0.3507 -0.7433 -1.7471
 3868TIP3   OH233018   5.291   0.017  12.729 -0.0433  0.0455 -0.2634
 3868TIP3    H133019   5.210   0.045  12.685  0.0671  0.1149 -0.4229
 3868TIP3    H233020   5.310   0.088  12.791 -1.0394 -0.7538  1.0138
 3869TIP3   OH233021   1.232   4.464  12.371 -0.0478  0.2775 -0.1642
 3869TIP3    H133022   1.145   4.425  12.382 -0.7024  2.0038  1.5857
 3869TIP3    H233023   1.290   4.391  12.353 -2.0619 -0.7998 -3.0667
 3870TIP3   OH233024   4.496   2.789   5.011 -0.9409 -0.4075 -0.1173
 3870TIP3    H133025   4.547   2.845   5.069  1.0508 -0.9032 -1.3271
 3870TIP3    H233026   4.488   2.838   4.930 -1.5400 -0.7545 -0.2763
 3871TIP3   OH233027   0.785   3.245   3.471  0.0090  0.2369  0.6629
 3871TIP3    H133028   0.761   3.172   3.414 -0.8470  0.4834  0.6984
 3871TIP3    H233029   0.701   3.284   3.497  0.4743  1.6326  0.1393
 3872TIP3   OH233030   2.206   0.175  13.653 -0.1405 -0.3934  0.5006
 3872TIP3    H133031   2.118   0.142  13.639 -0.4165  0.0435  1.1345
 3872TIP3    H233032   2.254   0.102  13.691  0.0336 -0.9189 -0.6916
 3873TIP3   OH233033   6.558   5.374   0.171 -0.1239 -0.0147  0.1564
 3873TIP3    H133034   6.624   5.442   0.177  0.1756  0.2389 -3.7288
 3873TIP3    H233035   6.595   5.300   0.221  2.9319  0.2711 -1.4731
 3874TIP3   OH233036   1.713   0.053   5.049  0.2559 -0.4670 -0.6137
 3874TIP3    H133037   1.703   0.055   4.954 -0.7872 -1.4689 -0.5469
 3874TIP3    H233038   1.630   0.019   5.082  1.3302 -2.2546  0.4971
 3875TIP3   OH233039   2.354   1.887  13.901 -0.3231 -0.5025  0.1761
 3875TIP3    H133040   2.313   1.949  13.841 -0.3831  1.8421  2.4465
 3875TIP3    H233041   2.282   1.829  13.929 -1.1889  0.8419  0.8472
 3876TIP3   OH233042   5.116   2.787  12.392  0.5951  0.2751  0.0831
 3876TIP3    H133043   5.092   2.860  12.335  0.2636 -0.4695 -0.7467
 3876TIP3    H233044   5.086   2.709  12.346 -0.4083 -0.3019  1.6320
 3877TIP3   OH233045   6.474   6.110  16.508 -0.2670  0.0883 -0.4087
 3877TIP3    H133046   6.487   6.199  16.540  0.3502 -0.3457  0.5847
 3877TIP3    H233047   6.475   6.055  16.586 -1.2288 -0.7433 -0.9444
 3878TIP3   OH233048   0.992   4.128  15.424  0.4665  0.2212 -0.6044
 3878TIP3    H133049   0.916   4.172  15.462  0.5622 -0.4910  0.4490
 3878TIP3    H233050   0.959   4.089  15.343 -0.0275  0.7883 -0.6844
 3879TIP3   OH233051   2.489   2.195   0.462 -0.0665 -0.7988  0.2074
 3879TIP3    H133052   2.406   2.157   0.432 -1.5122  2.1498  0.1311
 3879TIP3    H233053   2.493   2.174   0.555  0.1741 -2.6822 -0.1817
 3880TIP3   OH233054   4.616   5.391   4.769 -0.1002 -0.1458  0.0450
 3880TIP3    H133055   4.645   5.342   4.692 -1.4432  0.6411 -1.0051
 3880TIP3    H233056   4.635   5.333   4.842  0.6618 -1.1745 -0.9203
 3881TIP3   OH233057   5.865   6.213  14.749  0.2973 -0.8322 -0.5768
 3881TIP3    H133058   5.841   6.241  14.660 -0.2137  0.3731 -0.0810
 3881TIP3    H233059   5.842   6.288  14.804 -1.3091 -2.3214  0.8741
 3882TIP3   OH233060   1.508   6.659  16.316 -0.4713 -0.3295  0.1870
 3882TIP3    H133061   1.466   6.737  16.352 -2.0223 -0.7047 -0.7307
 3882TIP3    H233062   1.482   6.589  16.376  1.0313 -0.1673  1.0877
 3883TIP3   OH233063   3.003   1.924  13.015  0.0433  0.8867 -0.1252
 3883TIP3    H133064   3.011   1.829  13.028  1.8300  0.7699 -1.7547
 3883TIP3    H233065   2.957   1.955  13.094 -1.7403 -1.4608 -0.1331
 3884TIP3   OH233066   2.870   0.507  14.142 -0.4018  0.3559  0.1440
 3884TIP3    H133067   2.811   0.442  14.179  0.7026 -1.6783 -1.4450
 3884TIP3    H233068   2.952   0.496  14.190  0.2127 -0.4496 -1.0319
 3885TIP3   OH233069   3.887   4.418   2.423  0.4463  0.4097  0.2163
 3885TIP3    H133070   3.915   4.370   2.501  0.7051 -0.7966 -0.5910
 3885TIP3    H233071   3.965   4.419   2.367  0.4035  1.6825  0.1651
 3886TIP3   OH233072   5.400   6.104   3.912  0.6732 -0.2645  0.0097
 3886TIP3    H133073   5.328   6.164   3.931  0.4225 -0.2325 -0.9691
 3886TIP3    H233074   5.477   6.147   3.948  0.1056 -0.6666  1.7636
 3887TIP3   OH233075   5.095   5.023   3.054  0.1515 -0.3483  0.1595
 3887TIP3    H133076   5.067   5.115   3.054  0.2881 -0.2981  1.2468
 3887TIP3    H233077   5.020   4.975   3.088  0.9673 -0.3221  2.1278
 3888TIP3   OH233078   6.636   5.255   4.385  0.5231 -0.6249 -0.1698
 3888TIP3    H133079   6.633   5.168   4.425  2.9105 -0.4119  0.6388
 3888TIP3    H233080   6.653   5.314   4.459 -2.3197  0.7867 -0.4852
 3889TIP3   OH233081   4.215   1.159  13.891  0.2354 -0.4181  1.0141
 3889TIP3    H133082   4.240   1.079  13.937  0.8066 -1.8919 -1.6930
 3889TIP3    H233083   4.123   1.145  13.867 -0.4258  0.8466  2.5600
 3890TIP3   OH233084   1.341   1.695   1.021 -0.3363 -0.0321  0.2912
 3890TIP3    H133085   1.359   1.786   0.999  2.8154 -0.1274  1.8848
 3890TIP3    H233086   1.247   1.684   1.003 -0.3502  2.8177 -2.1024
 3891TIP3   OH233087   4.587   5.197  12.619 -0.2715 -0.1167  0.0753
 3891TIP3    H133088   4.515   5.144  12.652 -0.3989  0.8410  1.4219
 3891TIP3    H233089   4.630   5.142  12.553 -1.3574 -1.2392  0.2772
 3892TIP3   OH233090   5.076   2.058  16.228  0.1717 -0.7395  0.8273
 3892TIP3    H133091   5.083   2.071  16.322  2.8082 -0.2293  0.6371
 3892TIP3    H233092   5.140   1.989  16.208 -1.0753 -1.5710 -0.4612
 3893TIP3   OH233093   1.188   2.040   1.328  0.0530  0.3564  0.2229
 3893TIP3    H133094   1.242   2.101   1.278 -0.7079  1.3442  0.5587
 3893TIP3    H233095   1.115   2.094   1.360 -1.6864 -1.1118 -1.0661
 3894TIP3   OH233096   1.160   6.746  16.842 -0.1768 -0.2384 -0.4417
 3894TIP3    H133097   1.242   6.707  16.873 -0.2576 -0.5876 -0.6513
 3894TIP3    H233098   1.146   6.821  16.899  0.5767  0.1530 -0.7481
 3895TIP3   OH233099   5.183   1.882   0.612 -0.1721 -0.1917 -0.3799
 3895TIP3    H133100   5.112   1.922   0.662  0.3648  0.8160 -0.3896
 3895TIP3    H233101   5.262   1.926   0.644  0.3878 -0.9226 -0.7385
 3896TIP3   OH233102   2.978   6.772  11.249 -0.3995  0.2628 -0.4894
 3896TIP3    H133103   3.040   6.840  11.225  0.5198 -1.0381 -2.0492
 3896TIP3    H233104   3.001   6.698  11.192 -2.0672 -0.9608  0.3432
 3897TIP3   OH233105   2.881   4.242   4.557  0.5544 -0.1070  0.5178
 3897TIP3    H133106   2.863   4.246   4.650 -0.9906 -0.5425  0.2675
 3897TIP3    H233107   2.850   4.326   4.523 -0.0464 -0.4324  0.2369
 3898TIP3   OH233108   2.269   2.821   4.397 -0.5992  0.2137  0.0699
 3898TIP3    H133109   2.346   2.861   4.438 -1.8851  0.3464  2.5387
 3898TIP3    H233110   2.231   2.892   4.345 -0.4395  0.9164  0.8904
 3899TIP3   OH233111   5.954   2.585  15.803  0.0904 -0.1491  0.0584
 3899TIP3    H133112   6.031   2.581  15.747 -0.9726 -0.3445 -1.4495
 3899TIP3    H233113   5.942   2.495  15.833  0.5178 -0.0928  0.4056
 3900TIP3   OH233114   1.751   5.830   4.995 -0.5812  0.0779 -0.1774
 3900TIP3    H133115   1.747   5.779   4.914 -0.2112 -0.6915  0.2791
 3900TIP3    H233116   1.703   5.777   5.059 -1.1172  0.8123  0.0442
 3901TIP3   OH233117   2.624   1.805  14.252  0.0393 -0.2903  0.3344
 3901TIP3    H133118   2.619   1.791  14.346  1.6082  2.1507  0.8521
 3901TIP3    H233119   2.594   1.895  14.239  1.0805 -0.1399 -1.3353
 3902TIP3   OH233120   4.902   1.350  13.896  0.5354  0.0588  0.0750
 3902TIP3    H133121   4.850   1.284  13.942 -0.3634  1.6098  1.3974
 3902TIP3    H233122   4.838   1.398  13.843  1.4103 -1.0538 -2.1123
 3903TIP3   OH233123   4.346   0.830  12.293  0.0714  0.1142  0.3462
 3903TIP3    H133124   4.390   0.907  12.259 -1.5075  1.1162  0.4676
 3903TIP3    H233125   4.365   0.761  12.230  1.4500  0.6023  0.2017
 3904TIP3   OH233126   4.229   3.386  15.286  0.2697  0.4611  0.3508
 3904TIP3    H133127   4.292   3.374  15.216 -0.4697  0.9568 -0.4243
 3904TIP3    H233128   4.243   3.476  15.317  0.3557  0.3646  0.5969
 3905TIP3   OH233129   3.451   5.752  12.671 -0.6600 -0.1646 -0.1979
 3905TIP3    H133130   3.412   5.751  12.583 -0.9674  0.7592 -0.0869
 3905TIP3    H233131   3.385   5.795  12.726 -0.4458 -0.6824  0.4752
 3906TIP3   OH233132   6.331   4.028   2.018  0.6682  0.3490  0.0764
 3906TIP3    H133133   6.397   4.002   1.953  0.1628  0.6030 -0.5516
 3906TIP3    H233134   6.310   3.947   2.064  0.2082 -0.0753 -0.8496
 3907TIP3   OH233135   0.156   4.324   3.070  0.3475 -0.6047 -0.1890
 3907TIP3    H133136   0.131   4.266   2.998 -1.2945 -2.2185  1.5415
 3907TIP3    H233137   0.097   4.399   3.062  0.7730 -0.3459 -0.9967
 3908TIP3   OH233138   5.370   5.712   0.798 -0.2927  0.1058  0.0829
 3908TIP3    H133139   5.465   5.699   0.794 -0.1519  1.3730 -2.2456
 3908TIP3    H233140   5.360   5.803   0.827 -0.7394  0.3882 -0.9339
 3909TIP3   OH233141   1.306   3.299  14.773 -0.0085 -0.5787  0.9746
 3909TIP3    H133142   1.257   3.226  14.809  1.1078 -2.2787 -0.7620
 3909TIP3    H233143   1.398   3.272  14.778  0.4200  0.5806  0.0411
 3910TIP3   OH233144   2.851   0.220   4.762  0.5821  0.1662 -0.4715
 3910TIP3    H133145   2.847   0.127   4.740  1.4731  0.3717 -1.5967
 3910TIP3    H233146   2.798   0.228   4.841 -0.4889 -1.0925 -1.0137
 3911TIP3   OH233147   3.976   6.033  14.761 -0.1528  0.2583  0.2889
 3911TIP3    H133148   3.998   6.126  14.758  1.0419 -0.0395 -0.9282
 3911TIP3    H233149   3.898   6.029  14.816  1.3655  1.6620  2.7182
 3912TIP3   OH233150   4.022   3.020  12.668  0.7305  0.0188  0.2972
 3912TIP3    H133151   3.932   3.053  12.676  0.3534 -1.2330  1.7822
 3912TIP3    H233152   4.015   2.947  12.606  0.7474  0.0381  0.2736
 3913TIP3   OH233153   5.319   5.252  12.152 -0.6426  0.6422 -0.2706
 3913TIP3    H133154   5.346   5.242  12.243 -0.1772  0.7555 -0.3955
 3913TIP3    H233155   5.249   5.317  12.155 -0.2978  1.0076 -0.0485
 3914TIP3   OH233156   4.414   3.647   0.895 -0.4455  0.1877 -0.3184
 3914TIP3    H133157   4.361   3.568   0.903 -0.8602  0.5086  0.1760
 3914TIP3    H233158   4.410   3.669   0.802  1.0153 -1.2664 -0.7721
 3915TIP3   OH233159   2.471   6.380   5.821  0.5170 -0.5307 -0.0249
 3915TIP3    H133160   2.391   6.376   5.770  0.5271 -2.3063  0.0267
 3915TIP3    H233161   2.475   6.470   5.854 -0.7631 -0.0636 -1.0870
 3916TIP3   OH233162   2.542   0.984  11.547  0.0610 -0.5969  0.1577
 3916TIP3    H133163   2.630   0.959  11.573 -0.4744 -0.4983  2.2821
 3916TIP3    H233164   2.545   0.990  11.451  1.7369 -2.8750 -0.0159
 3917TIP3   OH233165   3.929   5.669  12.753  0.0274  0.2591 -0.3632
 3917TIP3    H133166   3.933   5.579  12.785  2.6799  0.3434 -0.2592
 3917TIP3    H233167   3.876   5.715  12.818  0.4949 -0.7745  0.7997
 3918TIP3   OH233168   4.613   0.616  15.110  0.8892  0.8196  0.2371
 3918TIP3    H133169   4.554   0.557  15.062  0.8655 -1.3604  2.7385
 3918TIP3    H233170   4.554   0.678  15.152  0.0723 -1.6967  3.2020
 3919TIP3   OH233171   2.848   0.208  17.102  0.3955 -0.0352  0.2102
 3919TIP3    H133172   2.917   0.146  17.127 -0.6309 -1.4916 -0.4072
 3919TIP3    H233173   2.785   0.155  17.053 -0.9859  1.3324  0.4272
 3920TIP3   OH233174   1.523   3.293   5.518  0.1618 -0.3705  0.1917
 3920TIP3    H133175   1.508   3.328   5.606  0.5354 -0.6508  0.3685
 3920TIP3    H233176   1.438   3.299   5.475 -0.6511 -2.5078  1.3769
 3921TIP3   OH233177   5.466   4.161   4.476  0.2752  0.4527 -0.0202
 3921TIP3    H133178   5.491   4.173   4.384  1.4344  0.8293  0.3203
 3921TIP3    H233179   5.518   4.086   4.505 -1.3693 -0.7526 -0.1186
 3922TIP3   OH233180   2.005   0.946  14.061  0.4261  0.3078  0.4403
 3922TIP3    H133181   2.091   0.971  14.095 -0.2106  0.3646  2.1326
 3922TIP3    H233182   1.945   0.960  14.135 -0.4792 -3.2526  0.5779
 3923TIP3   OH233183   3.872   3.634   5.434 -0.3303  0.1038 -0.2418
 3923TIP3    H133184   3.943   3.634   5.370  1.1178 -0.3500  1.2618
 3923TIP3    H233185   3.800   3.678   5.391  0.6954  0.1163 -2.0411
 3924TIP3   OH233186   1.392   3.658   6.602  0.2638 -0.3845 -0.4323
 3924TIP3    H133187   1.318   3.684   6.547 -0.7555  0.0892  1.0862
 3924TIP3    H233188   1.387   3.562   6.604 -1.4773 -0.3257  1.0826
 3925TIP3   OH233189   1.023   5.448  11.952  0.3628  0.4001  0.3555
 3925TIP3    H133190   1.011   5.510  11.880  1.1675  0.6023  0.3880
 3925TIP3    H233191   1.118   5.439  11.960  0.3083  0.8552  1.8058
 3926TIP3   OH233192   3.527   0.936  14.416  0.1420  0.6144  0.5451
 3926TIP3    H133193   3.452   0.883  14.441  0.4539  0.6023  1.4903
 3926TIP3    H233194   3.498   1.026  14.428 -0.5204  0.7056 -1.4385
 3927TIP3   OH233195   1.180   5.437  13.937  0.2381  0.4705 -0.0132
 3927TIP3    H133196   1.219   5.523  13.924 -0.8882  1.1606  1.0072
 3927TIP3    H233197   1.086   5.451  13.928  0.1011 -0.8946 -1.0274
 3928TIP3   OH233198   3.663   2.132  16.502  0.3511  0.0223  0.1934
 3928TIP3    H133199   3.665   2.049  16.550 -0.0979  0.2853  0.6709
 3928TIP3    H233200   3.713   2.114  16.422 -0.2458 -0.8914  0.0040
 3929TIP3   OH233201   0.349   2.460  16.497 -0.1807 -0.4360  0.4536
 3929TIP3    H133202   0.307   2.530  16.446  0.2600 -1.4751 -1.4427
 3929TIP3    H233203   0.431   2.499  16.528 -1.5597  1.0098  2.5925
 3930TIP3   OH233204   6.252   4.906   2.830 -0.1325  0.5833  0.0633
 3930TIP3    H133205   6.300   4.921   2.748 -1.0919  0.2418 -0.5792
 3930TIP3    H233206   6.245   4.994   2.869 -0.8010  0.9652 -0.8774
 3931TIP3   OH233207   0.852   0.848   0.057 -0.3900  0.1967  0.2849
 3931TIP3    H133208   0.860   0.940   0.083 -0.2507  0.3739 -0.3706
 3931TIP3    H233209   0.866   0.799   0.138  1.2637  0.6966  0.3357
 3932TIP3   OH233210   2.834   0.791  11.881 -0.0431  0.3354 -0.0942
 3932TIP3    H133211   2.841   0.708  11.833  0.8032  0.3435  0.0034
 3932TIP3    H233212   2.831   0.857  11.812 -0.8744  0.2333 -0.1772
 3933TIP3   OH233213   6.581   3.330   4.560  0.2964  0.1129 -0.2432
 3933TIP3    H133214   6.677   3.329   4.560  0.3334 -1.6805 -1.3960
 3933TIP3    H233215   6.557   3.364   4.474 -0.1374  1.3110  0.3356
 3934TIP3   OH233216   0.014   2.631   5.262 -0.2000  0.6136 -0.2134
 3934TIP3    H133217   0.035   2.720   5.232 -0.7033  0.3708 -1.3802
 3934TIP3    H233218   0.098   2.589   5.275  0.0438  1.0304 -0.4278
 3935TIP3   OH233219   2.438   1.510  13.342  0.7272  0.3697  0.0234
 3935TIP3    H133220   2.374   1.535  13.408  0.4285 -1.2776  0.4192
 3935TIP3    H233221   2.391   1.512  13.259 -0.7350 -3.2615  0.5556
 3936TIP3   OH233222   3.709   5.421   3.292  0.0970 -0.8176 -0.1187
 3936TIP3    H133223   3.776   5.356   3.273  2.1255  0.9755  0.5731
 3936TIP3    H233224   3.703   5.423   3.387 -0.1112 -0.1601 -0.1420
 3937TIP3   OH233225   4.507   1.548   5.388 -0.4024  0.1252 -0.0513
 3937TIP3    H133226   4.520   1.557   5.482 -1.4378 -0.0417  0.1260
 3937TIP3    H233227   4.584   1.587   5.348  0.1202  0.0436  0.8722
 3938TIP3   OH233228   2.165   5.376   5.880  0.0434  0.0049 -0.6005
 3938TIP3    H133229   2.093   5.330   5.921  1.7422 -1.7068  0.6419
 3938TIP3    H233230   2.168   5.461   5.924  0.0048 -0.6821  0.7788
 3939TIP3   OH233231   3.591   4.388  15.415  0.0462  0.0360 -0.2285
 3939TIP3    H133232   3.673   4.339  15.405 -1.2795 -2.0544 -1.7168
 3939TIP3    H233233   3.583   4.438  15.333 -0.9731 -1.1787 -0.9100
 3940TIP3   OH233234   6.443   3.244  13.175 -0.2105 -0.4249  0.0893
 3940TIP3    H133235   6.536   3.262  13.160 -0.6789  0.7573 -1.6285
 3940TIP3    H233236   6.434   3.246  13.271  1.3828  0.2353  0.2547
 3941TIP3   OH233237   5.109   1.754   1.750  0.0806 -0.1009  0.0979
 3941TIP3    H133238   5.103   1.843   1.715 -0.4226  0.2447  1.0383
 3941TIP3    H233239   5.132   1.766   1.842 -1.2990 -0.8683  0.5718
 3942TIP3   OH233240   5.994   6.746  10.842 -0.0482 -0.7108  1.0075
 3942TIP3    H133241   6.060   6.677  10.839 -1.3099 -1.9835  1.6109
 3942TIP3    H233242   6.011   6.791  10.925  2.0803  1.1179 -0.3037
 3943TIP3   OH233243   5.783   2.200  11.522 -0.0692  0.0015  0.0690
 3943TIP3    H133244   5.829   2.260  11.464  0.2739 -0.8511 -0.5574
 3943TIP3    H233245   5.772   2.249  11.604  1.5324  0.3898  0.0845
 3944TIP3   OH233246   5.615   6.763   2.041  0.1099  0.1575 -1.1156
 3944TIP3    H133247   5.595   6.714   1.961 -1.6931  1.3576 -1.4659
 3944TIP3    H233248   5.555   6.726   2.107 -2.2293  2.5905 -1.7043
 3945TIP3   OH233249   2.951   4.450  17.067  0.1677  0.1042  0.2013
 3945TIP3    H133250   2.880   4.390  17.091  0.4662 -1.5355 -2.5539
 3945TIP3    H233251   3.031   4.401  17.085  0.4106 -0.5972 -2.4267
 3946TIP3   OH233252   6.591   3.615  16.990  0.4118 -0.4207  0.3115
 3946TIP3    H133253   6.506   3.581  17.015  0.7267 -2.0110 -0.6198
 3946TIP3    H233254   6.578   3.652  16.903  0.9763 -2.2104 -0.5863
 3947TIP3   OH233255   3.857   4.020   1.140 -0.2481  0.4641 -0.0016
 3947TIP3    H133256   3.931   3.963   1.165 -0.1016  2.1560  4.3950
 3947TIP3    H233257   3.899   4.097   1.101 -0.1498 -0.5419 -1.9975
 3948TIP3   OH233258   1.835   1.698  17.123 -0.6144 -0.0739  0.5000
 3948TIP3    H133259   1.760   1.735  17.077 -0.5705 -1.4291 -0.7164
 3948TIP3    H233260   1.873   1.772  17.170 -1.4069  1.0964 -0.6406
 3949TIP3   OH233261   0.266   0.044  14.514 -0.2891  0.5711  0.8340
 3949TIP3    H133262   0.348   0.069  14.558  1.5194 -1.5361 -1.1138
 3949TIP3    H233263   0.247  -0.044  14.546  0.6188 -0.6738 -1.7953
 3950TIP3   OH233264   1.632   1.276   5.771  0.2113  0.9862 -0.0705
 3950TIP3    H133265   1.601   1.348   5.716  0.6359 -0.5173 -2.4410
 3950TIP3    H233266   1.663   1.210   5.709  0.5849 -0.9331  2.0103
 3951TIP3   OH233267   2.623   2.613   2.036  0.6131  0.9723  0.0615
 3951TIP3    H133268   2.658   2.683   1.980 -0.2975  0.9029 -0.6177
 3951TIP3    H233269   2.564   2.565   1.979 -0.9849  1.3928  1.3068
 3952TIP3   OH233270   1.332   2.270  11.413  0.6298  0.6904  0.3106
 3952TIP3    H133271   1.406   2.290  11.470  0.9359  0.0512  0.1428
 3952TIP3    H233272   1.316   2.177  11.426 -3.3661  1.5993  4.2150
 3953TIP3   OH233273   6.741   2.969   2.048 -0.1821 -0.1388 -0.2614
 3953TIP3    H133274   6.698   3.044   2.090 -0.9801  0.3378 -1.8597
 3953TIP3    H233275   6.776   3.005   1.967 -0.2542 -1.4303 -0.8747
 3954TIP3   OH233276   0.237   0.822  14.984 -0.1514  0.2408  0.2564
 3954TIP3    H133277   0.311   0.770  14.952  0.3185  0.7333  0.5375
 3954TIP3    H233278   0.264   0.851  15.071  0.7697  3.2814 -0.9454
 3955TIP3   OH233279   3.045   1.620  16.279  0.2539  0.2896 -0.1117
 3955TIP3    H133280   2.965   1.581  16.314  0.7860 -0.6797  0.0931
 3955TIP3    H233281   3.020   1.708  16.252 -0.8798 -0.0053 -0.0734
 3956TIP3   OH233282   0.863   0.952   0.438  0.1986  0.7302  0.3375
 3956TIP3    H133283   0.846   1.029   0.385  2.7745  1.5143  0.4967
 3956TIP3    H233284   0.871   0.880   0.374  2.2617  1.4786 -0.3268
 3957TIP3   OH233285   5.685   1.319  11.395 -0.4806  0.0028  0.3869
 3957TIP3    H133286   5.657   1.284  11.311  1.8775  0.0365 -0.4953
 3957TIP3    H233287   5.675   1.245  11.456 -2.6400  0.1131  0.2446
 3958TIP3   OH233288   3.588   0.993   2.183 -0.4078  0.4381  0.2715
 3958TIP3    H133289   3.547   0.909   2.164  1.7242 -1.0281  1.6881
 3958TIP3    H233290   3.523   1.041   2.234 -1.2377 -0.8395  0.4566
 3959TIP3   OH233291   2.166   5.584   1.006  0.9769  0.7523 -0.2336
 3959TIP3    H133292   2.088   5.618   0.963 -0.3312  0.7738  1.9683
 3959TIP3    H233293   2.136   5.506   1.053  1.2614  2.7151  3.6088
 3960TIP3   OH233294   4.533   5.648   3.879 -0.5261 -0.2201  0.0653
 3960TIP3    H133295   4.441   5.623   3.866 -0.0625 -1.6439 -0.7969
 3960TIP3    H233296   4.574   5.629   3.794  0.7195 -0.4110  0.6998
 3961TIP3   OH233297   0.797   3.383   1.696 -0.3716 -0.2288 -0.3333
 3961TIP3    H133298   0.781   3.375   1.602 -0.0401  0.7904 -0.4897
 3961TIP3    H233299   0.891   3.402   1.703 -0.9474  3.0987 -0.0614
 3962TIP3   OH233300   2.838   6.189  16.222 -0.2326  0.0409 -0.2939
 3962TIP3    H133301   2.763   6.216  16.169  0.2959  2.1892 -0.0450
 3962TIP3    H233302   2.799   6.166  16.307 -0.6775  0.4587 -0.3803
 3963TIP3   OH233303   6.587   6.577   2.793 -0.1951 -0.1819 -0.1822
 3963TIP3    H133304   6.599   6.647   2.857  0.4757  0.5455 -1.0813
 3963TIP3    H233305   6.492   6.571   2.783 -0.3399 -0.6880  1.2695
 3964TIP3   OH233306   0.707   3.898   0.786  0.6248  0.2340  0.4215
 3964TIP3    H133307   0.659   3.970   0.744 -0.5620 -0.9073 -0.2465
 3964TIP3    H233308   0.659   3.880   0.866  1.0643  0.3352  0.7119
 3965TIP3   OH233309   3.586   1.636  11.946 -0.4209  0.1124 -0.3032
 3965TIP3    H133310   3.678   1.650  11.970 -0.3378 -1.0677  0.1466
 3965TIP3    H233311   3.579   1.542  11.933 -1.6000  0.1748 -0.2132
 3966TIP3   OH233312   4.135   4.113  13.406  0.5106  0.5633  0.1245
 3966TIP3    H133313   4.218   4.081  13.372  0.3339 -0.2665  0.4424
 3966TIP3    H233314   4.102   4.172  13.339  0.0092 -1.2926 -1.3608
 3967TIP3   OH233315   5.123   1.384  16.549  0.1062 -0.9220  0.6951
 3967TIP3    H133316   5.104   1.339  16.631 -0.1096 -0.3775  0.9479
 3967TIP3    H233317   5.203   1.435  16.567 -0.8150  0.4405  1.0708
 3968TIP3   OH233318   6.663   2.822   2.606 -0.3000 -0.2149  0.1055
 3968TIP3    H133319   6.743   2.844   2.652 -1.5124  1.3914  1.6019
 3968TIP3    H233320   6.686   2.829   2.513  0.7533  2.6111  0.4720
 3969TIP3   OH233321   4.716   4.455   4.800  0.3153 -0.2441 -0.1976
 3969TIP3    H133322   4.799   4.492   4.828 -0.6897  1.9897  0.0648
 3969TIP3    H233323   4.651   4.523   4.821 -1.1939 -0.6372 -3.1258
 3970TIP3   OH233324   6.226   3.610   4.645 -0.0304  0.3657  0.2163
 3970TIP3    H133325   6.207   3.608   4.551  3.7120  1.8957 -0.7579
 3970TIP3    H233326   6.151   3.653   4.684 -0.8866  1.4228 -2.3753
 3971TIP3   OH233327   3.190   5.671  12.509  0.0120 -0.5469 -0.1650
 3971TIP3    H133328   3.180   5.602  12.443  0.3685 -0.0917 -0.6990
 3971TIP3    H233329   3.118   5.731  12.492  2.1123  1.5376 -2.5641
 3972TIP3   OH233330   2.411   1.831  11.690 -0.0193 -0.0948  0.2489
 3972TIP3    H133331   2.455   1.856  11.609 -0.3691 -0.6223 -0.1121
 3972TIP3    H233332   2.467   1.865  11.760  2.3350 -2.7901 -0.1178
 3973TIP3   OH233333   3.963   2.160  16.833 -0.4984  0.5767  0.1195
 3973TIP3    H133334   4.043   2.112  16.856 -1.6137 -0.2314  2.7938
 3973TIP3    H233335   3.950   2.221  16.906 -3.0858 -0.4005  0.5758
 3974TIP3   OH233336   5.016   2.155  12.168  0.5190  0.7751  0.4348
 3974TIP3    H133337   5.077   2.222  12.200 -0.4374  2.0690 -0.3606
 3974TIP3    H233338   5.064   2.110  12.099  0.7728  1.4689  0.1410
 3975TIP3   OH233339   2.329   0.951  13.231  0.3519 -0.1183 -0.0198
 3975TIP3    H133340   2.336   0.870  13.180  1.4896 -1.1538  1.6895
 3975TIP3    H233341   2.419   0.975  13.251  0.0040  1.2938 -0.0397
 3976TIP3   OH233342   0.459   6.280   2.095  0.5867  0.0107  0.6442
 3976TIP3    H133343   0.411   6.306   2.016  0.0339 -0.0329  0.9619
 3976TIP3    H233344   0.546   6.318   2.083 -0.4532  2.8864  1.5124
 3977TIP3   OH233345   5.827   2.040   2.401  0.0607  0.5043  0.9483
 3977TIP3    H133346   5.809   1.968   2.461  0.4898  1.0894  1.7977
 3977TIP3    H233347   5.838   2.116   2.457 -1.3044  1.4319  0.0077
 3978TIP3   OH233348   2.907   5.239  15.562  0.0941  0.3147  0.2460
 3978TIP3    H133349   2.946   5.312  15.514  1.0180  0.6807  1.4979
 3978TIP3    H233350   2.970   5.219  15.631  0.2391 -2.1736 -0.4877
 3979TIP3   OH233351   5.869   1.580   4.777 -0.2913  0.2958 -0.2701
 3979TIP3    H133352   5.777   1.596   4.800 -0.3062 -0.5627  0.3512
 3979TIP3    H233353   5.914   1.661   4.798 -1.3080  1.7702 -3.1822
 3980TIP3   OH233354   6.245   4.702   0.919 -0.1467 -0.0828 -0.1022
 3980TIP3    H133355   6.338   4.683   0.908  0.0523  0.6374  0.2564
 3980TIP3    H233356   6.236   4.724   1.012 -0.2787  1.8683 -0.5374
 3981TIP3   OH233357   6.643   1.431  16.639  0.4629  0.0629 -0.4376
 3981TIP3    H133358   6.639   1.459  16.730  0.3814  1.3983 -0.8320
 3981TIP3    H233359   6.617   1.339  16.641  1.0200 -0.0798  0.9470
 3982TIP3   OH233360   0.374   0.033  11.826  0.3221 -0.5389  0.1216
 3982TIP3    H133361   0.400   0.115  11.869  0.1264 -0.5300  0.2217
 3982TIP3    H233362   0.402   0.045  11.735  1.2177 -0.7696  0.3542
 3983TIP3   OH233363   5.809   5.473   4.977  0.1779 -0.0261 -0.3909
 3983TIP3    H133364   5.879   5.425   5.020 -1.9571 -2.1047  1.0544
 3983TIP3    H233365   5.784   5.542   5.039  0.5251  0.3077 -0.6221
 3984TIP3   OH233366   4.878   2.290   5.533  0.3296  0.6187 -0.2541
 3984TIP3    H133367   4.899   2.231   5.606 -0.7023  0.3262 -0.1777
 3984TIP3    H233368   4.909   2.376   5.562  1.4369  0.2016 -0.1771
 3985TIP3   OH233369   5.900   0.840   3.096  0.0986  0.2563  0.6948
 3985TIP3    H133370   5.892   0.744   3.091 -0.0005  0.2456  1.0406
 3985TIP3    H233371   5.835   0.866   3.161 -3.1978  1.0055 -2.5054
 3986TIP3   OH233372   1.930   4.898   0.683 -0.3494  0.0225  0.2674
 3986TIP3    H133373   1.869   4.824   0.693  0.3597 -0.6708 -0.4310
 3986TIP3    H233374   1.877   4.975   0.703 -1.5179 -0.5496 -0.5210
 3987TIP3   OH233375   5.939   5.376  12.535  0.1032 -0.2178  0.1180
 3987TIP3    H133376   5.988   5.296  12.513  0.7140 -0.1340  1.0586
 3987TIP3    H233377   5.854   5.366  12.493  0.4189 -1.0603 -0.3301
 3988TIP3   OH233378   4.355   6.125  14.315  0.4514  0.7333  0.5018
 3988TIP3    H133379   4.272   6.116  14.362  0.7594  0.7185  1.0400
 3988TIP3    H233380   4.419   6.081  14.370  0.7958  0.6153  0.0140
 3989TIP3   OH233381   0.258   3.102   2.800  0.6543  0.2015 -0.4715
 3989TIP3    H133382   0.221   3.165   2.863  0.7763 -0.6011  0.4197
 3989TIP3    H233383   0.337   3.070   2.842  0.1948 -1.1090 -0.5803
 3990TIP3   OH233384   6.445   4.679  16.822 -0.1650 -0.4766  0.1651
 3990TIP3    H133385   6.534   4.650  16.800  0.1231  0.1444  0.4713
 3990TIP3    H233386   6.424   4.744  16.755 -1.2975 -2.2195 -1.2710
 3991TIP3   OH233387   5.529   5.508  13.876  0.1124 -0.0212 -0.5012
 3991TIP3    H133388   5.502   5.440  13.938  0.5096 -0.2250 -0.5424
 3991TIP3    H233389   5.470   5.497  13.801 -2.5001  2.2350  1.0238
 3992TIP3   OH233390   0.666   0.646   5.685  0.1391  0.2299  0.0837
 3992TIP3    H133391   0.648   0.593   5.607 -0.7440 -0.2565  0.5905
 3992TIP3    H233392   0.579   0.667   5.719  0.5163  0.3290  1.0010
 3993TIP3   OH233393   4.471   1.408  16.081  0.4398  0.3617  0.0929
 3993TIP3    H133394   4.535   1.353  16.036 -0.2139  0.3922 -0.9028
 3993TIP3    H233395   4.448   1.475  16.017 -0.7149  0.2431  0.3694
 3994TIP3   OH233396   3.100   6.006  15.367 -0.4036  0.1386 -0.7059
 3994TIP3    H133397   3.035   6.066  15.404 -0.0383  0.2606 -0.2456
 3994TIP3    H233398   3.080   5.921  15.406  0.6659  0.4854  0.6814
 3995TIP3   OH233399   0.347   0.290   5.358  0.4644 -0.1300 -0.1749
 3995TIP3    H133400   0.291   0.281   5.436  3.3668 -0.7173  1.9944
 3995TIP3    H233401   0.290   0.266   5.285 -1.5988 -2.6059  2.0505
 3996TIP3   OH233402   4.125   6.465   5.130 -0.9573  0.0121  0.0349
 3996TIP3    H133403   4.203   6.462   5.074 -1.0794 -1.1325 -0.1045
 3996TIP3    H233404   4.147   6.525   5.200 -0.3196  0.4715 -0.5559
 3997TIP3   OH233405   3.734   4.210  13.591 -0.0149 -0.3300  0.1535
 3997TIP3    H133406   3.680   4.284  13.621 -0.8856 -1.0245  0.3478
 3997TIP3    H233407   3.672   4.149  13.552  0.5021 -1.5617  1.1840
 3998TIP3   OH233408   0.297   4.872  16.884 -0.4332 -0.0143 -0.3611
 3998TIP3    H133409   0.291   4.816  16.806 -0.1467  1.1507 -1.2464
 3998TIP3    H233410   0.264   4.957  16.855  0.0143  0.5369  0.7029
 3999TIP3   OH233411   3.770   3.652  12.186  0.3152 -0.3400  0.7156
 3999TIP3    H133412   3.842   3.651  12.123  1.2096 -0.1129  1.7039
 3999TIP3    H233413   3.805   3.699  12.262 -1.4262  1.3373  0.5808
 4000TIP3   OH233414   1.462   2.016  14.361 -0.6631 -0.9160  0.0246
 4000TIP3    H133415   1.434   1.992  14.450  0.4877 -2.0773  0.1052
 4000TIP3    H233416   1.388   2.066  14.326 -0.2451  1.7114  2.4562
 4001TIP3   OH233417   4.354   5.924   4.001 -0.2304  0.1512  0.1101
 4001TIP3    H133418   4.339   5.845   4.052  1.9930 -0.7304 -0.4749
 4001TIP3    H233419   4.430   5.965   4.042  1.8724 -0.7699 -2.5590
 4002TIP3   OH233420   2.300   0.898   4.633 -0.1962  0.0363  0.4495
 4002TIP3    H133421   2.270   0.831   4.572 -0.5927  0.5140  0.1078
 4002TIP3    H233422   2.223   0.953   4.648  0.0560  0.2712  0.9128
 4003TIP3   OH233423   1.862   2.360  15.317  0.2336  0.4633 -0.3484
 4003TIP3    H133424   1.811   2.359  15.398 -0.9334 -0.2913 -1.0671
 4003TIP3    H233425   1.951   2.379  15.345  0.2124 -1.5624  1.3163
 4004TIP3   OH233426   4.157   2.282  13.914 -0.3848 -0.1113 -0.3554
 4004TIP3    H133427   4.230   2.342  13.925 -0.7170  0.3633 -0.6668
 4004TIP3    H233428   4.169   2.216  13.982  0.1472  0.1484 -0.1943
 4005TIP3   OH233429   3.697   2.131  13.114  0.2675  0.0775  0.0584
 4005TIP3    H133430   3.629   2.142  13.047  0.9331  1.0473 -0.4848
 4005TIP3    H233431   3.698   2.036  13.132  0.1951 -0.2345 -1.4418
 4006TIP3   OH233432   6.416   0.081  12.543  0.1833  0.4583  0.4421
 4006TIP3    H133433   6.482   0.148  12.526  0.8470 -0.4180 -0.5527
 4006TIP3    H233434   6.333   0.129  12.542  0.7020  1.3970  0.6190
 4007TIP3   OH233435   6.267   2.430   1.019 -0.2566  0.3103  0.7251
 4007TIP3    H133436   6.360   2.407   1.017 -0.2626  0.3256 -0.1656
 4007TIP3    H233437   6.234   2.391   1.100  0.0512 -1.5478 -0.0076
 4008TIP3   OH233438   2.024   4.420   0.203  0.7739 -0.1512 -0.0217
 4008TIP3    H133439   1.990   4.330   0.207 -0.1665  0.1394 -0.8570
 4008TIP3    H233440   2.090   4.418   0.134 -0.0363  0.0263 -0.8167
 4009TIP3   OH233441   3.629   1.440  10.399  0.1828  0.4256  0.5568
 4009TIP3    H133442   3.602   1.493  10.473 -1.7874 -1.8497  1.5946
 4009TIP3    H233443   3.576   1.472  10.326  0.0052  0.7687  0.8334
 4010TIP3   OH233444   1.416   0.852  14.112  0.0346  0.2177  0.3889
 4010TIP3    H133445   1.333   0.892  14.084  0.8552  1.6559 -0.1063
 4010TIP3    H233446   1.398   0.818  14.199 -0.5754  2.2811  1.1393
 4011TIP3   OH233447   4.884   0.578  13.402 -0.1613 -0.1949 -0.2737
 4011TIP3    H133448   4.926   0.492  13.400  1.6877  0.6696 -0.8951
 4011TIP3    H233449   4.832   0.580  13.321  0.4659 -0.4194 -0.6942
 4012TIP3   OH233450   3.450   5.274   2.837  0.3140  0.4217  0.0102
 4012TIP3    H133451   3.387   5.216   2.880 -0.0529 -0.5647 -1.7636
 4012TIP3    H233452   3.509   5.302   2.908  0.6955 -2.3487  0.9174
 4013TIP3   OH233453   6.361   3.743   2.420 -0.0111  0.2497  0.0099
 4013TIP3    H133454   6.309   3.792   2.484  0.6287  1.9809 -0.7432
 4013TIP3    H233455   6.449   3.779   2.428  0.6426 -1.2108 -0.1746
 4014TIP3   OH233456   3.784   5.779   6.274  0.1754 -0.3109  0.2533
 4014TIP3    H133457   3.767   5.693   6.311  1.1405  0.4601  2.6591
 4014TIP3    H233458   3.725   5.839   6.321  2.0072  0.8165  1.2523
 4015TIP3   OH233459   1.895   1.817   0.778 -0.4525  0.0463 -0.2663
 4015TIP3    H133460   1.887   1.865   0.861 -0.6207 -1.5487  0.6758
 4015TIP3    H233461   1.895   1.725   0.803 -0.3044 -0.4758 -2.0401
 4016TIP3   OH233462   4.928   1.339  11.560  0.1522 -0.1496 -0.4076
 4016TIP3    H133463   4.919   1.368  11.650 -2.5534 -0.1730 -0.5982
 4016TIP3    H233464   4.974   1.410  11.516 -2.2250  1.8833  0.1439
 4017TIP3   OH233465   6.155   6.738  12.570 -0.0436 -0.2319 -0.1251
 4017TIP3    H133466   6.181   6.646  12.567  2.4647  0.2170  2.8427
 4017TIP3    H233467   6.200   6.778  12.495  0.5482 -1.0617 -0.2264
 4018TIP3   OH233468   1.876   2.776   3.675 -0.2135 -0.7782 -0.2910
 4018TIP3    H133469   1.861   2.695   3.724  1.8608 -0.8732  0.2830
 4018TIP3    H233470   1.917   2.747   3.593  1.7389 -0.2952  0.4553
 4019TIP3   OH233471   5.545   2.004   2.746 -0.5335  0.2295 -0.1729
 4019TIP3    H133472   5.449   2.007   2.753 -0.5521 -1.0362  0.3513
 4019TIP3    H233473   5.574   2.088   2.781 -1.4243  0.3963  0.1911
 4020TIP3   OH233474   1.143   1.736  13.478  0.2245 -0.3416  0.3641
 4020TIP3    H133475   1.105   1.673  13.417 -0.7917  1.1911 -0.6480
 4020TIP3    H233476   1.078   1.744  13.548 -0.5036  0.8845 -0.4210
 4021TIP3   OH233477   4.502   0.749  11.695 -0.0154  0.3422  0.0659
 4021TIP3    H133478   4.445   0.679  11.663 -0.3209  1.9592 -3.4551
 4021TIP3    H233479   4.442   0.814  11.731  0.2667 -1.0415  3.3140
 4022TIP3   OH233480   4.609   5.700   4.498  0.5772 -0.0563 -0.1492
 4022TIP3    H133481   4.622   5.794   4.486  2.8077 -0.3778 -0.7353
 4022TIP3    H233482   4.697   5.662   4.489 -0.5198 -2.4370 -2.4177
 4023TIP3   OH233483   0.175   6.063   4.992  0.8012  0.0900  0.4222
 4023TIP3    H133484   0.243   6.023   4.938  1.2627  0.2825  0.8535
 4023TIP3    H233485   0.094   6.048   4.944  1.0989 -0.4763  0.0898
 4024TIP3   OH233486   3.445   4.661  11.182  0.0148  0.2006 -0.5107
 4024TIP3    H133487   3.487   4.587  11.137 -0.4470  0.6001 -1.6260
 4024TIP3    H233488   3.468   4.737  11.128 -0.1526  0.7612  0.2064
 4025TIP3   OH233489   6.088   3.630   2.199 -0.7520  0.3038  0.2443
 4025TIP3    H133490   6.125   3.585   2.275 -0.8343  1.6464  1.1144
 4025TIP3    H233491   6.017   3.572   2.170 -0.8210 -0.1692  1.2788
 4026TIP3   OH233492   5.227   6.090  11.351 -0.4438  0.0357 -0.0099
 4026TIP3    H133493   5.271   6.102  11.435  1.0712 -1.8146 -0.4763
 4026TIP3    H233494   5.244   6.171  11.303  1.6225 -0.2233  0.2102
 4027TIP3   OH233495   5.703   5.534   5.600  0.0096 -0.5446 -0.2477
 4027TIP3    H133496   5.625   5.512   5.549  0.4555 -1.2080 -0.6681
 4027TIP3    H233497   5.721   5.455   5.652 -0.6762  0.2653  1.2749
 4028TIP3   OH233498   1.748   3.082  12.463  0.2880  0.5914  0.0396
 4028TIP3    H133499   1.703   3.167  12.462 -1.9099 -0.4913 -1.1527
 4028TIP3    H233500   1.680   3.020  12.490  1.6401 -0.8888  0.1545
 4029TIP3   OH233501   1.031   0.420  15.997 -0.3560 -0.2065  0.0383
 4029TIP3    H133502   1.038   0.487  16.065  0.4932 -0.6763  0.4392
 4029TIP3    H233503   0.939   0.394  15.998 -0.2931 -0.4807  1.3036
 4030TIP3   OH233504   5.077   2.817   0.228 -0.4666  0.0134 -0.2007
 4030TIP3    H133505   5.090   2.723   0.236  2.3867  0.1786 -1.5239
 4030TIP3    H233506   5.092   2.852   0.316  0.9860 -0.5991 -0.1795
 4031TIP3   OH233507   1.812   0.915   2.256 -0.1662  0.2355  0.0364
 4031TIP3    H133508   1.749   0.987   2.261 -0.6444 -0.0878 -0.9583
 4031TIP3    H233509   1.849   0.922   2.168 -0.6113 -1.0493 -0.2725
 4032TIP3   OH233510   6.603   4.431   0.407  0.1879  0.1260  0.3179
 4032TIP3    H133511   6.574   4.471   0.489 -0.0697 -0.0246  0.2992
 4032TIP3    H233512   6.565   4.343   0.408 -0.8685  0.5555 -0.5494
 4033TIP3   OH233513   3.505   1.970   2.652 -0.0642  0.5595  0.5366
 4033TIP3    H133514   3.431   2.022   2.685 -0.5980  0.6610 -0.7609
 4033TIP3    H233515   3.565   2.036   2.615 -0.6304  0.3150 -0.8954
 4034TIP3   OH233516   6.253   1.539   4.550 -0.8380 -0.0861 -0.3528
 4034TIP3    H133517   6.303   1.599   4.605 -1.6449  0.6292 -0.3648
 4034TIP3    H233518   6.290   1.551   4.462  2.1491 -3.0552  0.3194
 4035TIP3   OH233519   4.993   3.494   2.233 -0.2276  0.1208  0.0187
 4035TIP3    H133520   5.036   3.433   2.172  1.8537 -0.1590  1.6516
 4035TIP3    H233521   5.064   3.528   2.287 -1.6516  2.3627  0.6088
 4036TIP3   OH233522   0.893   5.678   2.052  0.2268 -0.4591  0.0110
 4036TIP3    H133523   0.801   5.687   2.028  0.5317 -1.6492 -1.7647
 4036TIP3    H233524   0.902   5.587   2.079  0.8820 -0.3495  0.1762
 4037TIP3   OH233525   4.178   3.657  17.127 -0.1112  0.1416 -0.0376
 4037TIP3    H133526   4.110   3.610  17.079  0.9468  0.2119 -1.6828
 4037TIP3    H233527   4.234   3.588  17.162 -0.5626  0.1066  0.6341
 4038TIP3   OH233528   0.969   0.712   5.716  0.3507  0.3117  0.1433
 4038TIP3    H133529   1.052   0.759   5.706  0.1546  0.9039  1.1695
 4038TIP3    H233530   0.996   0.620   5.727  0.8346  0.4132 -0.1539
 4039TIP3   OH233531   4.093   2.963   5.017 -0.2574  0.3162  0.8638
 4039TIP3    H133532   4.073   3.057   5.014  0.2135  0.4195  0.8738
 4039TIP3    H233533   4.008   2.921   5.033 -0.2391  0.8449  2.5507
 4040TIP3   OH233534   2.301   5.281  16.288  0.3480  0.4365  0.3333
 4040TIP3    H133535   2.246   5.352  16.256  1.4596  0.0368 -2.8154
 4040TIP3    H233536   2.365   5.325  16.345  1.0448  2.0439 -1.5718
 4041TIP3   OH233537   2.257   4.323   3.998  0.2437 -0.1117 -0.0831
 4041TIP3    H133538   2.189   4.262   3.972 -0.6966  0.6456  0.5461
 4041TIP3    H233539   2.333   4.268   4.018 -0.4805 -1.0390  0.1631
 4042TIP3   OH233540   0.765   5.114  12.944  0.0422  0.0388 -0.5523
 4042TIP3    H133541   0.707   5.042  12.922 -0.8901 -0.3476  2.6918
 4042TIP3    H233542   0.744   5.183  12.881  0.0228 -1.9680 -2.8850
 4043TIP3   OH233543   1.995   1.399  15.315 -0.3921 -0.0270 -1.1113
 4043TIP3    H133544   1.908   1.365  15.293  0.7411 -1.8930 -3.0487
 4043TIP3    H233545   2.034   1.420  15.230  1.0456  0.9074 -0.2613
 4044TIP3   OH233546   3.679   4.949   2.204  0.3074  0.6519 -0.1132
 4044TIP3    H133547   3.747   4.932   2.270  0.1025  1.1098  0.2186
 4044TIP3    H233548   3.598   4.921   2.246  0.4437 -1.2596 -1.0396
 4045TIP3   OH233549   4.363   1.335   5.255 -0.5839  0.3257  0.0202
 4045TIP3    H133550   4.423   1.402   5.290 -0.6306  0.8305 -0.8301
 4045TIP3    H233551   4.276   1.366   5.279 -0.5209 -0.5285  1.4610
 4046TIP3   OH233552   3.423   3.786  12.784  0.0020 -0.1160  0.0174
 4046TIP3    H133553   3.488   3.743  12.839 -0.8181 -0.6902  0.5399
 4046TIP3    H233554   3.461   3.873  12.767  2.3378 -1.4338 -2.1983
 4047TIP3   OH233555   1.102   2.181   5.111  0.1727  0.0872  0.4950
 4047TIP3    H133556   1.179   2.222   5.071  1.4761 -1.3830  1.3493
 4047TIP3    H233557   1.139   2.115   5.170 -1.7896 -1.8185 -0.3014
 4048TIP3   OH233558   5.270   0.371  12.015  0.4517  0.5063  0.0400
 4048TIP3    H133559   5.257   0.296  12.073 -2.3256  0.9255  0.1016
 4048TIP3    H233560   5.206   0.358  11.944  0.6943  2.2396 -0.5446
 4049TIP3   OH233561   3.992   3.982   5.861  0.0555  0.2090 -0.7183
 4049TIP3    H133562   3.903   3.986   5.825  0.1284 -3.2441 -1.6333
 4049TIP3    H233563   3.980   3.955   5.952  0.1077 -2.2089 -1.3596
 4050TIP3   OH233564   3.050   5.202   0.166  0.1051  0.1270  0.0440
 4050TIP3    H133565   3.066   5.282   0.116 -1.2470  0.0829 -0.5212
 4050TIP3    H233566   3.015   5.232   0.250  1.3381  0.1681  0.5568
 4051TIP3   OH233567   6.395   2.538  15.995  0.1411  0.8737 -0.2790
 4051TIP3    H133568   6.359   2.532  16.083 -0.3389 -1.5244 -0.5749
 4051TIP3    H233569   6.490   2.532  16.007  0.0114 -1.8256  0.0225
 4052TIP3   OH233570   0.803   0.499  17.082 -0.1953 -0.0882  0.0375
 4052TIP3    H133571   0.718   0.460  17.064 -0.5306  0.9239 -0.6284
 4052TIP3    H233572   0.804   0.509  17.177 -0.6792 -0.4103  0.0839
 4053TIP3   OH233573   2.998   1.198  17.240  0.1252 -0.1204 -0.4561
 4053TIP3    H133574   3.091   1.177  17.239  0.3515  0.6888 -3.2697
 4053TIP3    H233575   2.958   1.128  17.291  2.0506 -1.4915 -0.7499
 4054TIP3   OH233576   0.713   6.625  13.251  0.4869 -0.1495 -0.1660
 4054TIP3    H133577   0.782   6.663  13.197  0.0863  0.9653  0.0898
 4054TIP3    H233578   0.741   6.534  13.264  0.3069 -0.6272 -2.6843
 4055TIP3   OH233579   0.957   6.136   5.026 -0.1510  0.1472 -0.0705
 4055TIP3    H133580   0.973   6.185   4.945  0.3984 -1.3392 -0.9004
 4055TIP3    H233581   0.878   6.085   5.007  2.2324 -3.4708 -1.3763
 4056TIP3   OH233582   1.000   2.701   2.480  0.7358 -0.5625 -0.5149
 4056TIP3    H133583   1.014   2.767   2.412  1.1958 -1.2199 -1.0702
 4056TIP3    H233584   1.063   2.632   2.461  1.4006 -0.4349  1.0380
 4057TIP3   OH233585   3.002   6.221  14.671 -0.3847  0.1364 -0.2956
 4057TIP3    H133586   3.028   6.130  14.684  1.8490  0.5982 -0.9448
 4057TIP3    H233587   3.055   6.270  14.734 -0.3548  1.0962 -1.0453
 4058TIP3   OH233588   2.290   6.441  14.419  0.3241  0.1145  0.1197
 4058TIP3    H133589   2.231   6.516  14.423  1.4965  1.0704  0.0637
 4058TIP3    H233590   2.246   6.373  14.469  0.1211  1.4684  1.8703
 4059TIP3   OH233591   2.887   6.330  16.794 -0.2150  0.2833 -0.0974
 4059TIP3    H133592   2.915   6.364  16.709 -0.8045  0.2337 -0.3133
 4059TIP3    H233593   2.807   6.379  16.814 -0.4385 -0.1722  0.1233
 4060TIP3   OH233594   2.830   2.035  11.401  0.0205 -0.5398  0.8427
 4060TIP3    H133595   2.779   2.116  11.399 -0.5500 -0.8948 -0.4968
 4060TIP3    H233596   2.818   1.997  11.314  0.6801 -1.8231  1.2778
 4061TIP3   OH233597   6.360   5.668   3.306  0.4268 -0.2139 -0.3805
 4061TIP3    H133598   6.450   5.639   3.294 -0.5546 -3.1598 -1.6503
 4061TIP3    H233599   6.353   5.749   3.255  2.6983  1.0425  1.1298
 4062TIP3   OH233600   6.387   2.043  14.271 -0.1324 -0.3680  0.1876
 4062TIP3    H133601   6.336   2.085  14.340  1.8307 -0.2797  1.6455
 4062TIP3    H233602   6.444   1.981  14.316  1.5252  0.0054 -1.2718
 4063TIP3   OH233603   1.013   4.737   3.793 -0.2910 -0.6358  0.6839
 4063TIP3    H133604   1.042   4.824   3.766  1.3376 -1.6442 -1.1055
 4063TIP3    H233605   0.950   4.711   3.726  1.6146 -2.0265 -0.6770
 4064TIP3   OH233606   6.291   4.012   2.548  0.1396  0.1071  0.3599
 4064TIP3    H133607   6.362   4.057   2.593  0.8435  0.7237 -1.2851
 4064TIP3    H233608   6.228   4.081   2.527  0.2072 -0.0165 -0.2903
 4065TIP3   OH233609   3.430   5.018   2.700  0.9800  0.4521  0.1032
 4065TIP3    H133610   3.486   5.089   2.733  1.6081 -0.0641  0.1473
 4065TIP3    H233611   3.432   4.952   2.770  1.5241 -0.2198 -0.5361
 4066TIP3   OH233612   1.046   5.984  16.024 -0.5839  0.6313  0.4553
 4066TIP3    H133613   0.953   6.003  16.035 -0.6738 -0.8520  2.7832
 4066TIP3    H233614   1.083   5.991  16.112  1.8565  2.6111 -0.5885
 4067TIP3   OH233615   5.783   4.230   3.774 -0.1041 -0.4727  0.1949
 4067TIP3    H133616   5.773   4.139   3.745  0.8036 -0.3488 -0.5101
 4067TIP3    H233617   5.704   4.246   3.827 -1.0951 -1.1377 -1.0293
 4068TIP3   OH233618   3.002   6.708   0.408  0.4857 -0.2249  0.2823
 4068TIP3    H133619   2.963   6.622   0.421 -2.0087  0.6123 -1.0615
 4068TIP3    H233620   3.007   6.718   0.313 -0.9094  1.7613  0.3634
 4069TIP3   OH233621   5.518   4.895   5.785 -0.0711 -0.2615  0.0378
 4069TIP3    H133622   5.477   4.934   5.862  2.7451 -0.1702  1.6562
 4069TIP3    H233623   5.517   4.801   5.802  2.6941 -0.1381  1.5492
 4070TIP3   OH233624   6.010   5.898  11.136 -0.0598 -0.4335 -0.2277
 4070TIP3    H133625   5.991   5.821  11.082 -0.1499 -0.8168  0.3365
 4070TIP3    H233626   6.084   5.871  11.191  2.3687  1.1213 -2.5385
 4071TIP3   OH233627   5.804   1.025  16.366  0.2978  0.1688  0.0812
 4071TIP3    H133628   5.791   0.969  16.290 -0.0967  0.3567  0.0029
 4071TIP3    H233629   5.870   0.980  16.419  0.2857 -0.1598 -0.1804
 4072TIP3   OH233630   1.126   3.034  15.032 -0.9585  0.3207  0.2690
 4072TIP3    H133631   1.173   2.973  14.976  1.5101  0.2070  2.2870
 4072TIP3    H233632   1.073   2.979  15.090  1.4544 -0.0987  2.2554
 4073TIP3   OH233633   4.801   6.584   1.579  0.0780 -0.1356  0.1238
 4073TIP3    H133634   4.839   6.671   1.583  1.1825 -0.4054 -2.3588
 4073TIP3    H233635   4.709   6.599   1.557  0.3692  0.4323 -0.7789
 4074TIP3   OH233636   3.309   6.633  15.431 -0.8622  0.0035  0.1345
 4074TIP3    H133637   3.346   6.591  15.508  0.0649 -0.7652 -0.6975
 4074TIP3    H233638   3.364   6.603  15.358 -0.1843  2.5870 -0.5409
 4075TIP3   OH233639   3.221   4.879   1.117  0.5410  0.2067 -0.5189
 4075TIP3    H133640   3.277   4.821   1.065  0.9910  0.2963 -0.1426
 4075TIP3    H233641   3.255   4.967   1.099  1.1982  0.1799  0.5042
 4076TIP3   OH233642   4.946   1.214   5.861 -0.0195 -0.3817 -0.6312
 4076TIP3    H133643   5.008   1.264   5.914  0.4071  0.7456 -2.1373
 4076TIP3    H233644   4.881   1.279   5.833 -0.6400 -1.1107 -0.9136
 4077TIP3   OH233645   5.984   5.307   1.611 -0.0882  0.9655 -0.2340
 4077TIP3    H133646   5.902   5.297   1.563 -0.4240  0.4313  0.4402
 4077TIP3    H233647   6.047   5.337   1.544  0.1640 -2.3895 -1.7228
 4078TIP3   OH233648   4.894   5.104   0.305  0.1374 -0.0253  0.5244
 4078TIP3    H133649   4.821   5.042   0.300  0.6718 -0.6442  0.3067
 4078TIP3    H233650   4.855   5.184   0.339 -0.7564 -0.1785 -0.1162
 4079TIP3   OH233651   5.813   6.524   1.893 -0.2834 -0.2261  0.0824
 4079TIP3    H133652   5.792   6.477   1.974  0.3497 -2.1185 -0.7931
 4079TIP3    H233653   5.728   6.545   1.854 -0.6109 -1.3147  0.1619
 4080TIP3   OH233654   2.069   5.446   1.950  0.1891  0.4423 -0.6760
 4080TIP3    H133655   2.101   5.502   1.879 -0.9481 -0.3990 -1.8799
 4080TIP3    H233656   2.037   5.508   2.016 -1.5561  1.2575 -2.2154
 4081TIP3   OH233657   1.471   1.603   4.321 -0.4253 -1.0203 -0.1020
 4081TIP3    H133658   1.524   1.536   4.278  0.0556 -1.4156  1.0554
 4081TIP3    H233659   1.385   1.595   4.281 -0.2325 -1.9860 -0.3575
 4082TIP3   OH233660   4.051   6.682   3.392  0.5324 -0.1405 -0.0964
 4082TIP3    H133661   4.115   6.746   3.363  1.3367 -0.7070  0.3942
 4082TIP3    H233662   4.059   6.682   3.487  1.7249 -2.1350 -0.1480
 4083TIP3   OH233663   0.523   0.599   4.959  0.4505 -0.0619  0.1097
 4083TIP3    H133664   0.471   0.679   4.967  0.3424  0.0904 -1.7432
 4083TIP3    H233665   0.506   0.568   4.870  1.8378 -1.2148  0.2119
 4084TIP3   OH233666   5.112   2.185  14.586 -0.1093  0.0533  0.6138
 4084TIP3    H133667   5.160   2.231  14.517 -0.5091  0.4441  0.5853
 4084TIP3    H233668   5.134   2.093  14.574 -0.5089  0.0608 -0.3175
 4085TIP3   OH233669   1.583   4.297   0.799 -0.2951 -0.0450  0.0827
 4085TIP3    H133670   1.669   4.285   0.757 -0.5152 -0.1922 -0.3314
 4085TIP3    H233671   1.521   4.292   0.727 -0.9012 -2.8076  0.6827
 4086TIP3   OH233672   5.208   4.381  17.104 -0.1179  0.1906  0.1026
 4086TIP3    H133673   5.203   4.289  17.077 -1.2552  0.5070 -0.8032
 4086TIP3    H233674   5.117   4.410  17.108  0.2729  1.5727 -0.6228
 4087TIP3   OH233675   3.690   0.362  14.687  0.3015 -0.3308 -0.2298
 4087TIP3    H133676   3.631   0.375  14.761  1.2406  0.2745  0.4371
 4087TIP3    H233677   3.715   0.270  14.693  0.4592 -0.2586  0.2844
 4088TIP3   OH233678   6.208   4.627  15.622  0.2954 -0.5887  0.2371
 4088TIP3    H133679   6.284   4.600  15.673  2.3171  0.1450 -2.2104
 4088TIP3    H233680   6.218   4.580  15.539 -2.1616 -0.7375 -0.0497
 4089TIP3   OH233681   5.276   4.782  14.930  0.0675 -0.2848  0.0731
 4089TIP3    H133682   5.301   4.816  15.016  0.1877  0.1208 -0.1196
 4089TIP3    H233683   5.275   4.859  14.874  0.7696 -0.6628 -0.4754
 4090TIP3   OH233684   1.251   1.111   3.609 -0.0723 -0.2461  0.1799
 4090TIP3    H133685   1.209   1.078   3.530 -1.3677 -1.6353  1.3952
 4090TIP3    H233686   1.309   1.041   3.636  0.1096  0.0853  0.6511
 4091TIP3   OH233687   3.710   4.998  15.687 -0.1244 -0.2449 -0.4520
 4091TIP3    H133688   3.728   5.089  15.710  1.6718 -1.0958  1.9702
 4091TIP3    H233689   3.766   4.981  15.612 -0.7092  0.6990 -1.1272
 4092TIP3   OH233690   2.130   1.082   2.600 -0.0444  0.1856  0.7366
 4092TIP3    H133691   2.176   1.032   2.533 -2.5737  0.6764 -1.5551
 4092TIP3    H233692   2.171   1.168   2.599  0.7344 -0.1811  0.7187
 4093TIP3   OH233693   0.056   4.270   6.254 -0.2630  0.3066 -0.0720
 4093TIP3    H133694   0.051   4.175   6.264 -3.4223  0.2300 -1.2530
 4093TIP3    H233695   0.029   4.305   6.339  0.9444  0.1927  0.3766
 4094TIP3   OH233696   1.369   3.905  14.836  0.3151 -1.0013  0.0710
 4094TIP3    H133697   1.319   3.982  14.862 -0.1180 -1.8279  1.8806
 4094TIP3    H233698   1.389   3.918  14.744 -1.5549  0.2817 -0.1948
 4095TIP3   OH233699   2.353   4.698  12.527 -0.4694  0.3972 -0.0335
 4095TIP3    H133700   2.381   4.713  12.437  2.6137  0.3782  0.8033
 4095TIP3    H233701   2.402   4.621  12.555 -0.6056  0.9692  1.9568
 4096TIP3   OH233702   6.259   5.099   3.450 -0.4053 -0.8114 -0.4071
 4096TIP3    H133703   6.320   5.108   3.378 -0.0130  0.7624  0.0945
 4096TIP3    H233704   6.236   5.006   3.451 -0.1321 -0.9234 -2.2986
 4097TIP3   OH233705   4.971   1.026   0.032 -0.2591  0.0845  0.7245
 4097TIP3    H133706   5.036   0.983  -0.024 -2.2757 -0.0117 -1.7213
 4097TIP3    H233707   4.900   0.962   0.039 -1.8383  1.6561 -0.1355
 4098TIP3   OH233708   3.025   2.542   6.517 -0.0983 -0.0146  0.6174
 4098TIP3    H133709   3.058   2.481   6.451 -1.5019 -1.7940  1.4696
 4098TIP3    H233710   3.021   2.626   6.472  1.0763 -0.6975 -0.8731
 4099TIP3   OH233711   0.611   1.697   2.147  0.2640 -0.4446 -0.5640
 4099TIP3    H133712   0.515   1.700   2.148  0.1791 -1.9095 -1.8461
 4099TIP3    H233713   0.634   1.638   2.219  0.2935  0.8376  0.5206
 4100TIP3   OH233714   4.116   2.431   2.470  0.3286  0.8446 -0.2107
 4100TIP3    H133715   4.041   2.400   2.418  0.9852  0.4097 -0.9190
 4100TIP3    H233716   4.107   2.385   2.554  1.4013 -1.5711 -1.3119
 4101TIP3   OH233717   4.899   4.785  16.790  0.2442 -0.0047 -0.1305
 4101TIP3    H133718   4.932   4.697  16.807  0.1511  0.0312  0.2394
 4101TIP3    H233719   4.865   4.815  16.874  2.8150  1.4664  0.5107
 4102TIP3   OH233720   1.329   0.133  10.271 -0.2673 -0.1508  0.3965
 4102TIP3    H133721   1.346   0.081  10.349  1.6064 -0.5339 -0.2387
 4102TIP3    H233722   1.249   0.095  10.234 -0.2855 -0.9781  1.2509
 4103TIP3   OH233723   4.420   1.508  12.102 -0.5749 -0.3346  0.0477
 4103TIP3    H133724   4.499   1.561  12.090 -0.4631 -0.8477 -1.8407
 4103TIP3    H233725   4.444   1.444  12.169  1.7232 -2.3577 -2.4786
 4104TIP3   OH233726   0.235   3.207  14.601 -0.4222 -0.2450 -0.3362
 4104TIP3    H133727   0.319   3.175  14.634 -1.0397 -0.3083  1.2853
 4104TIP3    H233728   0.252   3.231  14.510  1.3635 -0.1901 -0.0216
 4105TIP3   OH233729   4.501   3.283   3.138  0.1295  0.7153 -0.4699
 4105TIP3    H133730   4.553   3.292   3.218 -1.3632  1.1950  0.4904
 4105TIP3    H233731   4.449   3.363   3.134 -1.5517 -0.3379 -0.6100
 4106TIP3   OH233732   3.320   1.868  16.262 -0.0981 -0.0761 -0.0894
 4106TIP3    H133733   3.408   1.896  16.235 -0.0545 -0.3497 -0.2452
 4106TIP3    H233734   3.316   1.776  16.234 -0.2527 -0.2051  0.3569
 4107TIP3   OH233735   1.083   1.337  17.198 -0.2296 -0.4203 -0.1129
 4107TIP3    H133736   1.001   1.352  17.246  0.2730 -0.1029  0.6821
 4107TIP3    H233737   1.111   1.250  17.226  0.7479  0.2920  1.2596
 4108TIP3   OH233738   6.097   3.049   0.639  0.5094 -0.1930  0.1775
 4108TIP3    H133739   6.077   3.129   0.590  2.2425  0.8022  1.0244
 4108TIP3    H233740   6.117   2.984   0.571 -0.6967  0.1329 -0.5126
 4109TIP3   OH233741   4.215   4.117  11.915 -0.2410  0.9911  0.5858
 4109TIP3    H133742   4.268   4.039  11.933 -0.3608  0.7915  0.0760
 4109TIP3    H233743   4.249   4.183  11.975 -1.2562  0.0754  2.2944
 4110TIP3   OH233744   6.499   6.506   3.931 -0.1561  0.5819 -0.2139
 4110TIP3    H133745   6.487   6.580   3.991  0.7735 -1.1330  2.2411
 4110TIP3    H233746   6.413   6.492   3.892 -1.1715  0.9493  1.7677
 4111TIP3   OH233747   6.487   5.266  17.177 -0.1673  0.1331 -0.1808
 4111TIP3    H133748   6.506   5.306  17.262 -0.2816 -1.2896  0.5476
 4111TIP3    H233749   6.518   5.330  17.113  1.8792  0.3577  0.9441
 4112TIP3   OH233750   2.698   4.497  16.458  0.3629  0.7297  0.1504
 4112TIP3    H133751   2.719   4.450  16.377 -1.7107  0.0056 -0.0283
 4112TIP3    H233752   2.743   4.447  16.527  0.3536  0.0262 -0.3351
 4113TIP3   OH233753   0.306   5.857   0.086  0.7442  0.1693  0.1981
 4113TIP3    H133754   0.395   5.867   0.053  0.3315  0.5611 -0.8472
 4113TIP3    H233755   0.308   5.896   0.173  1.4994  0.5389  0.0244
 4114TIP3   OH233756   6.572   3.461   0.353 -0.2092  0.6107  0.2463
 4114TIP3    H133757   6.591   3.369   0.338 -1.7335 -0.4248  3.8079
 4114TIP3    H233758   6.636   3.508   0.299  0.1560 -2.4354 -2.2245
 4115TIP3   OH233759   4.718   5.014  13.871 -0.2289  0.4577  0.2587
 4115TIP3    H133760   4.676   5.091  13.909 -0.2798  0.4063  0.3070
 4115TIP3    H233761   4.758   4.970  13.946  0.3664  0.7898  0.1380
 4116TIP3   OH233762   3.441   2.526   0.410  0.5920  0.1295  0.3404
 4116TIP3    H133763   3.499   2.565   0.345 -1.6951  1.5441 -1.0392
 4116TIP3    H233764   3.370   2.591   0.420 -1.8302 -2.3152  0.3015
 4117TIP3   OH233765   1.106   5.826  12.589  0.1485 -0.3296 -0.0722
 4117TIP3    H133766   1.076   5.789  12.673  0.4422  1.5306  0.9151
 4117TIP3    H233767   1.151   5.754  12.546 -3.2093 -2.4744 -0.3694
 4118TIP3   OH233768   2.431   5.065   1.520 -0.7658  0.3582 -0.0560
 4118TIP3    H133769   2.369   5.102   1.583 -0.8290  1.7821 -0.9322
 4118TIP3    H233770   2.487   5.138   1.494  0.0945 -0.4881 -0.7052
 4119TIP3   OH233771   4.431   2.240  12.236  0.6058  0.2448  0.1905
 4119TIP3    H133772   4.492   2.167  12.231 -1.4187 -1.5746  0.1927
 4119TIP3    H233773   4.377   2.231  12.157 -1.5366 -0.1104  1.5883
 4120TIP3   OH233774   6.414   1.515  12.685  0.1327  0.4879 -0.2341
 4120TIP3    H133775   6.456   1.491  12.767 -1.3655  1.6144  0.9247
 4120TIP3    H233776   6.321   1.522  12.707 -0.7538 -1.8590 -2.6695
 4121TIP3   OH233777   0.248   5.585  13.513 -0.1146 -0.0847 -0.4608
 4121TIP3    H133778   0.204   5.512  13.469  0.2471  0.5446 -1.9494
 4121TIP3    H233779   0.240   5.658  13.452  1.4901  0.5057 -0.0268
 4122TIP3   OH233780   4.138   4.039  12.282  0.1533  0.1102  0.4689
 4122TIP3    H133781   4.098   4.125  12.293  0.8094  0.5933 -0.7579
 4122TIP3    H233782   4.228   4.058  12.255  0.1944 -0.9570 -0.1856
 4123TIP3   OH233783   2.872   5.487   3.990  0.5734  0.0616  0.7118
 4123TIP3    H133784   2.908   5.412   4.037  1.0496 -0.6117 -0.6723
 4123TIP3    H233785   2.807   5.449   3.930 -1.8679  1.1542  2.4977
 4124TIP3   OH233786   1.013   1.342   4.741  0.1165  0.0181 -0.4107
 4124TIP3    H133787   0.945   1.275   4.731 -0.7406  1.0391 -1.5877
 4124TIP3    H233788   0.992   1.385   4.824 -0.6512  0.2986 -0.7433
 4125TIP3   OH233789   6.675   0.187  12.807  0.2965 -0.1073 -0.2273
 4125TIP3    H133790   6.602   0.222  12.756  0.0581 -1.4857 -0.8906
 4125TIP3    H233791   6.710   0.262  12.855  0.8587  1.3482 -2.7835
 4126TIP3   OH233792   3.324   3.106  11.671 -0.7184 -0.1534  0.2806
 4126TIP3    H133793   3.244   3.089  11.622 -1.3923  1.2243  0.8486
 4126TIP3    H233794   3.315   3.053  11.751 -0.0604 -1.6389 -0.5853
 4127TIP3   OH233795   0.258   0.593   5.660 -0.0815  0.1015  0.1937
 4127TIP3    H133796   0.266   0.506   5.700 -0.3175 -0.0980 -0.1891
 4127TIP3    H233797   0.294   0.653   5.726 -2.9235  0.0823  1.9321
 4128TIP3   OH233798   3.044   1.465   1.046  0.8106  0.0560 -1.1720
 4128TIP3    H133799   3.074   1.476   0.956 -0.0483 -0.3007 -1.5053
 4128TIP3    H233800   2.999   1.381   1.047 -0.4343  0.7031 -0.7613
 4129TIP3   OH233801   0.062   5.797   1.832 -0.0494 -0.3230 -0.3676
 4129TIP3    H133802   0.075   5.887   1.860  0.3555  0.1557 -2.0164
 4129TIP3    H233803   0.147   5.768   1.801 -0.6898 -0.4618 -2.0667
 4130TIP3   OH233804   2.733   4.212   3.272  0.3159  0.0633 -0.0274
 4130TIP3    H133805   2.811   4.157   3.279  0.7631  0.6082 -0.5608
 4130TIP3    H233806   2.746   4.261   3.191 -0.2638  0.6469  0.2271
 4131TIP3   OH233807   0.458   2.754  14.065 -0.7752  0.1334  0.1166
 4131TIP3    H133808   0.534   2.709  14.027 -0.6064 -0.1207  0.7430
 4131TIP3    H233809   0.421   2.804  13.992 -0.4812 -0.3730 -0.3936
 4132TIP3   OH233810   5.813   1.779   0.019 -0.2323  0.5667 -0.0923
 4132TIP3    H133811   5.885   1.816  -0.033  0.7635 -2.0987 -0.8139
 4132TIP3    H233812   5.855   1.710   0.071 -2.1018 -0.3933  0.2245
 4133TIP3   OH233813   4.756   1.362   3.637  0.6175  0.8319  1.0140
 4133TIP3    H133814   4.827   1.386   3.578  0.8211  2.3810  1.8511
 4133TIP3    H233815   4.792   1.291   3.690  1.2471  1.0230  0.8512
 4134TIP3   OH233816   5.363   2.885   2.266  0.1332 -0.0133 -0.1457
 4134TIP3    H133817   5.330   2.959   2.214  0.0530 -0.3394 -0.5597
 4134TIP3    H233818   5.290   2.823   2.268  0.7403 -0.7756 -1.1298
 4135TIP3   OH233819   5.800   5.986   1.205 -0.5284 -0.1477 -0.7701
 4135TIP3    H133820   5.870   6.019   1.261 -0.7211  1.3575 -1.3595
 4135TIP3    H233821   5.740   6.060   1.196 -1.5730 -1.0233 -1.2749
 4136TIP3   OH233822   0.046   1.193   4.160  0.3652  0.0043  0.0532
 4136TIP3    H133823   0.021   1.101   4.161 -1.2612  0.4132 -0.1054
 4136TIP3    H233824  -0.024   1.237   4.112  0.4618  1.4873  1.1773
 4137TIP3   OH233825   3.027   2.933  17.174 -0.3934 -1.1907 -0.1043
 4137TIP3    H133826   3.114   2.895  17.175 -0.8512 -2.2985  1.6170
 4137TIP3    H233827   3.042   3.026  17.156  1.3600 -0.9559  2.1094
 4138TIP3   OH233828   1.902   3.732  15.629  0.4323 -0.2798  0.5108
 4138TIP3    H133829   1.877   3.706  15.718  0.6611 -0.4830  0.5167
 4138TIP3    H233830   1.996   3.748  15.634  0.4773 -0.4485  0.2699
 4139TIP3   OH233831   3.398   1.847  14.746 -0.5316  0.2367 -0.4699
 4139TIP3    H133832   3.368   1.778  14.688 -1.9114  1.2781 -1.0519
 4139TIP3    H233833   3.319   1.878  14.790  0.3455  0.0935  1.3135
 4140TIP3   OH233834   1.701   0.293   4.351 -0.0664  0.3084 -0.4182
 4140TIP3    H133835   1.744   0.311   4.267  0.5908  1.3259  0.1053
 4140TIP3    H233836   1.608   0.312   4.335 -0.1169 -0.5662 -1.1976
 4141TIP3   OH233837   6.709   4.105  15.666  0.1498  0.7882 -0.6930
 4141TIP3    H133838   6.685   4.013  15.674  0.5975  0.6465 -0.9268
 4141TIP3    H233839   6.796   4.111  15.705  0.4249  0.9678 -1.3075
 4142TIP3   OH233840   0.849   0.424  12.767 -0.2053 -0.4861 -0.4077
 4142TIP3    H133841   0.911   0.476  12.715 -0.4308 -0.6674 -0.8611
 4142TIP3    H233842   0.904   0.375  12.828  0.3347 -2.2909 -2.2067
 4143TIP3   OH233843   1.372   6.067   0.257 -0.1527 -0.3077  0.2497
 4143TIP3    H133844   1.369   6.124   0.180  1.4918 -0.8636 -0.2755
 4143TIP3    H233845   1.318   5.992   0.234  0.8183 -0.7659 -0.6549
 4144TIP3   OH233846   5.682   5.763  14.329  0.2546 -0.6273 -0.6573
 4144TIP3    H133847   5.617   5.695  14.346 -0.5646 -0.0749 -1.5012
 4144TIP3    H233848   5.766   5.722  14.349 -0.3547 -1.2804  0.6927
 4145TIP3   OH233849   4.168   5.758  15.475  0.1410 -0.1393  0.6879
 4145TIP3    H133850   4.116   5.793  15.402  0.7173  0.5803  0.6195
 4145TIP3    H233851   4.210   5.834  15.514  0.4511 -0.6156  1.3001
 4146TIP3   OH233852   4.180   4.898   5.861 -0.0803 -0.6472  0.1196
 4146TIP3    H133853   4.125   4.894   5.783  0.5577 -0.3744 -0.3520
 4146TIP3    H233854   4.243   4.827   5.851  0.1403 -0.4783  0.2813
 4147TIP3   OH233855   6.031   2.246  14.012  0.3047  0.2280 -0.1659
 4147TIP3    H133856   6.050   2.240  13.918 -0.6146  0.3207 -0.3602
 4147TIP3    H233857   5.945   2.206  14.021  0.6616 -0.3624  0.7400
 4148TIP3   OH233858   3.616   3.552   1.012  0.1132  0.3128 -0.0762
 4148TIP3    H133859   3.626   3.478   1.071  2.9988  1.1538  0.6383
 4148TIP3    H233860   3.653   3.523   0.929  1.9256  1.0717  0.4045
 4149TIP3   OH233861   4.380   2.145   5.559 -0.2474  0.5046  0.0285
 4149TIP3    H133862   4.380   2.137   5.654  1.0459  0.0623  0.0056
 4149TIP3    H233863   4.308   2.088   5.531 -0.4857  0.4511  0.7230
 4150TIP3   OH233864   5.047   4.175  12.298 -0.0446  0.4846  0.6766
 4150TIP3    H133865   5.103   4.202  12.371 -0.0540 -1.6126  1.5319
 4150TIP3    H233866   5.106   4.127  12.240 -0.4875  0.2669  0.4086
 4151TIP3   OH233867   3.918   6.622  11.592  0.0618 -0.3069  0.3082
 4151TIP3    H133868   3.996   6.590  11.546 -0.3288 -1.0679  0.1539
 4151TIP3    H233869   3.845   6.593  11.537 -0.3628 -0.3540  0.8907
 4152TIP3   OH233870   6.120   2.338  12.122  0.4991  0.1881  0.0870
 4152TIP3    H133871   6.176   2.380  12.187  0.7086  0.4223 -0.2383
 4152TIP3    H233872   6.178   2.324  12.047  0.1438  0.3414 -0.2188
 4153TIP3   OH233873   1.547   6.061  13.662  0.0870  0.3914 -0.1649
 4153TIP3    H133874   1.619   6.016  13.617  0.6665 -1.0929  2.0785
 4153TIP3    H233875   1.476   5.996  13.662 -0.1062  0.6010  0.4918
 4154TIP3   OH233876   2.278   1.950  14.270 -0.8120 -0.0752 -0.5010
 4154TIP3    H133877   2.283   1.921  14.179 -0.6223 -0.6645 -0.3085
 4154TIP3    H233878   2.275   1.869  14.321 -1.9401  0.2367 -0.0282
 4155TIP3   OH233879   6.479   5.279   0.466  0.1292  0.2564  0.2527
 4155TIP3    H133880   6.405   5.340   0.457  0.5111  0.6867  0.0424
 4155TIP3    H233881   6.541   5.325   0.523  0.4397  0.0865  0.0522
 4156TIP3   OH233882   1.706   4.058  12.571  0.7382 -0.5090  0.3486
 4156TIP3    H133883   1.741   4.147  12.576 -0.7071  0.4196 -3.2944
 4156TIP3    H233884   1.656   4.048  12.653 -1.1306  3.0624 -0.1325
 4157TIP3   OH233885   5.883   0.542  13.519 -0.1322 -0.6673  0.3879
 4157TIP3    H133886   5.972   0.559  13.489  0.1422 -1.6558  0.6036
 4157TIP3    H233887   5.870   0.602  13.593  0.0624  0.0356 -0.1400
 4158TIP3   OH233888   2.521   3.840   5.478 -0.3016  0.2601 -0.3979
 4158TIP3    H133889   2.505   3.781   5.551  1.4116  0.0816 -0.1145
 4158TIP3    H233890   2.451   3.905   5.484  0.0056  0.4825  1.6621
 4159TIP3   OH233891   0.215   1.435  16.923  0.2698 -0.3479 -0.5055
 4159TIP3    H133892   0.128   1.459  16.955  0.4750  0.8630 -0.8100
 4159TIP3    H233893   0.201   1.408  16.832  0.3629  1.2023 -1.0226
 4160TIP3   OH233894   5.184   6.745   1.826 -0.0069  0.0545  0.2754
 4160TIP3    H133895   5.118   6.682   1.856  0.4551  0.3445  1.9658
 4160TIP3    H233896   5.195   6.724   1.733 -0.9281 -1.3941  0.4499
 4161TIP3   OH233897   0.269   0.124  16.089  0.3418 -0.5942  0.0980
 4161TIP3    H133898   0.272   0.219  16.098  2.0543 -0.6721  0.8118
 4161TIP3    H233899   0.238   0.109  16.000  0.7521  0.6634 -0.2778
 4162TIP3   OH233900   1.538   1.106  16.087  0.5015  0.2382  0.1203
 4162TIP3    H133901   1.601   1.175  16.110  0.2196 -0.0540  1.8954
 4162TIP3    H233902   1.579   1.025  16.119 -1.0416  0.1253  1.9737
 4163TIP3   OH233903   0.981   0.713   1.891  0.5278 -0.0416  0.0224
 4163TIP3    H133904   0.991   0.634   1.838 -1.3086  0.7724 -1.6956
 4163TIP3    H233905   1.032   0.780   1.843 -0.0426  0.3932  0.0095
 4164TIP3   OH233906   0.124   0.066  11.149 -0.2527  0.1618 -0.2460
 4164TIP3    H133907   0.165  -0.015  11.180  1.4202  1.3074  0.7089
 4164TIP3    H233908   0.030   0.048  11.152  0.0791 -1.6964  0.0441
 4165TIP3   OH233909   0.327   4.170  13.973 -0.1750  0.3345  0.2355
 4165TIP3    H133910   0.396   4.183  13.907 -0.6927  1.2246 -0.1595
 4165TIP3    H233911   0.276   4.097  13.939  0.4652 -0.2167  0.4410
 4166TIP3   OH233912   1.747   0.662   0.232  0.0391 -0.2241 -0.1401
 4166TIP3    H133913   1.752   0.567   0.235 -0.7616 -0.3525 -1.7763
 4166TIP3    H233914   1.808   0.686   0.162  1.5386  0.6360  1.3793
 4167TIP3   OH233915   6.394   6.658  16.050 -0.6667 -0.0338 -0.0381
 4167TIP3    H133916   6.425   6.614  15.971  0.6145  1.2388 -0.2787
 4167TIP3    H233917   6.298   6.650  16.046 -0.5210 -2.1331 -0.4230
 4168TIP3   OH233918   2.614   2.752  11.130 -0.1440  0.4201 -0.2761
 4168TIP3    H133919   2.666   2.688  11.178  1.5695  0.9647 -1.3055
 4168TIP3    H233920   2.529   2.710  11.118 -0.0707 -0.4034  1.6876
 4169TIP3   OH233921   0.587   2.104   0.483  0.7014 -0.1046  0.0278
 4169TIP3    H133922   0.569   2.168   0.414  1.2695 -1.3394 -1.3308
 4169TIP3    H233923   0.501   2.085   0.522  0.6387  2.1513  1.1398
 4170TIP3   OH233924   4.936   0.228  15.523  0.1830 -0.8875  0.4292
 4170TIP3    H133925   4.952   0.278  15.443 -0.8825  0.5042  1.0438
 4170TIP3    H233926   4.937   0.137  15.495 -3.4273 -0.4111 -1.8860
 4171TIP3   OH233927   5.333   4.191  12.365 -0.3743  0.2779  0.2606
 4171TIP3    H133928   5.308   4.203  12.274 -2.4850  0.0448  0.7440
 4171TIP3    H233929   5.428   4.202  12.366  0.0264 -1.9606 -2.3197
 4172TIP3   OH233930   6.291   6.288  14.930  0.0412  0.5716  0.0266
 4172TIP3    H133931   6.356   6.306  14.999  0.3624 -1.2807  0.2694
 4172TIP3    H233932   6.228   6.360  14.937  2.0488  2.4371 -0.2226
 4173TIP3   OH233933   3.202   3.432   0.623  0.2875  0.2518  0.1073
 4173TIP3    H133934   3.266   3.425   0.552 -0.0684  1.1961 -0.3221
 4173TIP3    H233935   3.254   3.434   0.703  0.6593 -2.0674  0.0016
 4174TIP3   OH233936   6.288   2.344  17.032  0.1313 -0.2375 -0.7883
 4174TIP3    H133937   6.374   2.310  17.056  0.8598  0.1575 -2.6623
 4174TIP3    H233938   6.228   2.269  17.042  0.8836 -0.8115 -0.5210
 4175TIP3   OH233939   2.939   4.758  15.240 -0.0878 -1.0409 -0.2829
 4175TIP3    H133940   2.895   4.707  15.307 -0.5168  1.2486  1.3000
 4175TIP3    H233941   3.016   4.796  15.284 -0.3938  0.5370 -1.0220
 4176TIP3   OH233942   6.604   5.613  16.251 -0.3109 -0.2264  0.1346
 4176TIP3    H133943   6.644   5.530  16.225 -1.9998 -1.1355  0.3538
 4176TIP3    H233944   6.530   5.624  16.192 -0.1168  1.1506  0.1055
 4177TIP3   OH233945   4.149   2.341  15.686  0.4161  0.1848  0.3584
 4177TIP3    H133946   4.108   2.338  15.599  0.2348  1.6666  0.3747
 4177TIP3    H233947   4.119   2.261  15.729  0.1899 -0.3727 -0.8075
 4178TIP3   OH233948   5.759   0.994   2.925  0.0167 -0.5432 -0.0935
 4178TIP3    H133949   5.787   0.914   2.970  0.0955 -0.9388 -0.8339
 4178TIP3    H233950   5.826   1.058   2.945  0.8053 -1.1218 -0.8082
 4179TIP3   OH233951   1.524   3.561  11.578  0.5077 -0.4074  0.0564
 4179TIP3    H133952   1.433   3.555  11.606  0.5223 -0.4690  0.0916
 4179TIP3    H233953   1.529   3.509  11.498  0.6598 -0.9597  0.4226
 4180TIP3   OH233954   5.692   1.411  10.732  0.0461 -0.0652  0.1848
 4180TIP3    H133955   5.711   1.496  10.772 -1.2531  0.5355 -0.4119
 4180TIP3    H233956   5.597   1.412  10.718  0.4715  0.1699 -3.7239
 4181TIP3   OH233957   5.797   5.073   4.855 -0.1921  0.4994  0.2588
 4181TIP3    H133958   5.714   5.121   4.862 -0.7016 -0.2327 -0.5643
 4181TIP3    H233959   5.771   4.984   4.832  0.7873  0.0364  0.8871
 4182TIP3   OH233960   3.067   6.402   4.142  0.7759 -0.5451 -0.0288
 4182TIP3    H133961   3.019   6.456   4.204  2.0234  0.9703 -0.3272
 4182TIP3    H233962   3.148   6.379   4.187  1.5185  0.2408 -0.9105
 4183TIP3   OH233963   0.356   0.755  15.297 -0.1754  0.2679 -0.2182
 4183TIP3    H133964   0.371   0.846  15.324  1.3555 -0.0434  0.0905
 4183TIP3    H233965   0.262   0.741  15.312 -0.5575  1.9411 -0.7768
 4184TIP3   OH233966   3.124   2.315  15.897 -0.2460  0.8634 -0.0711
 4184TIP3    H133967   3.176   2.392  15.874 -0.6738  1.0172 -0.5368
 4184TIP3    H233968   3.033   2.343  15.888 -0.4164  0.5972  0.7526
 4185TIP3   OH233969   2.111   1.540  15.080  0.0257  0.8318  0.4019
 4185TIP3    H133970   2.104   1.635  15.091  1.1628  0.9391  0.2929
 4185TIP3    H233971   2.202   1.525  15.053  0.1425 -0.3883  1.3885
 4186TIP3   OH233972   5.933   2.318  15.392  0.3915  0.1458  0.0993
 4186TIP3    H133973   5.951   2.224  15.385  1.5701  0.3114  0.6849
 4186TIP3    H233974   6.012   2.355  15.431 -1.1787  0.9311  2.8667
 4187TIP3   OH233975   0.773   3.822   1.278  0.5605  0.6052  0.2513
 4187TIP3    H133976   0.771   3.860   1.366 -1.0161 -0.3483  0.6565
 4187TIP3    H233977   0.784   3.898   1.220 -1.2415  1.5733  1.0966
 4188TIP3   OH233978   2.801   2.720   0.550 -1.3322  0.2307  0.2067
 4188TIP3    H133979   2.842   2.645   0.593 -1.8587 -0.7566 -0.9669
 4188TIP3    H233980   2.708   2.698   0.547 -1.3321  0.3699 -1.2419
 4189TIP3   OH233981   2.177   2.349   1.229 -0.4015 -0.4330  0.3370
 4189TIP3    H133982   2.145   2.297   1.303  1.1481 -0.9328  0.7086
 4189TIP3    H233983   2.112   2.418   1.218 -1.0799 -0.8246  1.6435
 4190TIP3   OH233984   4.080   2.672  16.937 -0.4314  0.5621 -0.4755
 4190TIP3    H133985   4.151   2.615  16.909 -0.4855  0.5458 -0.5771
 4190TIP3    H233986   4.015   2.614  16.976  0.6127  0.7757  1.7250
 4191TIP3   OH233987   2.160   6.618  14.647  0.8876 -0.0755 -0.2110
 4191TIP3    H133988   2.221   6.690  14.630  0.8061 -0.0373 -0.3562
 4191TIP3    H233989   2.092   6.657  14.703  2.2539 -0.7476  2.0254
 4192TIP3   OH233990   1.305   0.494  15.705 -0.0623 -0.6642 -0.4140
 4192TIP3    H133991   1.300   0.475  15.611  1.0467 -0.7050 -0.4858
 4192TIP3    H233992   1.277   0.585  15.713  1.9124  0.0620 -1.1098
 4193TIP3   OH233993   4.379   0.709   4.662  0.1810 -0.3167 -0.1682
 4193TIP3    H133994   4.353   0.801   4.649  1.0620  0.6649  3.7240
 4193TIP3    H233995   4.309   0.659   4.620 -2.2699  2.1830  0.5512
 4194TIP3   OH233996   2.708   4.836   1.583 -0.0930  0.2038 -0.1010
 4194TIP3    H133997   2.751   4.891   1.517  1.3769 -0.1066  0.5633
 4194TIP3    H233998   2.720   4.883   1.665 -2.8262  1.1245 -0.1028
 4195TIP3   OH233999   2.264   2.009   0.396  0.7507 -0.6614  1.0457
 4195TIP3    H134000   2.224   2.019   0.483 -1.2785 -3.3336  0.5458
 4195TIP3    H234001   2.255   1.916   0.376  0.3459 -0.0161 -2.3808
 4196TIP3   OH234002   0.418   1.744   1.194 -0.0037 -0.1561  0.6148
 4196TIP3    H134003   0.472   1.801   1.248 -0.0900  1.1059 -0.5818
 4196TIP3    H234004   0.479   1.704   1.132 -0.0933 -0.5905  0.8047
 4197TIP3   OH234005   2.980   5.397   1.363 -0.0171 -0.0632  0.6574
 4197TIP3    H134006   3.013   5.307   1.365  0.1306 -0.2319 -2.9261
 4197TIP3    H234007   3.055   5.450   1.335 -0.9247  0.6222 -0.5987
 4198TIP3   OH234008   4.970   2.963  13.747 -0.2628  0.6384 -0.9902
 4198TIP3    H134009   4.947   2.979  13.838 -1.2688 -0.3242 -1.0534
 4198TIP3    H234010   4.933   3.038  13.700  0.4739  1.2643 -0.6012
 4199TIP3   OH234011   2.666   3.135   3.393 -0.2284 -0.6899  0.0336
 4199TIP3    H134012   2.574   3.157   3.401  0.1826  0.9284  0.7837
 4199TIP3    H234013   2.706   3.212   3.351  0.8817 -1.0404  0.3964
 4200TIP3   OH234014   5.890   4.762  12.419  0.0888 -0.4509 -0.2175
 4200TIP3    H134015   5.926   4.789  12.504 -1.8642  2.6705 -0.1946
 4200TIP3    H234016   5.802   4.730  12.439 -0.8962  1.5207 -1.0398
 4201TIP3   OH234017   3.071   0.749  16.859  0.0475 -0.1826  1.0870
 4201TIP3    H134018   3.126   0.825  16.841 -0.3981  0.1566  1.1426
 4201TIP3    H234019   3.124   0.695  16.918  0.8530 -0.5127  0.1031
 4202TIP3   OH234020   4.331   3.861  14.090  0.1712  0.7623  0.3322
 4202TIP3    H134021   4.418   3.821  14.090 -0.1561 -0.0253  1.6818
 4202TIP3    H234022   4.346   3.953  14.113  0.6626  0.6391  0.5124
 4203TIP3   OH234023   3.131   1.269  14.427 -0.0897  0.4330 -0.8086
 4203TIP3    H134024   3.074   1.326  14.479  0.2866  0.4693 -0.4324
 4203TIP3    H234025   3.093   1.270  14.339 -0.4094  0.8146 -0.6661
 4204TIP3   OH234026   1.221   4.580  15.352  0.0156 -0.6717 -0.5246
 4204TIP3    H134027   1.178   4.516  15.409 -0.1912 -0.5743 -0.5700
 4204TIP3    H234028   1.278   4.630  15.410  0.4279 -1.1140 -0.5436
 4205TIP3   OH234029   1.083   1.394  13.879  0.5212 -0.8950  0.3458
 4205TIP3    H134030   1.130   1.477  13.886 -0.2858 -0.3339 -0.7302
 4205TIP3    H234031   1.012   1.401  13.942 -0.3583 -0.2018 -0.7023
 4206TIP3   OH234032   1.774   5.355  12.708 -0.4297  0.1871  0.1896
 4206TIP3    H134033   1.798   5.394  12.792  0.2157  1.1102 -0.3945
 4206TIP3    H234034   1.846   5.294  12.689 -1.8266 -2.0022  1.4807
 4207TIP3   OH234035   5.123   3.329  14.871  0.4309  0.6372  0.3654
 4207TIP3    H134036   5.104   3.344  14.964  2.1308 -0.3974  0.9181
 4207TIP3    H234037   5.084   3.243  14.853  0.2207  0.7760  0.1577
 4208TIP3   OH234038   5.284   3.337   0.480  0.0959  0.0406 -0.0438
 4208TIP3    H134039   5.202   3.333   0.530  1.1035  0.6966  1.7364
 4208TIP3    H234040   5.289   3.427   0.449 -0.2442 -0.2166 -0.8712
 4209TIP3   OH234041   4.370   0.999   2.363 -0.3249 -0.2344  0.6774
 4209TIP3    H134042   4.440   0.978   2.301  1.7649  2.6415  1.8285
 4209TIP3    H234043   4.369   0.926   2.425  0.6673 -1.0141 -0.1996
 4210TIP3   OH234044   4.675   4.009   0.923 -0.1403 -0.0093  0.1483
 4210TIP3    H134045   4.660   3.915   0.933  0.2795 -0.0628  0.2906
 4210TIP3    H234046   4.770   4.019   0.923 -0.1493  0.2895 -1.0410
 4211TIP3   OH234047   5.126   4.878  11.289 -0.0522  0.3490 -0.2590
 4211TIP3    H134048   5.119   4.973  11.284  1.2660  0.4658 -0.2427
 4211TIP3    H234049   5.204   4.862  11.343 -0.3783 -0.7449 -0.0741
 4212TIP3   OH234050   3.224   0.019  14.217 -0.2467  0.5383  0.0404
 4212TIP3    H134051   3.189   0.055  14.299 -1.6434 -1.9702  0.6656
 4212TIP3    H234052   3.160   0.044  14.150 -3.0872 -3.1419  1.0110
 4213TIP3   OH234053   0.210   0.423   0.577 -0.1893  0.2070  0.2155
 4213TIP3    H134054   0.136   0.420   0.637  0.5907 -0.1493  1.1904
 4213TIP3    H234055   0.178   0.472   0.501 -1.1585  0.7771  0.9707
 4214TIP3   OH234056   6.277   6.531  12.875  0.3284  0.5132 -0.0321
 4214TIP3    H134057   6.367   6.558  12.859  0.1071  0.2288 -1.8902
 4214TIP3    H234058   6.225   6.609  12.855  0.1051  0.5101  0.5111
 4215TIP3   OH234059   2.792   1.638  14.108  0.1238 -0.2784 -0.1539
 4215TIP3    H134060   2.790   1.686  14.025 -1.6533  1.2844  0.7323
 4215TIP3    H234061   2.716   1.669  14.156  0.0794 -2.4946  1.3549
 4216TIP3   OH234062   0.931   3.736  15.433  0.1071  0.0669  0.3448
 4216TIP3    H134063   0.994   3.787  15.484 -0.5078  0.6455  0.5316
 4216TIP3    H234064   0.847   3.778  15.449 -0.0764  0.4491 -1.3709
 4217TIP3   OH234065   0.731   0.968  14.346  0.1061  0.0422 -0.4207
 4217TIP3    H134066   0.656   1.019  14.316 -2.1254 -2.0884  1.2033
 4217TIP3    H234067   0.766   0.929  14.266  0.9516  2.7354 -1.5020
 4218TIP3   OH234068   5.252   3.152   1.780 -0.1984 -0.4213  0.4453
 4218TIP3    H134069   5.261   3.201   1.698 -1.5752 -1.2151 -0.2107
 4218TIP3    H234070   5.225   3.217   1.844  1.1716  0.2695  0.3741
 4219TIP3   OH234071   4.213   0.835  14.217 -0.0018  0.6712 -0.0594
 4219TIP3    H134072   4.120   0.835  14.193  0.1117  2.9852 -0.8209
 4219TIP3    H234073   4.253   0.896  14.155  1.8673  0.4352  0.8488
 4220TIP3   OH234074   5.230   4.506   3.408  0.6734  0.3586 -0.0803
 4220TIP3    H134075   5.144   4.483   3.443  1.3399 -1.3118  0.5624
 4220TIP3    H234076   5.216   4.591   3.364 -1.4325 -0.1720 -0.5689
 4221TIP3   OH234077   5.551   3.534   4.473 -0.3060  0.1510  0.4344
 4221TIP3    H134078   5.546   3.442   4.446  0.7151 -0.3988  1.9654
 4221TIP3    H234079   5.492   3.580   4.413  2.4821 -0.7574 -3.3696
 4222TIP3   OH234080   2.249   1.269   1.394 -0.0841  0.1799 -0.0154
 4222TIP3    H134081   2.297   1.193   1.360 -0.0301 -0.6678  1.8209
 4222TIP3    H234082   2.284   1.343   1.345 -0.9890 -1.0816 -2.7214
 4223TIP3   OH234083   0.761   1.031   0.891 -0.6002  0.2236  0.0287
 4223TIP3    H134084   0.853   1.038   0.917 -0.1606 -0.7500 -1.1837
 4223TIP3    H234085   0.719   0.988   0.966  0.0683  0.0531  0.3169
 4224TIP3   OH234086   3.251   0.103   5.797 -0.4883 -0.4193 -0.4278
 4224TIP3    H134087   3.241   0.021   5.748 -1.6916 -0.3543 -0.3231
 4224TIP3    H234088   3.162   0.125   5.824  0.0393 -0.0414  1.1099
 4225TIP3   OH234089   1.599   3.533   1.991 -0.0815  0.4612  0.0578
 4225TIP3    H134090   1.505   3.550   1.988 -0.3425  0.2839  3.3599
 4225TIP3    H234091   1.640   3.617   1.970 -0.9867  0.8639 -0.1323
 4226TIP3   OH234092   1.190   2.458   1.393  0.0195  0.2520  0.0414
 4226TIP3    H134093   1.115   2.490   1.444  0.8884  1.2411  0.7473
 4226TIP3    H234094   1.254   2.529   1.399  1.8429 -1.3890  1.2306
 4227TIP3   OH234095   4.952   3.623  16.191 -0.1745 -0.2253  0.0054
 4227TIP3    H134096   4.947   3.705  16.142 -0.2662  0.4361  1.0934
 4227TIP3    H234097   4.891   3.564  16.146  1.1815 -0.3036 -1.8602
 4228TIP3   OH234098   3.633   3.012  13.732  0.4898  0.1529 -0.2763
 4228TIP3    H134099   3.697   3.041  13.796  0.9551 -0.4873 -0.4375
 4228TIP3    H234100   3.585   3.091  13.707 -1.4615  0.0918  2.7458
 4229TIP3   OH234101   3.470   0.094   2.664  0.0500 -0.1464 -0.2190
 4229TIP3    H134102   3.502   0.030   2.728  0.7367  1.1035  0.7478
 4229TIP3    H234103   3.500   0.179   2.698  0.1964  0.5951 -2.0592
 4230TIP3   OH234104   0.457   4.646  15.113  0.2738  0.2811  0.1230
 4230TIP3    H134105   0.391   4.579  15.095 -0.4284  0.6562  1.2411
 4230TIP3    H234106   0.469   4.643  15.208  1.1697  0.8766  0.0411
 4231TIP3   OH234107   4.706   3.751  16.378 -0.2976 -0.0347  0.4488
 4231TIP3    H134108   4.653   3.719  16.305 -1.7468 -0.5573  1.6792
 4231TIP3    H234109   4.762   3.819  16.340 -1.3105 -0.0151 -1.0560
 4232TIP3   OH234110   0.037   4.836  14.662  0.1621  0.2881 -0.1663
 4232TIP3    H134111   0.087   4.785  14.726 -0.8916 -1.9892 -1.0517
 4232TIP3    H234112  -0.044   4.858  14.708  0.1316  0.1435 -0.1489
 4233TIP3   OH234113   5.996   1.111  13.946 -0.7880  0.0168  0.3377
 4233TIP3    H134114   6.043   1.039  13.904 -1.8337 -1.5226  1.6995
 4233TIP3    H234115   5.941   1.069  14.012 -0.4712  2.1734  2.1006
 4234TIP3   OH234116   0.870   0.137  14.433 -0.2993 -0.0250 -0.2230
 4234TIP3    H134117   0.823   0.146  14.350 -0.6040 -2.2405 -0.3532
 4234TIP3    H234118   0.924   0.059  14.422  0.2220  0.0648  1.4116
 4235TIP3   OH234119   0.255   0.007   1.301 -0.4559 -0.0077 -0.1380
 4235TIP3    H134120   0.307   0.075   1.257  0.7756 -1.1992 -0.5888
 4235TIP3    H234121   0.291   0.002   1.389  0.4349 -1.0341 -0.5376
 4236TIP3   OH234122   1.839   3.281  12.926  0.1156  0.2424 -0.2824
 4236TIP3    H134123   1.811   3.191  12.944 -0.7206  0.5449 -0.0273
 4236TIP3    H234124   1.801   3.302  12.841  1.5797 -0.1517 -1.0700
 4237TIP3   OH234125   0.876   4.760   6.101 -0.5374  0.2731  0.0046
 4237TIP3    H134126   0.950   4.793   6.051  0.0883 -0.2395  0.5617
 4237TIP3    H234127   0.851   4.833   6.158  0.6673 -0.0974  1.0437
 4238TIP3   OH234128   5.254   4.728   1.393  0.1073 -0.0546 -0.4163
 4238TIP3    H134129   5.308   4.799   1.426  0.5261 -0.7379  0.3913
 4238TIP3    H234130   5.315   4.655   1.380 -0.4504 -0.5240 -0.4547
 4239TIP3   OH234131   5.265   3.954   0.000  0.0487  0.4050 -0.2981
 4239TIP3    H134132   5.290   4.006   0.077  2.8251 -0.6594 -0.3408
 4239TIP3    H234133   5.243   4.019  -0.067  0.3379  1.4442  0.5836
 4240TIP3   OH234134   4.647   1.474  17.088  0.8281 -0.0771  0.1256
 4240TIP3    H134135   4.694   1.392  17.105  0.4548  0.0446  1.9542
 4240TIP3    H234136   4.698   1.541  17.132 -1.1484 -0.0075  2.5786
 4241TIP3   OH234137   1.994   6.040   2.604  0.3243  0.9050 -0.1397
 4241TIP3    H134138   1.902   6.042   2.631 -0.2137 -1.3530 -1.4935
 4241TIP3    H234139   2.042   6.015   2.683 -0.7346 -1.6718 -0.2141
 4242TIP3   OH234140   1.965   2.400   3.348  0.1607 -0.1969  0.2060
 4242TIP3    H134141   1.872   2.387   3.363 -0.0231 -0.3728 -0.9267
 4242TIP3    H234142   2.006   2.319   3.379  0.0762  0.3275  1.7270
 4243TIP3   OH234143   6.260   2.123   1.711 -0.5529  0.6320 -0.6010
 4243TIP3    H134144   6.188   2.060   1.717  0.1900 -0.1084  1.7749
 4243TIP3    H234145   6.335   2.077   1.750  0.7901  1.9679 -1.5126
 4244TIP3   OH234146   0.981   1.777   5.020  0.1158  0.9246 -0.0797
 4244TIP3    H134147   0.973   1.847   4.955 -1.7078 -0.4700 -1.4436
 4244TIP3    H234148   1.073   1.752   5.017  0.1422  1.1234 -1.8899
 4245TIP3   OH234149   6.231   0.927   5.924 -0.2000  0.0167 -0.3004
 4245TIP3    H134150   6.324   0.912   5.909  0.3804  2.0704  0.8480
 4245TIP3    H234151   6.221   1.022   5.919 -1.5286  0.1969  3.0093
 4246TIP3   OH234152   5.043   2.076  10.418  0.1170  0.1667 -0.1827
 4246TIP3    H134153   4.959   2.056  10.460 -0.6086  0.2037 -1.5507
 4246TIP3    H234154   5.053   2.171  10.428 -1.2299  0.5713 -2.0790
 4247TIP3   OH234155   5.466   3.875  15.981  0.1364 -0.2010  0.2081
 4247TIP3    H134156   5.555   3.868  16.017 -0.4233 -0.8799  1.5082
 4247TIP3    H234157   5.456   3.797  15.926 -0.5031 -1.5223  2.0829
 4248TIP3   OH234158   3.674   0.562  17.076 -0.0693 -0.1468  0.8474
 4248TIP3    H134159   3.740   0.628  17.058  0.4342 -0.4297  1.5950
 4248TIP3    H234160   3.639   0.538  16.990  0.3605  0.4486  0.5026
 4249TIP3   OH234161   5.554   2.902   4.692  0.3892 -0.6635  0.4260
 4249TIP3    H134162   5.630   2.955   4.715  1.2533 -2.3106  1.5989
 4249TIP3    H234163   5.536   2.850   4.771 -1.6800 -0.6597  0.0230
 4250TIP3   OH234164   6.765   6.735   5.497  0.0694 -0.0986 -0.0509
 4250TIP3    H134165   6.740   6.763   5.585  2.4353 -0.3696  0.7736
 4250TIP3    H234166   6.682   6.726   5.451 -1.2685 -0.2139  2.2112
 4251TIP3   OH234167   5.779   1.454   5.118  0.4561  0.1478  0.8014
 4251TIP3    H134168   5.816   1.533   5.158  0.0972 -0.6083  2.7826
 4251TIP3    H234169   5.762   1.396   5.193 -1.1613 -1.0131 -0.3957
 4252TIP3   OH234170   0.940   1.768  13.652 -0.3424  0.5849  0.7717
 4252TIP3    H134171   0.960   1.691  13.706 -0.0769  0.5155  0.5751
 4252TIP3    H234172   0.868   1.812  13.698 -0.4981  0.2171  0.8840
 4253TIP3   OH234173   1.901   0.032  16.974 -0.5620 -0.1139 -0.6596
 4253TIP3    H134174   1.905   0.122  17.008 -0.7404  0.2446 -1.5559
 4253TIP3    H234175   1.898   0.043  16.879  0.3591 -1.0979 -0.8199
 4254TIP3   OH234176   4.602   4.035   2.008  0.1256 -0.2692  0.1384
 4254TIP3    H134177   4.566   3.974   1.944 -1.4789  0.5935  0.1663
 4254TIP3    H234178   4.569   4.121   1.982 -0.4901  0.1290  2.0151
 4255TIP3   OH234179   5.204   6.005  16.766 -0.1662 -0.1420 -0.1749
 4255TIP3    H134180   5.122   5.974  16.729 -0.0422  0.7702 -1.2639
 4255TIP3    H234181   5.181   6.082  16.817  0.0861  0.5962 -1.1376
 4256TIP3   OH234182   1.034   4.808   3.472 -0.4468 -0.0280 -0.1110
 4256TIP3    H134183   1.114   4.794   3.521 -1.5783 -2.4517  1.2377
 4256TIP3    H234184   1.039   4.745   3.399 -0.9632  0.0172 -0.1937
 4257TIP3   OH234185   0.849   2.864   4.942 -0.8165 -0.0010  0.3851
 4257TIP3    H134186   0.791   2.832   4.872  1.4659 -2.3044 -0.6320
 4257TIP3    H234187   0.792   2.871   5.018 -3.3752  2.4347 -1.5409
 4258TIP3   OH234188   1.998   0.190   0.810  0.0291 -0.2534  0.7225
 4258TIP3    H134189   1.939   0.120   0.838  1.0813 -1.4390  0.0851
 4258TIP3    H234190   1.973   0.265   0.864 -0.1880 -1.5054  2.4656
 4259TIP3   OH234191   4.579   4.335  16.440 -0.7914  0.5375  0.1075
 4259TIP3    H134192   4.673   4.338  16.420 -1.4425  1.4045 -3.5954
 4259TIP3    H234193   4.567   4.401  16.509  1.3584 -0.1332  1.2209
 4260TIP3   OH234194   4.485   0.364  15.239 -0.3539  0.3343  0.4358
 4260TIP3    H134195   4.458   0.289  15.292  1.0225  0.9754  2.1397
 4260TIP3    H234196   4.572   0.340  15.207 -1.0697  0.0496 -1.4481
 4261TIP3   OH234197   5.286   6.415   0.172  0.5053 -0.1342  0.0356
 4261TIP3    H134198   5.192   6.408   0.152  0.2810  0.3104  0.8786
 4261TIP3    H234199   5.322   6.470   0.103 -0.1382  0.8902  0.4875
 4262TIP3   OH234200   2.269   4.770   2.865 -0.2175 -0.1337 -0.1156
 4262TIP3    H134201   2.182   4.792   2.831 -0.6336 -0.2717  0.8414
 4262TIP3    H234202   2.300   4.851   2.906  0.5492  0.2173 -1.3350
 4263TIP3   OH234203   3.068   3.176  16.521  0.3116  0.4014  0.3601
 4263TIP3    H134204   3.073   3.142  16.610 -0.7150  0.7230  0.5526
 4263TIP3    H234205   3.040   3.102  16.468 -2.9087  1.0474  0.9285
 4264TIP3   OH234206   4.719   2.386  13.134  0.3503  0.3018  0.3496
 4264TIP3    H134207   4.657   2.358  13.067 -0.0532 -0.4133  1.0093
 4264TIP3    H234208   4.687   2.346  13.215  1.6144 -0.0269  0.7148
 4265TIP3   OH234209   2.198   6.034   1.477  0.4240 -1.2881  0.6317
 4265TIP3    H134210   2.137   6.095   1.434 -0.2094 -2.3834 -0.0888
 4265TIP3    H234211   2.199   6.061   1.568  0.8175  0.3201  0.1714
 4266TIP3   OH234212   5.035   0.870  13.859 -0.0900  0.0829  0.3330
 4266TIP3    H134213   5.084   0.837  13.934 -0.1144  0.3613  0.4707
 4266TIP3    H234214   4.986   0.794  13.828  0.0839 -0.0858  0.4666
 4267TIP3   OH234215   0.156   5.179   0.539 -0.8462  0.4049  0.1663
 4267TIP3    H134216   0.067   5.185   0.507 -1.4938 -0.2467  1.7277
 4267TIP3    H234217   0.147   5.179   0.635  0.9027  1.4971  0.3796
 4268TIP3   OH234218   6.496   5.800  15.147  0.2068  0.0758  0.1999
 4268TIP3    H134219   6.558   5.757  15.206 -0.6609 -0.2950  0.8660
 4268TIP3    H234220   6.439   5.850  15.205 -1.0767 -0.8185 -0.2444
 4269TIP3   OH234221   6.542   0.127   3.931  0.0531  0.1383 -0.2854
 4269TIP3    H134222   6.574   0.210   3.968 -0.6643 -0.8847  2.9601
 4269TIP3    H234223   6.620   0.086   3.894  0.8189  1.3255 -0.0489
 4270TIP3   OH234224   2.569   2.796   5.048 -0.2374 -0.0042  0.2216
 4270TIP3    H134225   2.525   2.859   5.105  0.3194  1.3841 -0.8145
 4270TIP3    H234226   2.596   2.847   4.972  0.4562 -1.4598 -0.5636
 4271TIP3   OH234227   2.792   3.659  15.278 -0.1045  0.0689 -0.1843
 4271TIP3    H134228   2.741   3.637  15.200 -0.6180  0.4713  0.0292
 4271TIP3    H234229   2.858   3.589  15.285 -1.4386 -1.1947  0.2613
 4272TIP3   OH234230   0.570   2.085  16.385 -0.0722 -0.2826 -0.0190
 4272TIP3    H134231   0.615   2.048  16.308  2.1194  1.7695  0.1714
 4272TIP3    H234232   0.607   2.037  16.459 -0.3446 -0.5488 -0.0522
 4273TIP3   OH234233   3.567   4.803   4.885 -0.1845  0.0138 -0.4308
 4273TIP3    H134234   3.641   4.778   4.939  0.1208  1.8658  0.0879
 4273TIP3    H234235   3.492   4.801   4.945 -0.5030 -1.3865 -0.8389
 4274TIP3   OH234236   2.916   3.040  11.035  0.1237 -0.6352 -0.0363
 4274TIP3    H134237   2.837   2.990  11.055 -0.8137  1.3702  1.6151
 4274TIP3    H234238   2.889   3.102  10.967  0.9959 -1.5660 -1.2942
 4275TIP3   OH234239   4.706   0.020   0.750  0.2822 -0.0584  0.0043
 4275TIP3    H134240   4.753   0.061   0.822  0.9026  1.0799 -1.0198
 4275TIP3    H234241   4.753   0.047   0.672  1.2510 -3.4302 -0.7162
 4276TIP3   OH234242   2.626   5.253  13.263 -0.1093 -0.3596  0.6906
 4276TIP3    H134243   2.678   5.270  13.184 -1.2857  1.1609  0.2067
 4276TIP3    H234244   2.665   5.308  13.330  1.7575 -2.6505  1.6342
 4277TIP3   OH234245   3.135   2.463  14.228 -0.8214  0.7963  0.2685
 4277TIP3    H134246   3.220   2.427  14.251 -1.0971  1.0312  1.7690
 4277TIP3    H234247   3.131   2.457  14.132  1.5558  2.3210 -0.0066
 4278TIP3   OH234248   6.752   6.665  15.852  0.5621 -0.6078 -0.1518
 4278TIP3    H134249   6.742   6.571  15.842 -1.0137 -0.5208  0.4268
 4278TIP3    H234250   6.753   6.699  15.763 -0.2378 -1.0464 -0.3285
 4279TIP3   OH234251   5.638   2.638  16.936 -0.2355 -0.5590 -0.1616
 4279TIP3    H134252   5.616   2.712  16.992 -1.3581 -0.6676 -0.4360
 4279TIP3    H234253   5.597   2.563  16.979 -1.1951 -0.6311 -1.1433
 4280TIP3   OH234254   1.984   2.041  17.002  0.4240 -0.3849  0.0923
 4280TIP3    H134255   1.958   2.002  17.085  0.2397  1.2689  0.8462
 4280TIP3    H234256   2.080   2.031  16.999  0.3377 -1.2396  0.0712
 4281TIP3   OH234257   0.370   0.141  14.272 -0.3005 -0.5563  0.2576
 4281TIP3    H134258   0.435   0.079  14.240  0.4259  0.3324 -0.0413
 4281TIP3    H234259   0.315   0.090  14.331  1.0327 -1.2135  0.9961
 4282TIP3   OH234260   0.670   3.240   0.429 -0.6129 -0.0645  0.1478
 4282TIP3    H134261   0.753   3.192   0.434 -0.8094 -0.4919 -0.5111
 4282TIP3    H234262   0.676   3.292   0.349 -1.0449 -0.2427 -0.0098
 4283TIP3   OH234263   3.779   6.047  16.124 -0.6264  0.2109  0.0839
 4283TIP3    H134264   3.743   6.116  16.181  0.6376  0.8237  0.1660
 4283TIP3    H234265   3.713   6.036  16.056 -1.6805  0.2201  1.0743
 4284TIP3   OH234266   0.717   3.508  13.086 -0.0314 -0.4253  0.2766
 4284TIP3    H134267   0.636   3.465  13.058 -0.4224  0.2457  0.3754
 4284TIP3    H234268   0.689   3.591  13.125  0.7317  0.0011 -0.0586
 4285TIP3   OH234269   3.355   2.581  16.935 -0.1912 -0.1572 -0.0943
 4285TIP3    H134270   3.357   2.489  16.909  2.3936  0.1210 -1.2084
 4285TIP3    H234271   3.446   2.604  16.951 -0.5542  2.5826 -1.3131
 4286TIP3   OH234272   2.620   5.293  12.001  0.0464  0.5748  0.0324
 4286TIP3    H134273   2.638   5.358  12.068  1.6054 -2.1829  2.4830
 4286TIP3    H234274   2.525   5.281  12.004  0.1481 -0.1903  2.5909
 4287TIP3   OH234275   5.884   5.736  15.729 -0.1938  0.1384  0.1834
 4287TIP3    H134276   5.853   5.649  15.754 -0.7305  0.0925 -0.6321
 4287TIP3    H234277   5.943   5.761  15.801 -0.3693 -0.7072  0.6406
 4288TIP3   OH234278   2.618   3.602  11.642  0.2441  0.0994 -0.0545
 4288TIP3    H134279   2.640   3.519  11.686  0.9467  1.1859  1.7567
 4288TIP3    H234280   2.533   3.627  11.678  1.0380  1.2341  1.1385
 4289TIP3   OH234281   0.744   2.296  16.462 -0.0007  0.2597 -0.6075
 4289TIP3    H134282   0.686   2.254  16.526  0.2042 -0.3547 -0.8157
 4289TIP3    H234283   0.711   2.265  16.377  0.6904 -0.1749 -0.7231
 4290TIP3   OH234284   6.451   1.404  11.454  0.4304 -0.2871  0.1996
 4290TIP3    H134285   6.490   1.412  11.367  1.5308  0.4657  0.7359
 4290TIP3    H234286   6.357   1.410  11.439  0.5819 -0.6563 -0.9831
 4291TIP3   OH234287   0.795   4.338   0.305  0.4007  0.6434  0.4836
 4291TIP3    H134288   0.812   4.258   0.255  1.6994  0.5526  1.0327
 4291TIP3    H234289   0.800   4.408   0.240 -3.5249  0.1506 -0.5670
 4292TIP3   OH234290   2.602   3.894   3.192 -0.1421  0.2277 -0.2490
 4292TIP3    H134291   2.539   3.855   3.132 -0.3778 -2.4942  1.5966
 4292TIP3    H234292   2.668   3.933   3.135 -1.0981 -0.9551 -2.2599
 4293TIP3   OH234293   0.922   5.688   5.421  0.3053 -0.6711 -0.9834
 4293TIP3    H134294   0.928   5.597   5.452  0.4930 -0.0013  1.0943
 4293TIP3    H234295   0.949   5.740   5.496 -1.5232  1.2008 -1.5400
 4294TIP3   OH234296   6.349   4.529   6.075  0.4970 -0.8238  0.3524
 4294TIP3    H134297   6.265   4.505   6.114  1.1125 -1.1906  1.4898
 4294TIP3    H234298   6.386   4.447   6.045  0.6939 -0.7301  0.3393
 4295TIP3   OH234299   1.576   3.515  14.880  0.4089 -0.3650 -0.2506
 4295TIP3    H134300   1.528   3.472  14.950  1.7661  0.5182  1.2873
 4295TIP3    H234301   1.608   3.443  14.825 -1.6749 -1.0065 -0.6935
 4296TIP3   OH234302   3.791   1.598  14.626  0.3476 -0.0777 -0.7237
 4296TIP3    H134303   3.766   1.529  14.687  1.8684 -0.9459 -1.0202
 4296TIP3    H234304   3.763   1.679  14.668  1.0166 -0.6816  0.9779
 4297TIP3   OH234305   5.546   2.433  17.127 -0.3405  0.3719  0.2924
 4297TIP3    H134306   5.471   2.419  17.185  0.6368 -0.8582  1.2940
 4297TIP3    H234307   5.539   2.363  17.062  0.9066 -0.8837  1.4532
 4298TIP3   OH234308   0.992   0.130   1.322 -0.0234  0.2233  0.2408
 4298TIP3    H134309   0.967   0.115   1.231  1.2105 -0.6751  0.0141
 4298TIP3    H234310   0.935   0.072   1.373  0.1380 -0.2163 -0.0731
 4299TIP3   OH234311   6.292   1.930   4.086  0.0930  0.1780 -0.0498
 4299TIP3    H134312   6.251   2.001   4.037 -0.9912 -0.8362 -0.6588
 4299TIP3    H234313   6.232   1.913   4.158  0.5211  0.0846  0.2917
 4300TIP3   OH234314   4.878   5.625   4.471 -0.4955  0.5140 -0.3241
 4300TIP3    H134315   4.931   5.689   4.423 -0.5397  1.2376  0.5575
 4300TIP3    H234316   4.936   5.593   4.540 -0.6090 -0.0905 -0.5086
 4301TIP3   OH234317   3.398   5.915  16.285 -0.0037 -0.3644  0.0517
 4301TIP3    H134318   3.450   5.895  16.207  1.6586  1.1531  0.7257
 4301TIP3    H234319   3.401   5.834  16.336  1.8031 -0.3031  0.1039
 4302TIP3   OH234320   0.298   1.374  11.517 -0.2194 -0.6967 -0.7952
 4302TIP3    H134321   0.382   1.350  11.478  0.0497  0.4002 -0.9108
 4302TIP3    H234322   0.321   1.416  11.600 -0.6839 -0.9795 -0.5200
 4303TIP3   OH234323   2.395   0.555   2.013  0.4234  1.0114  0.6158
 4303TIP3    H134324   2.331   0.534   1.944  0.9104  1.2194  0.0952
 4303TIP3    H234325   2.371   0.642   2.042  0.7421  1.2752  0.1012
 4304TIP3   OH234326   1.875   2.088  15.873 -0.5886 -0.2150  0.3092
 4304TIP3    H134327   1.785   2.055  15.865 -0.5955 -0.7340  2.1473
 4304TIP3    H234328   1.916   2.065  15.790 -1.0457 -3.5289  0.8875
 4305TIP3   OH234329   1.778   2.205  13.723 -0.1595  0.1176 -0.1054
 4305TIP3    H134330   1.787   2.219  13.817  0.4289  0.4176 -0.2030
 4305TIP3    H234331   1.734   2.121  13.715  0.9514 -0.5276  0.4254
 4306TIP3   OH234332   1.779   1.307   4.551 -0.1655 -0.0442 -0.1419
 4306TIP3    H134333   1.695   1.318   4.506  0.1638  0.7837 -0.5759
 4306TIP3    H234334   1.755   1.292   4.643 -0.8762 -2.4903 -0.6513
 4307TIP3   OH234335   0.891   2.696  15.858 -0.0591 -0.4295 -0.2134
 4307TIP3    H134336   0.806   2.715  15.817  0.2392 -1.6537 -1.5199
 4307TIP3    H234337   0.949   2.681  15.784  2.4095  4.2111  0.4331
 4308TIP3   OH234338   5.387   3.660  14.021  0.2773  0.5771 -0.0268
 4308TIP3    H134339   5.331   3.605  14.076  0.0150 -0.0069 -0.8588
 4308TIP3    H234340   5.474   3.622  14.029  0.2565  0.5501  0.0677
 4309TIP3   OH234341   0.352   2.064  10.778 -0.1316 -0.2494  0.1000
 4309TIP3    H134342   0.278   2.017  10.740 -1.1009  0.9822  0.3844
 4309TIP3    H234343   0.336   2.062  10.872 -0.1284  0.5207  0.1258
 4310TIP3   OH234344   2.936   1.275  11.084  0.7666  0.1943 -0.3820
 4310TIP3    H134345   2.978   1.227  11.155 -0.7540 -2.3554 -1.0988
 4310TIP3    H234346   2.935   1.214  11.011 -1.7620  1.0736 -1.1828
 4311TIP3   OH234347   1.009   3.027   3.908 -0.4804 -0.2301  0.1387
 4311TIP3    H134348   1.077   3.094   3.900 -0.3565 -0.0352  2.2778
 4311TIP3    H234349   0.988   3.024   4.001 -1.7891 -1.9041 -0.1445
 4312TIP3   OH234350   1.337   0.986   4.695  0.1352  0.2721 -0.5155
 4312TIP3    H134351   1.365   1.008   4.606 -0.3149  0.0370 -0.7170
 4312TIP3    H234352   1.242   0.976   4.688  0.3008 -1.7057 -0.4270
 4313TIP3   OH234353   5.575   0.830   3.417  1.0232 -0.0601  0.8202
 4313TIP3    H134354   5.590   0.871   3.502 -1.9218  1.1237  0.9124
 4313TIP3    H234355   5.611   0.892   3.354 -0.6460  1.2974  1.1052
 4314TIP3   OH234356   4.045   3.834  14.086  0.0614  0.4153 -0.2652
 4314TIP3    H134357   4.138   3.842  14.069 -0.0347  2.2732 -0.1052
 4314TIP3    H234358   4.009   3.796  14.006  0.8842  0.1364 -0.5085
 4315TIP3   OH234359   1.311   0.421  16.085 -0.0823 -0.1232  0.3426
 4315TIP3    H134360   1.252   0.494  16.105 -0.9356 -0.9564  0.9776
 4315TIP3    H234361   1.266   0.372  16.016  0.5472  0.0123 -0.1752
 4316TIP3   OH234362   0.839   0.707  13.497 -0.1945  0.8088  0.5607
 4316TIP3    H134363   0.829   0.799  13.521  0.8972  1.2500 -0.5558
 4316TIP3    H234364   0.930   0.687  13.519 -0.8135 -0.4521  2.1521
 4317TIP3   OH234365   3.782   2.383  13.206 -0.7997 -0.5340  0.5697
 4317TIP3    H134366   3.771   2.294  13.171 -1.2341  0.1485 -1.1572
 4317TIP3    H234367   3.695   2.423  13.196 -0.2847  0.4919  0.0843
 4318TIP3   OH234368   4.568   4.229  15.571 -0.2179  0.1537  0.4895
 4318TIP3    H134369   4.645   4.243  15.625 -0.0527 -0.0718  0.3127
 4318TIP3    H234370   4.524   4.153  15.610 -0.1572  0.0582  0.3716
 4319TIP3   OH234371   2.862   1.306   1.927  0.6601  0.3985 -0.2694
 4319TIP3    H134372   2.817   1.356   1.995 -1.1255 -0.8388 -0.4791
 4319TIP3    H234373   2.950   1.293   1.961  0.1018  0.6711  1.3681
 4320TIP3   OH234374   5.381   1.492  13.050  0.5404 -0.4863 -0.0035
 4320TIP3    H134375   5.331   1.511  13.130  0.9170  0.6052 -0.0091
 4320TIP3    H234376   5.435   1.571  13.036  1.3229 -1.1241 -0.6979
 4321TIP3   OH234377   1.602   0.619   5.472 -0.3688  0.3404 -0.2178
 4321TIP3    H134378   1.611   0.693   5.533  0.6398  0.6300 -0.7029
 4321TIP3    H234379   1.667   0.636   5.404  0.8139 -1.6593  0.3195
 4322TIP3   OH234380   0.190   0.909   2.898  0.0886  0.6739  0.3893
 4322TIP3    H134381   0.230   0.995   2.881 -1.5089  1.3923  0.0999
 4322TIP3    H234382   0.238   0.849   2.841  0.4420  1.5895 -0.3155
 4323TIP3   OH234383   1.088   3.558  12.291  0.0278  0.0503  0.1485
 4323TIP3    H134384   1.159   3.541  12.229 -1.8098 -0.9289 -1.8255
 4323TIP3    H234385   1.072   3.474  12.334 -1.5793 -0.4537 -1.3253
 4324TIP3   OH234386   4.692   4.074  16.969  0.3480 -0.2306  0.2495
 4324TIP3    H134387   4.632   4.133  16.924  1.5400  1.2614  0.5325
 4324TIP3    H234388   4.636   4.005  17.004 -0.9392  0.0767 -1.1072
 4325TIP3   OH234389   2.840   0.934   1.138 -0.3094 -0.2848 -0.3766
 4325TIP3    H134390   2.863   0.845   1.163  0.9811 -0.0114 -0.5386
 4325TIP3    H234391   2.887   0.949   1.056  1.8170  1.4872  1.0411
 4326TIP3   OH234392   4.168   2.402  13.591  0.0557  0.2016  0.9050
 4326TIP3    H134393   4.092   2.345  13.583  1.6651 -1.9648 -0.0244
 4326TIP3    H234394   4.208   2.400  13.504  1.3171  1.0862  1.4331
 4327TIP3   OH234395   1.524   1.801  11.524  0.3788 -0.6255  0.1483
 4327TIP3    H134396   1.473   1.825  11.602 -1.4770  1.0880 -1.4897
 4327TIP3    H234397   1.522   1.705  11.523 -3.0026 -0.6726  0.1403
 4328TIP3   OH234398   0.646   2.001   2.491  0.2376 -0.6989 -0.8671
 4328TIP3    H134399   0.600   2.051   2.559 -0.2258 -1.9519 -0.2203
 4328TIP3    H234400   0.593   2.013   2.412  0.5297  0.4074 -0.8985
 4329TIP3   OH234401   2.783   0.861  15.870  0.1076  0.1235 -0.5921
 4329TIP3    H134402   2.752   0.825  15.786  0.4862  1.0858 -1.1579
 4329TIP3    H234403   2.703   0.875  15.921 -0.0483 -1.5701 -0.3202
 4330TIP3   OH234404   2.054   3.175  11.438  0.2931 -0.0672 -0.5943
 4330TIP3    H134405   1.969   3.220  11.437  0.3193  0.0947  1.3136
 4330TIP3    H234406   2.118   3.245  11.451  0.4230 -0.4904  1.2740
 4331TIP3   OH234407   2.719   2.569  11.315 -0.2618  0.9505  0.1661
 4331TIP3    H134408   2.722   2.494  11.254 -0.1238  2.3013 -1.5712
 4331TIP3    H234409   2.675   2.534  11.393 -2.5528 -0.2957 -1.5460
 4332TIP3   OH234410   5.665   5.414  12.623 -0.4062  0.1485 -0.1837
 4332TIP3    H134411   5.653   5.319  12.631 -2.1758  0.3091 -0.5120
 4332TIP3    H234412   5.576   5.449  12.617  0.2400  1.7012 -1.4864
 4333TIP3   OH234413   4.255   6.140  11.791  0.2794  0.4526 -0.0815
 4333TIP3    H134414   4.321   6.183  11.845  1.2007 -0.5152 -0.3944
 4333TIP3    H234415   4.294   6.055  11.769 -0.5911  0.3180 -1.2193
 4334TIP3   OH234416   6.531   4.798  12.630  0.3449  0.1031 -0.3243
 4334TIP3    H134417   6.520   4.704  12.639 -1.4095  0.3642  0.6933
 4334TIP3    H234418   6.621   4.815  12.656  0.3363 -1.1726  0.6030
 4335TIP3   OH234419   6.517   6.700   5.711  0.5782 -0.3705 -0.4842
 4335TIP3    H134420   6.485   6.790   5.706  1.2780 -0.1862 -2.9411
 4335TIP3    H234421   6.589   6.705   5.774 -0.4091  0.4020  0.6501
 4336TIP3   OH234422   3.695   2.351   2.909  0.1927 -0.5084  0.3252
 4336TIP3    H134423   3.667   2.306   2.989  0.4281 -2.3746 -0.5707
 4336TIP3    H234424   3.788   2.369   2.924  0.3646 -1.3152  0.3070
 4337TIP3   OH234425   5.783   2.930  15.119  0.1634 -0.9796 -0.1605
 4337TIP3    H134426   5.840   2.923  15.043  0.8552 -1.6842  0.4154
 4337TIP3    H234427   5.758   2.840  15.139  1.3301 -0.9853  1.4347
 4338TIP3   OH234428   4.821   6.774  15.013 -0.2005 -0.1525 -0.5061
 4338TIP3    H134429   4.811   6.766  15.108 -0.7935  2.6786 -0.2380
 4338TIP3    H234430   4.737   6.748  14.978  0.1538 -1.6316 -0.3432
 4339TIP3   OH234431   0.456   6.529  15.564 -0.0462 -0.0182  0.0116
 4339TIP3    H134432   0.531   6.553  15.620  0.7566  0.5507 -1.2440
 4339TIP3    H234433   0.444   6.436  15.579  0.9162 -0.1191  0.2567
 4340TIP3   OH234434   0.893   4.172  11.338  0.1926  0.2757  0.5332
 4340TIP3    H134435   0.982   4.195  11.311 -0.3558  2.2302  0.2178
 4340TIP3    H234436   0.887   4.078  11.324  1.2191  0.5506 -2.4653
 4341TIP3   OH234437   5.343   5.762  13.144  0.4455 -0.1413  0.1977
 4341TIP3    H134438   5.368   5.812  13.221  1.2475 -0.4745  0.1688
 4341TIP3    H234439   5.424   5.753  13.094  0.2488 -1.1487  0.0273
 4342TIP3   OH234440   2.160   3.887  14.978  0.0425  0.0535 -0.3802
 4342TIP3    H134441   2.139   3.810  14.926  0.8574 -0.1847 -0.3676
 4342TIP3    H234442   2.091   3.950  14.957 -1.4878 -1.1865  0.7371
 4343TIP3   OH234443   2.303   5.361  11.575 -0.5110  0.2945 -0.4079
 4343TIP3    H134444   2.326   5.373  11.667 -2.9451 -0.4650  0.3853
 4343TIP3    H234445   2.310   5.266  11.561 -2.0098  0.1522 -0.3962
 4344TIP3   OH234446   2.211   3.806   2.163  0.1974 -0.5380  0.2052
 4344TIP3    H134447   2.230   3.713   2.156 -1.3341 -0.9867  1.5144
 4344TIP3    H234448   2.223   3.826   2.256  0.8925  0.6803 -0.1211
 4345TIP3   OH234449   4.490   3.139   4.912 -0.2528  0.3299  0.4444
 4345TIP3    H134450   4.575   3.170   4.881 -0.0804 -0.8596 -0.3546
 4345TIP3    H234451   4.498   3.139   5.008 -0.2631  2.6136  0.4987
 4346TIP3   OH234452   1.880   4.186   5.191  0.3552 -0.1649 -0.0304
 4346TIP3    H134453   1.793   4.204   5.227  0.5066 -0.6662  0.6008
 4346TIP3    H234454   1.916   4.120   5.249  1.1726  0.0606 -0.2767
 4347TIP3   OH234455   3.450   4.699  12.477 -0.6924  0.2982 -0.1977
 4347TIP3    H134456   3.497   4.689  12.560 -0.4689  2.1673 -0.0464
 4347TIP3    H234457   3.517   4.729  12.416 -1.2181  0.7242 -0.5757
 4348TIP3   OH234458   2.666   0.058  16.253  0.3796  0.1278 -0.2770
 4348TIP3    H134459   2.699   0.055  16.343 -0.3336 -1.7568 -0.0263
 4348TIP3    H234460   2.729   0.007  16.203 -0.3917 -0.7331 -0.3987
 4349TIP3   OH234461   1.750   5.910   5.649 -0.3760  0.2338 -0.4811
 4349TIP3    H134462   1.805   5.875   5.720  0.8919 -1.3926 -2.1735
 4349TIP3    H234463   1.786   5.997   5.632 -1.3304  1.0840  1.4518
 4350TIP3   OH234464   3.361   4.820   3.526  0.2153  0.0305  0.3354
 4350TIP3    H134465   3.442   4.870   3.537 -0.1797  0.6053  0.6908
 4350TIP3    H234466   3.292   4.884   3.537 -0.3142  0.0673 -2.5110
 4351TIP3   OH234467   4.647   1.645  11.995 -0.3854  0.4340 -0.1471
 4351TIP3    H134468   4.610   1.688  11.918 -0.1475  0.5573 -0.1929
 4351TIP3    H234469   4.663   1.716  12.057 -1.6727  0.2099  0.4761
 4352TIP3   OH234470   0.230   5.994   2.413  0.1985  0.0008 -0.2818
 4352TIP3    H134471   0.241   5.904   2.446  1.4015 -0.1049 -0.9177
 4352TIP3    H234472   0.135   6.010   2.417 -0.1327 -1.6185 -0.9961
 4353TIP3   OH234473   2.812   3.243  14.185  0.2734  0.2458  0.1332
 4353TIP3    H134474   2.830   3.150  14.200  2.7843  0.0531 -2.9715
 4353TIP3    H234475   2.725   3.244  14.144  0.3456 -0.7913 -0.0714
 4354TIP3   OH234476   4.798   2.157  14.429 -0.0476 -0.0188 -0.0748
 4354TIP3    H134477   4.742   2.177  14.503  0.1555 -1.9127  0.6368
 4354TIP3    H234478   4.866   2.225  14.432  0.7179 -0.7774  2.3133
 4355TIP3   OH234479   1.331   4.387   4.063 -0.1022  0.1771  0.5497
 4355TIP3    H134480   1.273   4.456   4.030  0.4562  0.2797 -0.2506
 4355TIP3    H234481   1.329   4.319   3.996 -0.3546 -0.4315  1.1617
 4356TIP3   OH234482   1.080   5.211   1.229 -0.1806 -0.1380 -0.0647
 4356TIP3    H134483   1.010   5.249   1.174  1.6682  1.1334 -1.6874
 4356TIP3    H234484   1.040   5.134   1.269 -2.7009  0.8931 -0.3969
 4357TIP3   OH234485   0.847   5.937   5.350 -0.0618 -0.1135  0.3596
 4357TIP3    H134486   0.769   5.924   5.404 -0.5776 -0.7528 -0.5140
 4357TIP3    H234487   0.892   5.853   5.353  0.2209  0.0335  0.2659
 4358TIP3   OH234488   0.857   2.748   5.449 -0.1131 -0.4314  0.7543
 4358TIP3    H134489   0.793   2.767   5.517 -2.1703 -2.1700 -0.5798
 4358TIP3    H234490   0.933   2.714   5.496 -1.2396 -0.9961  2.2380
 4359TIP3   OH234491   1.353   3.610  14.649 -0.5233  0.2043 -0.4596
 4359TIP3    H134492   1.263   3.592  14.674 -0.3602  1.1245  0.8792
 4359TIP3    H234493   1.394   3.646  14.728  1.3652 -1.3053 -0.6791
 4360TIP3   OH234494   3.312   5.821   1.429 -0.1575  0.3341  0.3745
 4360TIP3    H134495   3.338   5.809   1.520 -0.2386  0.5842  0.4323
 4360TIP3    H234496   3.370   5.891   1.397 -2.6432  3.0470  1.3515
 4361TIP3   OH234497   2.131   5.266  10.925  0.6195 -0.1172 -1.2208
 4361TIP3    H134498   2.197   5.197  10.930 -0.6280 -1.3503 -0.8513
 4361TIP3    H234499   2.052   5.220  10.895 -0.0081  1.3447 -1.8888
 4362TIP3   OH234500   5.777   1.730   5.773  1.0860 -0.7654 -0.3402
 4362TIP3    H134501   5.839   1.750   5.843  2.5517  0.7234 -1.9772
 4362TIP3    H234502   5.693   1.720   5.818  2.0883 -0.5141  1.6856
 4363TIP3   OH234503   0.310   1.147   0.389 -0.1282  0.3614 -0.4240
 4363TIP3    H134504   0.309   1.081   0.459 -0.4189  1.1194  0.3106
 4363TIP3    H234505   0.402   1.153   0.364  0.4147  1.8167  1.6315
 4364TIP3   OH234506   0.629   0.332   0.909  0.2091  0.1627 -0.6083
 4364TIP3    H134507   0.639   0.417   0.954 -0.6584  0.1795 -0.4291
 4364TIP3    H234508   0.584   0.353   0.828  0.6900 -0.0332 -0.9303
 4365TIP3   OH234509   6.215   0.397  15.279 -0.4468  0.0350 -0.4331
 4365TIP3    H134510   6.153   0.357  15.218 -0.1309 -2.3843  0.7490
 4365TIP3    H234511   6.299   0.355  15.261  0.2843  1.2906 -0.1569
 4366TIP3   OH234512   2.478   4.279   0.021 -0.6667 -0.1444 -0.3452
 4366TIP3    H134513   2.486   4.364   0.065 -0.2365 -0.7910  0.8812
 4366TIP3    H234514   2.392   4.247   0.046 -1.2704  0.3795 -1.6777
 4367TIP3   OH234515   6.134   4.910  16.807 -0.0986  0.2866 -0.6002
 4367TIP3    H134516   6.098   4.822  16.815 -1.0853  0.8385  2.2687
 4367TIP3    H234517   6.059   4.964  16.782  0.0546  0.6106 -0.3611
 4368TIP3   OH234518   6.571   4.667   4.594  0.2784 -0.4297 -0.3319
 4368TIP3    H134519   6.569   4.615   4.674 -1.9497 -1.0146 -0.6969
 4368TIP3    H234520   6.537   4.752   4.619 -0.8265 -0.7416 -0.6856
 4369TIP3   OH234521   5.020   4.754   4.366  0.3807  0.3827  0.1809
 4369TIP3    H134522   4.996   4.685   4.428  2.2190  0.8826  1.5192
 4369TIP3    H234523   5.101   4.724   4.326 -0.2785  0.5164 -1.3090
 4370TIP3   OH234524   3.187   2.674   3.197  0.1417  0.2455 -0.0352
 4370TIP3    H134525   3.190   2.764   3.227 -1.4365  0.3242 -0.0294
 4370TIP3    H234526   3.253   2.669   3.127 -0.0549  1.5025 -0.3235
 4371TIP3   OH234527   4.382   0.318  12.438  0.0173 -0.3352  0.5567
 4371TIP3    H134528   4.424   0.401  12.464 -0.9872  1.0049 -1.7562
 4371TIP3    H234529   4.442   0.281  12.373 -1.1665  0.4460 -1.0604
 4372TIP3   OH234530   4.087   6.304  11.091  0.4390 -0.0896  0.0174
 4372TIP3    H134531   4.176   6.337  11.077  0.5386 -0.7807 -1.1333
 4372TIP3    H234532   4.053   6.292  11.002 -0.8079  0.1634  0.4501
 4373TIP3   OH234533   4.336   3.062  14.205  0.0811  0.4768  0.4198
 4373TIP3    H134534   4.383   3.125  14.258  1.2551 -1.6730  2.0735
 4373TIP3    H234535   4.404   3.010  14.162 -0.7588 -1.3485  1.2065
 4374TIP3   OH234536   2.647   0.378  13.366 -0.3468  0.0204  0.0653
 4374TIP3    H134537   2.717   0.319  13.395  0.3027  0.3362 -0.8266
 4374TIP3    H234538   2.650   0.450  13.430 -2.1864 -1.5837  2.1216
 4375TIP3   OH234539   2.821   4.275   3.864 -0.0630 -0.1096 -0.0304
 4375TIP3    H134540   2.870   4.291   3.944 -0.1161 -1.8125  0.3725
 4375TIP3    H234541   2.888   4.268   3.796 -0.0457  1.8952 -0.2925
 4376TIP3   OH234542   1.352   2.676   0.092  0.3593 -0.2866 -0.0543
 4376TIP3    H134543   1.323   2.765   0.113  0.7859 -0.0400 -0.4987
 4376TIP3    H234544   1.398   2.647   0.171 -0.7754 -0.5596  0.5369
 4377TIP3   OH234545   3.230   3.478   4.031  0.2130  0.2238  0.3170
 4377TIP3    H134546   3.167   3.549   4.018  1.1748  0.9586 -0.3768
 4377TIP3    H234547   3.198   3.432   4.110 -0.3495  1.4853  0.8465
 4378TIP3   OH234548   5.414   3.725  17.236  0.3104 -0.4463 -0.3202
 4378TIP3    H134549   5.351   3.797  17.237 -0.5064 -1.1075 -1.4179
 4378TIP3    H234550   5.483   3.755  17.178  1.0004  0.2475  0.8206
 4379TIP3   OH234551   3.798   0.511   1.337 -0.2544  0.3948 -0.2474
 4379TIP3    H134552   3.839   0.592   1.306  0.1664  0.6698  0.9649
 4379TIP3    H234553   3.708   0.515   1.305  0.1944  0.5563 -1.5682
 4380TIP3   OH234554   2.332   1.107   3.357  0.2150 -0.1508 -0.6343
 4380TIP3    H134555   2.384   1.158   3.418 -0.7440  1.2499 -0.9522
 4380TIP3    H234556   2.318   1.165   3.282 -1.5871 -0.5636 -0.6632
 4381TIP3   OH234557   0.417   0.310  11.983  0.2555 -0.0894  0.1111
 4381TIP3    H134558   0.383   0.298  12.071  0.7688 -0.7856  0.2245
 4381TIP3    H234559   0.373   0.389  11.950 -0.4729 -0.2333  0.7177
 4382TIP3   OH234560   2.584   5.421   0.270  0.1671  0.3178  0.1843
 4382TIP3    H134561   2.568   5.367   0.193 -1.0993  1.6542 -0.5482
 4382TIP3    H234562   2.638   5.493   0.237  0.4261  0.3960  0.7689
 4383TIP3   OH234563   0.748   3.457   4.256  0.4312  0.0007  0.0666
 4383TIP3    H134564   0.811   3.512   4.210 -1.1298  1.5567 -0.3128
 4383TIP3    H234565   0.687   3.428   4.188 -1.2071  1.3438  0.8724
 4384TIP3   OH234566   3.992   5.097  12.379  0.5235  0.6847 -0.1227
 4384TIP3    H134567   4.076   5.144  12.371  0.1725  1.3132 -0.1650
 4384TIP3    H234568   3.928   5.165  12.397 -0.1724  0.3505 -1.2278
 4385TIP3   OH234569   1.262   6.231  16.693  0.2007 -0.1273 -0.1362
 4385TIP3    H134570   1.267   6.169  16.766 -0.6856 -1.4221 -1.1280
 4385TIP3    H234571   1.350   6.268  16.688  0.2929 -0.0298  1.5532
 4386TIP3   OH234572   3.902   1.588  15.585 -0.0257 -0.0628 -0.2371
 4386TIP3    H134573   3.835   1.576  15.518  0.8149 -1.9734 -0.7723
 4386TIP3    H234574   3.975   1.630  15.540  0.5985 -1.4842 -0.6064
 4387TIP3   OH234575   5.079   1.264  12.521  0.3605  0.3763 -0.0747
 4387TIP3    H134576   5.170   1.261  12.552 -0.0076 -1.8299  0.9987
 4387TIP3    H234577   5.059   1.173  12.496 -1.7204  0.6994  0.2314
 4388TIP3   OH234578   2.864   2.197  12.100  0.2800 -0.2486  0.3782
 4388TIP3    H134579   2.953   2.166  12.085  0.5616 -0.3041  1.9896
 4388TIP3    H234580   2.873   2.292  12.111  0.3921 -0.4202  2.0345
 4389TIP3   OH234581   0.041   2.701  16.872  0.7350 -0.4952  0.2153
 4389TIP3    H134582   0.094   2.774  16.905  1.3505 -0.8083 -0.0734
 4389TIP3    H234583  -0.049   2.731  16.881  0.9904  0.4172 -0.1609
 4390TIP3   OH234584   2.188   6.447   2.591 -0.0609 -0.1717 -0.8181
 4390TIP3    H134585   2.168   6.502   2.667  1.5805  0.5230 -0.8487
 4390TIP3    H234586   2.113   6.388   2.584 -0.4562  0.0258  1.0844
 4391TIP3   OH234587   5.295   2.161   1.015 -0.2308  0.1566 -0.3942
 4391TIP3    H134588   5.288   2.232   0.952 -0.8346 -1.2881 -2.0369
 4391TIP3    H234589   5.207   2.122   1.017  0.4932 -1.6164 -0.9119
 4392TIP3   OH234590   1.114   4.133   2.061 -0.1750 -0.6395 -0.0559
 4392TIP3    H134591   1.187   4.167   2.113  1.7940 -1.1843 -2.2849
 4392TIP3    H234592   1.155   4.081   1.992 -2.7638 -2.1033 -0.6564
 4393TIP3   OH234593   3.118   5.165   1.453 -0.3839 -0.2481  1.1975
 4393TIP3    H134594   3.200   5.186   1.497 -1.2010 -0.2459  2.7794
 4393TIP3    H234595   3.119   5.070   1.443  0.9544 -0.0604 -1.2039
 4394TIP3   OH234596   1.574   2.536   1.430 -0.2329 -0.2158 -0.4998
 4394TIP3    H134597   1.636   2.607   1.414  1.4985 -1.5485  0.0411
 4394TIP3    H234598   1.499   2.557   1.374  1.0448  0.9890 -1.8591
 4395TIP3   OH234599   0.529   4.186  11.882  0.3748 -0.4834  0.3547
 4395TIP3    H134600   0.608   4.218  11.838  0.0768 -1.0125 -0.5822
 4395TIP3    H234601   0.509   4.254  11.947  1.7348 -0.4687  0.7774
 4396TIP3   OH234602   6.705   6.233  16.166 -0.1461  0.0790 -0.8939
 4396TIP3    H134603   6.673   6.148  16.197  1.2957  0.6035  2.5492
 4396TIP3    H234604   6.631   6.292  16.181  0.2051  0.1340  0.8235
 4397TIP3   OH234605   0.560   2.027  14.279 -0.1106 -0.4747  0.3042
 4397TIP3    H134606   0.631   2.056  14.336  0.0016 -0.1731  0.0106
 4397TIP3    H234607   0.524   2.107  14.241 -0.2100 -0.6702 -0.0213
 4398TIP3   OH234608   6.079   1.453  16.682  0.0490 -0.6828 -0.5928
 4398TIP3    H134609   6.156   1.498  16.648  1.1344 -1.3214  0.9169
 4398TIP3    H234610   6.092   1.362  16.658  0.5095 -1.0324  0.8804
 4399TIP3   OH234611   4.638   5.518  11.735 -0.2098 -0.1133  0.7271
 4399TIP3    H134612   4.548   5.536  11.764 -0.3011 -1.7114  1.5409
 4399TIP3    H234613   4.631   5.510  11.640 -1.3093 -1.9218  0.9066
 4400TIP3   OH234614   2.133   2.508   3.782 -0.4686  0.4990  0.5525
 4400TIP3    H134615   2.042   2.538   3.787 -1.2388 -1.7478  1.1330
 4400TIP3    H234616   2.141   2.444   3.852  1.3189 -0.0077 -0.0670
 4401TIP3   OH234617   1.379   0.475  15.060  0.2134 -0.1238  0.0089
 4401TIP3    H134618   1.465   0.471  15.017 -0.6182 -1.4283 -1.6328
 4401TIP3    H234619   1.386   0.413  15.132 -0.3478 -2.9863 -2.2089
 4402TIP3   OH234620   2.008   2.876  11.038 -0.0015 -0.3650 -0.2453
 4402TIP3    H134621   2.048   2.878  10.952  1.6872 -1.1647  0.4733
 4402TIP3    H234622   1.978   2.785  11.049  1.2833 -0.7185  0.6115
 4403TIP3   OH234623   0.543   0.964  12.037 -0.4548  0.4680 -0.2209
 4403TIP3    H134624   0.451   0.954  12.061 -0.2887  1.4992  0.9242
 4403TIP3    H234625   0.579   0.875  12.043 -0.5207  0.5350  3.1905
 4404TIP3   OH234626   1.355   4.626  11.122 -0.1155  0.1813 -0.3047
 4404TIP3    H134627   1.281   4.686  11.127 -0.6781 -0.5892  1.5336
 4404TIP3    H234628   1.315   4.539  11.123  0.7888 -0.2499  0.7889
 4405TIP3   OH234629   0.303   0.028   4.230  0.0924  0.5514  0.3713
 4405TIP3    H134630   0.231   0.032   4.167  0.6664  0.4399 -0.3045
 4405TIP3    H234631   0.354  -0.049   4.204  2.1625  2.2599 -1.0677
 4406TIP3   OH234632   1.706   5.254   5.270  0.2414  0.3193 -0.2299
 4406TIP3    H134633   1.718   5.170   5.314  2.7196  0.9986  0.5334
 4406TIP3    H234634   1.731   5.236   5.179 -0.7984 -0.1181 -0.4393
 4407TIP3   OH234635   3.922   6.055   0.834 -0.2292 -0.5384 -0.3212
 4407TIP3    H134636   3.901   6.040   0.742  1.9855  1.5663 -1.2745
 4407TIP3    H234637   4.007   6.012   0.846 -0.7752 -1.3292  0.9708
 4408TIP3   OH234638   5.449   2.254  15.411 -0.4552 -0.0664  0.1944
 4408TIP3    H134639   5.356   2.254  15.388  0.0610 -1.3661 -2.1781
 4408TIP3    H234640   5.465   2.166  15.445  0.1012 -0.1861 -0.3607
 4409TIP3   OH234641   2.887   6.086   1.560 -0.5457 -0.0759 -0.2513
 4409TIP3    H134642   2.916   6.045   1.479  4.0021  2.9134 -0.5176
 4409TIP3    H234643   2.917   6.026   1.629 -1.0834 -0.8822 -0.7090
 4410TIP3   OH234644   2.118   2.011   0.886  0.4495  0.4181  0.1351
 4410TIP3    H134645   2.033   1.993   0.927  1.4367 -0.1703  2.0273
 4410TIP3    H234646   2.175   2.036   0.958  2.4433 -1.2500 -0.7589
 4411TIP3   OH234647   0.609   1.562   4.884 -0.0700 -0.0589  0.1041
 4411TIP3    H134648   0.557   1.610   4.820 -0.0525 -2.4272 -1.8280
 4411TIP3    H234649   0.546   1.510   4.933  0.2169 -1.0173 -0.5174
 4412TIP3   OH234650   4.545   1.184   2.547  0.0420 -0.2911 -0.1942
 4412TIP3    H134651   4.573   1.271   2.519 -0.5582  0.4557  1.4260
 4412TIP3    H234652   4.465   1.167   2.496 -0.8387  0.8955  0.7341
 4413TIP3   OH234653   5.784   4.083   2.250  1.0758 -0.4539  0.3233
 4413TIP3    H134654   5.859   4.051   2.201  1.9526  0.1729  1.2079
 4413TIP3    H234655   5.761   4.010   2.309 -1.3300 -2.0648 -2.3294
 4414TIP3   OH234656   0.508   6.133  13.707  0.0068 -0.0956 -0.6959
 4414TIP3    H134657   0.462   6.160  13.628  0.3094  3.2934  0.1180
 4414TIP3    H234658   0.522   6.215  13.756  1.3353 -1.8043  2.0553
 4415TIP3   OH234659   4.064   1.719   2.872 -0.7240  0.1258 -0.4727
 4415TIP3    H134660   3.993   1.716   2.807 -1.5873 -0.6466  0.4672
 4415TIP3    H234661   4.028   1.673   2.948 -0.5028  2.7425  1.3171
 4416TIP3   OH234662   4.477   5.654  11.353 -0.0241  0.7130  0.6531
 4416TIP3    H134663   4.498   5.658  11.446  0.8591 -0.0624  0.4969
 4416TIP3    H234664   4.558   5.625  11.311 -0.8315 -0.4105 -0.1876
 4417TIP3   OH234665   1.269   0.243   5.006  0.3246  0.5826 -0.3820
 4417TIP3    H134666   1.206   0.307   4.973 -1.3588 -1.0618 -0.5072
 4417TIP3    H234667   1.287   0.185   4.932 -0.7433 -1.0260  0.5571
 4418TIP3   OH234668   3.216   2.391  15.427 -0.0406  0.0238 -0.3686
 4418TIP3    H134669   3.286   2.426  15.482  0.4945 -0.4498 -0.7332
 4418TIP3    H234670   3.179   2.468  15.383  0.5063  0.2370 -0.4596
 4419TIP3   OH234671   0.034   3.497   3.480 -0.2520 -0.1080  0.3428
 4419TIP3    H134672   0.044   3.588   3.507  2.4502 -0.7678  1.9857
 4419TIP3    H234673   0.124   3.465   3.469 -1.1277 -2.0394 -2.3060
 4420TIP3   OH234674   4.836   1.776  13.710 -0.1705 -0.2665 -0.9056
 4420TIP3    H134675   4.928   1.765  13.731 -0.1083 -0.6412 -1.3766
 4420TIP3    H234676   4.809   1.693  13.672 -0.5703  0.0160 -1.2572
 4421TIP3   OH234677   2.962   3.904   2.347  0.3313 -0.0299 -0.2957
 4421TIP3    H134678   3.045   3.937   2.381  0.3612 -1.6228  1.3030
 4421TIP3    H234679   2.987   3.835   2.284  0.2148  0.4303 -0.8591
 4422TIP3   OH234680   4.971   6.421  13.536  1.1643  0.5070 -0.6453
 4422TIP3    H134681   4.977   6.330  13.507  0.2120  0.3052 -0.2412
 4422TIP3    H234682   4.881   6.431  13.566  1.5004  1.3329  0.1463
 4423TIP3   OH234683   6.653   3.737   0.987  0.4985  0.3726 -0.3846
 4423TIP3    H134684   6.607   3.706   0.909  1.3909 -1.1994 -0.3324
 4423TIP3    H234685   6.585   3.776   1.042 -0.6744 -1.2869 -0.5852
 4424TIP3   OH234686   6.182   3.285   1.279 -0.0213  0.6909  0.0457
 4424TIP3    H134687   6.134   3.217   1.233 -0.3529  0.3802  0.8343
 4424TIP3    H234688   6.173   3.363   1.223  1.3421 -0.1603 -1.4542
 4425TIP3   OH234689   4.971   1.455   2.698 -0.6110  0.2153 -0.1346
 4425TIP3    H134690   4.909   1.383   2.688  0.6588 -0.9836  0.4146
 4425TIP3    H234691   5.028   1.449   2.621 -1.2908  1.4886 -0.7865
 4426TIP3   OH234692   0.778   3.504   3.089  0.4511  0.5490  0.0209
 4426TIP3    H134693   0.798   3.570   3.155 -1.0986 -0.2159  1.3223
 4426TIP3    H234694   0.697   3.533   3.049 -0.0911 -0.3752  0.4020
 4427TIP3   OH234695   3.947   2.089  15.438 -0.0738 -0.6301 -0.2998
 4427TIP3    H134696   3.999   2.048  15.506 -2.2247 -0.2128  1.7105
 4427TIP3    H234697   3.891   2.019  15.404 -0.7572 -0.3197  0.1530
 4428TIP3   OH234698   1.834   3.556  14.331  0.5142  0.2582  0.1391
 4428TIP3    H134699   1.834   3.591  14.420 -0.4753 -1.4574  0.8386
 4428TIP3    H234700   1.816   3.633  14.276  1.9748  1.5095  1.2891
 4429TIP3   OH234701   4.818   1.711   4.510 -0.4608 -0.5470  0.2423
 4429TIP3    H134702   4.868   1.646   4.460 -0.0934 -0.4876  0.5341
 4429TIP3    H234703   4.727   1.695   4.484 -0.3651 -1.1266  0.2479
 4430TIP3   OH234704   0.614   2.030   4.063  0.4578 -0.1299 -0.0241
 4430TIP3    H134705   0.651   2.008   4.148  1.8102  1.7085 -0.0517
 4430TIP3    H234706   0.586   2.121   4.072  0.7267  0.1352 -1.5608
 4431TIP3   OH234707   6.422   4.668   4.093 -0.0711 -0.4107  0.6585
 4431TIP3    H134708   6.505   4.621   4.085  0.3279 -0.0329  2.2110
 4431TIP3    H234709   6.358   4.611   4.051  0.5765 -1.8848  1.5656
 4432TIP3   OH234710   6.054   0.402   5.514  0.2820  0.5966 -0.2929
 4432TIP3    H134711   6.005   0.381   5.593 -1.1674  0.5539 -1.1585
 4432TIP3    H234712   6.090   0.318   5.485  0.2141  0.4918 -0.0757
 4433TIP3   OH234713   6.038   3.900  12.713  0.4700 -0.0074  0.6705
 4433TIP3    H134714   5.961   3.844  12.716 -1.2916  2.1808 -0.5310
 4433TIP3    H234715   6.088   3.876  12.791 -1.2547 -1.7208  1.3349
 4434TIP3   OH234716   4.971   3.527  12.909  0.0489  0.5086  0.3811
 4434TIP3    H134717   5.026   3.511  12.985 -0.9409 -1.0673  0.8251
 4434TIP3    H234718   4.992   3.455  12.849 -1.3061  0.0154  0.4599
 4435TIP3   OH234719   1.801   5.369   6.020  0.1728 -0.1632  0.3836
 4435TIP3    H134720   1.788   5.455   5.982  1.1384 -0.0124  0.3685
 4435TIP3    H234721   1.746   5.368   6.099 -0.6440  0.0736 -0.1663
 4436TIP3   OH234722   3.248   0.041  11.153  0.1413 -0.4695 -1.0286
 4436TIP3    H134723   3.340   0.045  11.180 -0.0519  0.2154 -0.4487
 4436TIP3    H234724   3.246   0.085  11.068  0.2661 -0.0303 -0.8055
 4437TIP3   OH234725   1.989   5.463  13.277 -0.0607 -0.0369 -0.2101
 4437TIP3    H134726   1.902   5.503  13.278 -0.3295 -0.5900 -0.9362
 4437TIP3    H234727   2.009   5.447  13.369 -0.9412 -0.3708 -0.0730
 4438TIP3   OH234728   4.461   2.363  13.622  0.0998 -0.1561 -0.4867
 4438TIP3    H134729   4.371   2.380  13.652 -0.5048 -0.5507 -1.9488
 4438TIP3    H234730   4.511   2.349  13.702 -1.3034 -0.6315  0.3503
 4439TIP3   OH234731   6.518   0.112   6.206 -0.2741 -0.0298  0.5318
 4439TIP3    H134732   6.539   0.028   6.246 -1.3133 -0.7830 -0.4343
 4439TIP3    H234733   6.436   0.139   6.248 -1.6202 -1.0440 -1.2892
 4440TIP3   OH234734   4.159   3.417   5.333 -0.2914  0.0544 -0.0151
 4440TIP3    H134735   4.130   3.490   5.278 -0.1821  0.4481  0.4430
 4440TIP3    H234736   4.251   3.435   5.350  0.7047 -1.9282 -2.6408
 4441TIP3   OH234737   6.077   5.925   2.931 -0.6822 -0.1181  0.1883
 4441TIP3    H134738   6.139   5.852   2.932 -1.8743 -1.2057 -1.0633
 4441TIP3    H234739   6.132   6.004   2.930  0.6484 -1.0181  0.3450
 4442TIP3   OH234740   1.347   3.759  13.624  0.6349 -0.2843  0.1089
 4442TIP3    H134741   1.281   3.703  13.666 -1.4468  3.3418  2.2569
 4442TIP3    H234742   1.317   3.768  13.534 -0.0546 -1.1367  0.2402
 4443TIP3   OH234743   1.416   6.491  10.942  0.2751  0.1485 -0.3530
 4443TIP3    H134744   1.415   6.411  10.995 -1.3626 -1.9992 -3.3640
 4443TIP3    H234745   1.496   6.484  10.889  0.4627  0.8751 -0.1848
 4444TIP3   OH234746   1.478   6.450   2.488  0.2178  0.0353 -0.2503
 4444TIP3    H134747   1.535   6.508   2.437  0.1010  1.2638  0.9575
 4444TIP3    H234748   1.471   6.493   2.573 -1.4890 -0.7615  0.0362
 4445TIP3   OH234749   1.216   0.215  14.606 -0.4183 -0.2580  0.1485
 4445TIP3    H134750   1.140   0.165  14.637 -0.3262 -2.1159 -2.3477
 4445TIP3    H234751   1.285   0.194  14.670 -0.7466 -2.3967 -0.1094
 4446TIP3   OH234752   1.204   0.038   3.410 -0.2397 -0.1694  0.2098
 4446TIP3    H134753   1.228   0.121   3.452 -0.7178  0.5235 -0.8284
 4446TIP3    H234754   1.179   0.064   3.321 -0.9022 -1.3748  0.0367
 4447TIP3   OH234755   4.652   3.162  16.213  0.2543 -0.4956  0.4443
 4447TIP3    H134756   4.739   3.158  16.172  0.5604 -0.8365  1.1049
 4447TIP3    H234757   4.623   3.252  16.198  1.4699  0.1448  1.6977
 4448TIP3   OH234758   6.485   4.718   1.291 -0.2012  0.1239 -0.2561
 4448TIP3    H134759   6.516   4.667   1.366  0.0717  1.1481  0.3474
 4448TIP3    H234760   6.556   4.714   1.228 -0.4053 -0.6899 -0.4435
 4449TIP3   OH234761   4.243   2.718  13.504 -0.8792 -0.0629  0.0711
 4449TIP3    H134762   4.192   2.727  13.585  0.3104 -1.2287  0.9971
 4449TIP3    H234763   4.188   2.756  13.436 -1.7436  1.3257  1.4903
 4450TIP3   OH234764   4.760   2.719   1.537  0.2641 -0.2605  0.2996
 4450TIP3    H134765   4.848   2.757   1.543 -0.1401  0.6219  0.9310
 4450TIP3    H234766   4.702   2.795   1.531 -0.4241 -0.8462 -0.6979
 4451TIP3   OH234767   5.737   4.692   6.163 -0.0330  0.2455  0.3551
 4451TIP3    H134768   5.735   4.603   6.197 -1.1975  0.2645  0.3632
 4451TIP3    H234769   5.809   4.734   6.211 -0.0588 -0.4260  1.0023
 4452TIP3   OH234770   2.167   5.269  17.122 -0.3461  0.2845  0.1674
 4452TIP3    H134771   2.258   5.250  17.146  0.2808  0.8628 -1.5657
 4452TIP3    H234772   2.135   5.326  17.191  0.7035  0.2810  0.6727
 4453TIP3   OH234773   0.719   6.314   2.072 -0.2216  0.3131 -0.0313
 4453TIP3    H134774   0.797   6.358   2.105  1.0240  0.0009 -2.3647
 4453TIP3    H234775   0.743   6.222   2.065 -1.1083  0.0636  0.0793
 4454TIP3   OH234776   1.766   3.439   2.230 -0.5693  0.0395  0.9100
 4454TIP3    H134777   1.721   3.492   2.296 -2.0784 -2.1333  1.7648
 4454TIP3    H234778   1.703   3.431   2.158 -0.0754  0.0285  0.4764
 4455TIP3   OH234779   6.465   1.206   0.668  0.4302 -0.3605 -0.3569
 4455TIP3    H134780   6.385   1.157   0.687 -0.0878 -0.1113 -1.8075
 4455TIP3    H234781   6.463   1.221   0.574  0.2243  3.0570  0.0921
 4456TIP3   OH234782   0.272   3.875  16.627  0.0254 -0.1692  0.0972
 4456TIP3    H134783   0.185   3.897  16.593 -0.0663 -0.7329 -0.0328
 4456TIP3    H234784   0.256   3.844  16.716 -0.0010 -1.0827 -0.2182
 4457TIP3   OH234785   0.828   3.832   3.052  0.3888  0.2691 -0.4827
 4457TIP3    H134786   0.878   3.826   2.970  0.9273  0.0747 -0.1399
 4457TIP3    H234787   0.876   3.895   3.105  0.8479 -0.6753  0.2507
 4458TIP3   OH234788   2.083   0.601  11.792 -0.8348  0.4615  0.0191
 4458TIP3    H134789   2.157   0.541  11.791 -0.9560  0.2519  1.2579
 4458TIP3    H234790   2.039   0.583  11.875 -2.1337  0.7561 -0.5816
 4459TIP3   OH234791   4.726   5.861  13.849  0.6978 -0.1133 -0.2739
 4459TIP3    H134792   4.665   5.799  13.809  1.0000  0.4944 -1.7533
 4459TIP3    H234793   4.674   5.940  13.862  1.1798  0.4676 -1.7124
 4460TIP3   OH234794   0.108   5.807  14.911  0.6101 -0.0797  0.5420
 4460TIP3    H134795   0.032   5.865  14.912  0.9733  0.4774 -1.3091
 4460TIP3    H234796   0.150   5.823  14.996 -1.4398 -0.6051  1.7246
 4461TIP3   OH234797   3.582   4.174   3.402  0.6316 -0.4070  0.5878
 4461TIP3    H134798   3.539   4.088   3.397  0.7050 -0.3895 -1.3666
 4461TIP3    H234799   3.665   4.161   3.355  0.4635  0.8212 -0.0887
 4462TIP3   OH234800   1.662   4.806   2.100 -0.2368 -0.9825 -0.0461
 4462TIP3    H134801   1.754   4.813   2.074  0.3109 -2.0631  1.4168
 4462TIP3    H234802   1.664   4.749   2.177 -1.9872  0.0939  0.8600
 4463TIP3   OH234803   4.735   6.527  14.489 -0.5324  0.3020  0.1886
 4463TIP3    H134804   4.647   6.490  14.501 -0.0182 -0.5163  1.7013
 4463TIP3    H234805   4.794   6.452  14.497  0.3448  0.8750 -0.5723
 4464TIP3   OH234806   3.719   3.688   2.395 -0.2268  0.3943  0.2171
 4464TIP3    H134807   3.710   3.755   2.327 -2.2885  0.2817  0.3124
 4464TIP3    H234808   3.767   3.617   2.352 -2.3183 -0.0820 -1.4959
 4465TIP3   OH234809   6.006   4.367  16.852  0.1445 -0.4887  0.1647
 4465TIP3    H134810   6.009   4.336  16.761 -0.0965  1.4491 -0.5651
 4465TIP3    H234811   6.055   4.449  16.850 -0.1949 -0.2275  1.7232
 4466TIP3   OH234812   0.016   6.394  11.678  0.2031  0.1782 -0.1339
 4466TIP3    H134813   0.043   6.426  11.764  2.1371 -0.4556 -0.4604
 4466TIP3    H234814  -0.012   6.472  11.631  1.7358  0.9417  0.1673
 4467TIP3   OH234815   2.422   2.201  12.616  0.1419 -0.0353 -0.4677
 4467TIP3    H134816   2.355   2.178  12.551  0.9036 -2.7342 -0.4178
 4467TIP3    H234817   2.503   2.210  12.565  0.6537 -1.7296 -0.0318
 4468TIP3   OH234818   1.649   2.498  14.053  0.0080  0.0662 -0.1828
 4468TIP3    H134819   1.598   2.527  14.128 -0.1821 -1.5612  0.3570
 4468TIP3    H234820   1.635   2.565  13.987 -1.2732  0.6248  0.6248
 4469TIP3   OH234821   3.366   0.803  13.511 -0.0903  0.0677  0.0699
 4469TIP3    H134822   3.319   0.722  13.530  0.2332  0.2668  1.9116
 4469TIP3    H234823   3.299   0.862  13.476 -0.5901 -0.5735 -0.0745
 4470TIP3   OH234824   0.222   0.890  11.538 -0.3028  0.5603 -0.4612
 4470TIP3    H134825   0.127   0.904  11.536 -0.2231  1.3886  0.9446
 4470TIP3    H234826   0.258   0.967  11.580  0.9942  0.1247 -0.7073
 4471TIP3   OH234827   6.429   3.470   1.192  0.1461 -0.0240 -0.4012
 4471TIP3    H134828   6.476   3.429   1.119 -1.0198 -0.4038 -0.9644
 4471TIP3    H234829   6.495   3.482   1.259  0.8740 -1.3012 -0.8602
 4472TIP3   OH234830   1.373   4.052  11.388  0.7014  0.2714  0.0691
 4472TIP3    H134831   1.417   4.009  11.314  0.5926  0.7744 -0.2967
 4472TIP3    H234832   1.320   3.983  11.428  0.2033  0.1542 -0.7667
 4473TIP3   OH234833   0.978   1.570  14.573 -0.4133  0.1165  0.1301
 4473TIP3    H134834   0.899   1.569  14.627 -0.6346  0.9768 -0.1575
 4473TIP3    H234835   1.012   1.480  14.577 -0.1804  0.2540  2.0242
 4474TIP3   OH234836   3.157   1.778   2.650  0.1492 -0.4597 -0.1592
 4474TIP3    H134837   3.098   1.708   2.622  1.5895 -1.1317 -1.6772
 4474TIP3    H234838   3.219   1.736   2.709  0.6497 -0.3493 -0.5950
 4475TIP3   OH234839   1.563   6.086  12.534  0.1144  0.1379  0.3090
 4475TIP3    H134840   1.510   6.064  12.611  0.9678 -1.4654  0.4836
 4475TIP3    H234841   1.600   6.172  12.554 -0.6170  0.2749  1.1593
 4476TIP3   OH234842   2.296   5.477  11.862  0.4796  0.0428  0.6210
 4476TIP3    H134843   2.207   5.504  11.837  0.2636 -0.1873  1.1121
 4476TIP3    H234844   2.284   5.391  11.902  0.9435 -0.0409  0.5853
 4477TIP3   OH234845   2.262   6.524   4.269  0.1695 -0.6404 -0.1480
 4477TIP3    H134846   2.324   6.592   4.245  0.4979 -0.7729  0.3223
 4477TIP3    H234847   2.290   6.494   4.355 -0.3411 -0.9401 -0.0778
 4478TIP3   OH234848   5.419   4.427   5.755  0.0248  0.2902 -0.0594
 4478TIP3    H134849   5.376   4.505   5.790  0.9794  0.4459  0.8148
 4478TIP3    H234850   5.513   4.448   5.759  0.2231 -0.1749 -1.5703
 4479TIP3   OH234851   1.232   1.442   3.463  0.1648  0.3068 -0.3583
 4479TIP3    H134852   1.293   1.447   3.537 -0.2340 -0.9196  0.0841
 4479TIP3    H234853   1.168   1.510   3.480  0.4247  0.4433  0.1011
 4480TIP3   OH234854   1.163   1.969   5.286  0.1199 -0.2277  0.2244
 4480TIP3    H134855   1.209   1.895   5.245 -0.1689 -0.8351  0.9658
 4480TIP3    H234856   1.075   1.935   5.303 -0.6151  0.8961 -1.1116
 4481TIP3   OH234857   4.329   2.720   0.327 -0.5611 -0.0838 -0.3126
 4481TIP3    H134858   4.256   2.777   0.303  0.9726  1.8805 -0.5721
 4481TIP3    H234859   4.365   2.692   0.243 -1.2769 -1.4678 -0.1859
 4482TIP3   OH234860   0.683   2.523  13.933 -0.1671  0.6040 -0.4805
 4482TIP3    H134861   0.687   2.617  13.922  0.6963  0.7423  0.7875
 4482TIP3    H234862   0.772   2.497  13.960 -0.7484 -0.3331  0.6793
 4483TIP3   OH234863   2.025   2.169   0.507  0.1825 -0.6628  0.0146
 4483TIP3    H134864   1.989   2.187   0.594  2.1390 -1.4261  1.0658
 4483TIP3    H234865   1.996   2.080   0.487 -1.2340 -0.0739 -0.6819
 4484TIP3   OH234866   6.490   4.283   0.605  0.2479  0.5115  0.6410
 4484TIP3    H134867   6.571   4.239   0.632 -0.0681  0.3690  1.3849
 4484TIP3    H234868   6.444   4.301   0.688  1.2361  3.9749  0.5751
 4485TIP3   OH234869   6.513   4.148  14.519 -0.3678 -0.1323 -0.1957
 4485TIP3    H134870   6.455   4.072  14.525  0.0104 -0.5191 -1.2343
 4485TIP3    H234871   6.455   4.220  14.494 -0.5783 -0.2807 -0.1383
 4486TIP3   OH234872   1.417   6.438   1.883  0.4661  0.3113 -0.6175
 4486TIP3    H134873   1.501   6.421   1.925  0.5425 -0.5434 -1.0936
 4486TIP3    H234874   1.406   6.367   1.820 -1.0403 -0.1386  0.0883
 4487TIP3   OH234875   1.223   5.106   6.665 -0.3609 -0.3313 -0.6632
 4487TIP3    H134876   1.223   5.011   6.667  1.3561 -0.3567 -0.4444
 4487TIP3    H234877   1.159   5.132   6.731  0.3884 -1.3333  0.4932
 4488TIP3   OH234878   0.030   4.339  16.490  0.7808 -0.0487 -0.9075
 4488TIP3    H134879  -0.026   4.337  16.568  0.9939  0.4289 -0.7436
 4488TIP3    H234880  -0.026   4.304  16.421  0.7344 -0.9044 -0.4541
 4489TIP3   OH234881   5.797   3.699  11.895  0.6785  0.0886 -0.7041
 4489TIP3    H134882   5.892   3.695  11.903  0.6798  0.0650 -0.7320
 4489TIP3    H234883   5.767   3.615  11.929  0.6753  0.0459 -0.8096
 4490TIP3   OH234884   5.314   0.401  13.077 -0.5999 -0.3394 -0.0892
 4490TIP3    H134885   5.266   0.463  13.132 -1.4525 -0.8007 -0.2966
 4490TIP3    H234886   5.406   0.424  13.090 -0.8843  0.7581  0.0839
 4491TIP3   OH234887   0.384   0.534  15.485  0.1951 -0.8719  0.4871
 4491TIP3    H134888   0.455   0.478  15.516  0.6830 -0.0297  0.9017
 4491TIP3    H234889   0.402   0.547  15.392 -0.0457 -1.5737  0.3329
 4492TIP3   OH234890   6.228   3.511   6.024  0.2772  0.0814 -0.2604
 4492TIP3    H134891   6.266   3.584   5.974  2.7564 -1.3711 -0.6522
 4492TIP3    H234892   6.281   3.507   6.104 -1.5779  0.3331  1.0459
 4493TIP3   OH234893   5.404   0.049   2.957  0.5201  0.1393  0.2536
 4493TIP3    H134894   5.433   0.028   3.046 -0.9748 -2.4002  0.2132
 4493TIP3    H234895   5.408  -0.034   2.910  0.2132  1.2086 -1.7799
 4494TIP3   OH234896   2.403   0.745  11.240 -0.8100  0.2618 -0.3655
 4494TIP3    H134897   2.417   0.751  11.146  0.5028 -0.8649 -0.2730
 4494TIP3    H234898   2.317   0.704  11.249 -0.6414 -0.2773 -1.0997
 4495TIP3   OH234899   0.886   1.139   0.213 -0.3657  0.9646 -0.2628
 4495TIP3    H134900   0.884   1.233   0.200  1.3488  0.7847 -2.4319
 4495TIP3    H234901   0.979   1.116   0.206 -0.5160 -0.6966  2.0393
 4496TIP3   OH234902   1.253   1.467   2.695  0.0996  0.2745  0.3354
 4496TIP3    H134903   1.236   1.500   2.783  0.1457 -0.0973  0.4847
 4496TIP3    H234904   1.198   1.522   2.638 -3.6836 -2.3987  0.9907
 4497TIP3   OH234905   2.121   4.634   1.472  0.1318  0.1803  0.2800
 4497TIP3    H134906   2.086   4.661   1.386 -0.8882 -0.4608  0.4775
 4497TIP3    H234907   2.188   4.699   1.492 -0.6760  1.2214 -0.3102
 4498TIP3   OH234908   3.517   3.391  13.772  0.1239 -0.7286  0.0957
 4498TIP3    H134909   3.605   3.357  13.754  0.5628  0.2567  0.3546
 4498TIP3    H234910   3.529   3.485  13.782 -1.2934 -0.2233 -2.1225
 4499TIP3   OH234911   4.595   4.738  10.716 -0.3473  0.2165 -0.4089
 4499TIP3    H134912   4.521   4.794  10.694  0.1170  1.0919  0.2146
 4499TIP3    H234913   4.557   4.650  10.723 -1.0684  0.4129 -1.4831
 4500TIP3   OH234914   2.358   5.161   3.759 -0.4278 -0.2452 -0.2263
 4500TIP3    H134915   2.316   5.244   3.779 -0.3178 -0.5884  1.6557
 4500TIP3    H234916   2.386   5.127   3.845  0.4774 -1.7096 -1.0550
 4501TIP3   OH234917   3.320   3.040   0.882  0.1091 -0.2686 -0.8767
 4501TIP3    H134918   3.285   2.951   0.874 -2.4646  0.6095 -0.2003
 4501TIP3    H234919   3.295   3.083   0.801 -1.5178  0.7096  0.0999
 4502TIP3   OH234920   3.481   0.447   4.528  0.1742 -0.0986 -0.0542
 4502TIP3    H134921   3.387   0.462   4.519  0.2093 -0.5968 -1.7300
 4502TIP3    H234922   3.516   0.468   4.441  1.2027 -2.7565 -0.3589
 4503TIP3   OH234923   3.473   6.317  14.007  0.5611 -0.3884  0.5107
 4503TIP3    H134924   3.478   6.408  14.034  2.5834 -0.0990 -0.5872
 4503TIP3    H234925   3.417   6.275  14.071 -1.5286  1.8734  0.2798
 4504TIP3   OH234926   6.587   4.236   2.627 -0.0254  0.1397  0.1118
 4504TIP3    H134927   6.506   4.242   2.678  0.0854 -0.3112  0.3428
 4504TIP3    H234928   6.637   4.166   2.669  0.3239  0.1639 -0.2576
 4505TIP3   OH234929   0.805   3.303   1.102 -0.2612 -0.1440 -0.4054
 4505TIP3    H134930   0.799   3.397   1.119 -0.7290 -0.1528 -0.4954
 4505TIP3    H234931   0.724   3.283   1.054  0.1608 -0.4632 -0.9961
 4506TIP3   OH234932   6.709   6.532   5.252 -0.0008  0.1410 -0.1028
 4506TIP3    H134933   6.746   6.521   5.164  1.1241 -0.8256  0.4509
 4506TIP3    H234934   6.773   6.489   5.310 -1.2620 -0.2175  1.0734
 4507TIP3   OH234935   4.769   0.627  14.222  0.6502  0.0955 -0.1995
 4507TIP3    H134936   4.823   0.688  14.272  0.7462  0.0412 -0.2360
 4507TIP3    H234937   4.723   0.575  14.287  1.6639 -0.7714 -0.1450
 4508TIP3   OH234938   5.188   6.378   1.941 -0.5116 -0.3310  0.3366
 4508TIP3    H134939   5.132   6.415   1.874 -0.0314 -0.6569 -0.2496
 4508TIP3    H234940   5.246   6.450   1.966 -2.4570  0.6790  2.4355
 4509TIP3   OH234941   0.667   5.093   1.693 -0.4994 -0.3672  0.4291
 4509TIP3    H134942   0.679   5.099   1.599 -2.4695  1.7044  0.1984
 4509TIP3    H234943   0.755   5.095   1.730  0.3290 -1.8100 -1.3407
 4510TIP3   OH234944   1.482   3.905   1.372 -0.0850 -0.4801 -0.2296
 4510TIP3    H134945   1.404   3.891   1.319 -1.6253 -0.2743  1.8461
 4510TIP3    H234946   1.532   3.824   1.364 -0.5651 -0.6739 -1.4648
 4511TIP3   OH234947   1.099   3.623   4.458 -0.1792  0.4140  0.0789
 4511TIP3    H134948   1.088   3.547   4.515  1.3237  0.0665 -0.0596
 4511TIP3    H234949   1.034   3.686   4.490 -1.5835 -0.9648  0.0670
 4512TIP3   OH234950   5.549   6.442  11.576 -0.1245  0.4012 -0.8779
 4512TIP3    H134951   5.505   6.527  11.567 -0.8108  0.0459 -0.9396
 4512TIP3    H234952   5.603   6.434  11.498  2.3039  2.1107  0.4896
 4513TIP3   OH234953   6.437   5.708   3.557 -0.5833 -0.1667  0.0825
 4513TIP3    H134954   6.427   5.690   3.463  0.4234  1.4374 -0.3740
 4513TIP3    H234955   6.389   5.637   3.600 -1.5507 -0.6333 -1.6450
 4514TIP3   OH234956   2.920   1.752  15.373  0.0855 -0.3637  0.3965
 4514TIP3    H134957   2.833   1.772  15.408 -0.5439 -0.4136 -1.0691
 4514TIP3    H234958   2.915   1.778  15.281  1.4241 -0.9746  0.1352
 4515TIP3   OH234959   0.369   4.935   2.189 -0.1525  0.4967  0.4571
 4515TIP3    H134960   0.392   4.861   2.245 -0.8373  0.4786  0.7189
 4515TIP3    H234961   0.439   4.939   2.124 -1.3632 -1.9100 -1.1179
 4516TIP3   OH234962   2.264   3.059  15.132  0.6041  0.0100  0.4695
 4516TIP3    H134963   2.305   3.027  15.052  1.0843  0.3145  0.5862
 4516TIP3    H234964   2.183   3.101  15.103 -0.4760 -2.0049  0.3871
 4517TIP3   OH234965   0.948   4.109  16.603 -0.6339  0.3370  0.8062
 4517TIP3    H134966   0.865   4.140  16.566  0.2669  0.2683 -1.4050
 4517TIP3    H234967   0.950   4.016  16.583  1.1696  0.8155 -1.7959
 4518TIP3   OH234968   0.876   1.794   0.936  0.2582  0.0123 -0.1549
 4518TIP3    H134969   0.853   1.883   0.912  0.1994  0.0086 -0.1114
 4518TIP3    H234970   0.900   1.752   0.854  0.4918  0.1297 -0.1492
 4519TIP3   OH234971   1.712   2.320   3.373  0.3566  0.1863  0.5236
 4519TIP3    H134972   1.670   2.337   3.457 -1.3147 -0.7172 -0.1053
 4519TIP3    H234973   1.653   2.358   3.308  1.5496  0.7345 -0.2881
 4520TIP3   OH234974   2.874   4.095  13.788  0.4457 -0.0489  0.1963
 4520TIP3    H134975   2.966   4.089  13.764  0.1666 -1.1047 -0.6915
 4520TIP3    H234976   2.869   4.057  13.876  0.5188 -2.3111 -0.7159
 4521TIP3   OH234977   3.868   4.285   4.264  0.4473 -0.2997 -0.1400
 4521TIP3    H134978   3.821   4.204   4.285  0.1809 -0.0191  0.3801
 4521TIP3    H234979   3.903   4.314   4.349  0.4364  0.1916 -0.3016
 4522TIP3   OH234980   1.910   4.781  14.002  0.3508  0.1252 -0.1879
 4522TIP3    H134981   1.958   4.862  14.019  0.1569  0.0084  1.0032
 4522TIP3    H234982   1.824   4.795  14.040  0.3000 -0.6201 -0.0001
 4523TIP3   OH234983   2.596   0.154   1.557  0.5524  0.3148  0.1855
 4523TIP3    H134984   2.637   0.226   1.509  1.9798 -0.3948  0.3004
 4523TIP3    H234985   2.653   0.079   1.543  0.5380 -0.1477  2.2416
 4524TIP3   OH234986   2.845   0.129   2.644 -0.0485 -0.6883  0.0034
 4524TIP3    H134987   2.794   0.049   2.628  1.2679 -1.3805 -0.8802
 4524TIP3    H234988   2.860   0.164   2.557 -1.3840  1.0687  0.4232
 4525TIP3   OH234989   0.924   3.523  12.877  0.6065 -0.2969  0.0831
 4525TIP3    H134990   0.999   3.554  12.927  0.5455  0.0772 -0.0516
 4525TIP3    H234991   0.860   3.496  12.943 -0.0161  1.4645  0.2537
 4526TIP3   OH234992   6.273   0.650   4.180 -0.4465  0.1386 -0.0762
 4526TIP3    H134993   6.245   0.704   4.105  1.4891  0.4663 -0.6169
 4526TIP3    H234994   6.348   0.601   4.147  0.9242  0.8334  1.8335
 4527TIP3   OH234995   1.005   6.289  16.653 -0.1963  0.1471  0.0246
 4527TIP3    H134996   0.979   6.200  16.629  1.4508 -0.9531  1.9058
 4527TIP3    H234997   1.101   6.285  16.658 -0.1141  1.9081  0.5381
 4528TIP3   OH234998   1.778   0.019   1.454  0.5708 -0.4156 -0.1657
 4528TIP3    H134999   1.844  -0.050   1.461  0.2781 -0.4980  3.0243
 4528TIP3    H235000   1.702  -0.025   1.415  0.4648 -1.9028  1.5840
 4529TIP3   OH235001   0.902   3.555   0.621 -0.1926 -0.2145 -0.4664
 4529TIP3    H135002   0.929   3.463   0.621  0.4377 -0.0381 -1.5391
 4529TIP3    H235003   0.807   3.552   0.619 -0.3077 -0.8407  2.1286
 4530TIP3   OH235004   0.645   4.332   5.503  0.6536 -0.1347  0.4534
 4530TIP3    H135005   0.698   4.307   5.578 -0.2818 -1.0746  0.8300
 4530TIP3    H235006   0.671   4.271   5.434 -0.4659 -1.1603  0.8848
 4531TIP3   OH235007   2.745   6.132  12.684  0.1520 -0.2197 -0.2788
 4531TIP3    H135008   2.696   6.111  12.605  1.3266 -0.7478 -0.8770
 4531TIP3    H235009   2.728   6.226  12.698 -1.1682 -0.4192 -0.3382
 4532TIP3   OH235010   3.927   1.474   4.607 -0.2747 -0.4700  0.2598
 4532TIP3    H135011   3.883   1.440   4.530 -1.4612  0.9041  0.2800
 4532TIP3    H235012   3.949   1.564   4.584 -0.5168 -0.0877  1.4626
 4533TIP3   OH235013   4.319   3.352  13.646  0.1505  0.0024 -0.0772
 4533TIP3    H135014   4.403   3.391  13.619  0.8800 -2.3784 -1.6101
 4533TIP3    H235015   4.273   3.335  13.564 -0.5829 -1.2787  0.5652
 4534TIP3   OH235016   3.413   5.022   1.334 -0.3284 -0.3326  0.4550
 4534TIP3    H135017   3.376   4.997   1.249 -0.7763 -1.5545  0.9883
 4534TIP3    H235018   3.462   4.945   1.363 -1.2204 -0.3992  1.8729
 4535TIP3   OH235019   5.289   1.487   0.891 -0.1612  0.0297 -0.3543
 4535TIP3    H135020   5.276   1.579   0.911 -1.5660  0.0859 -1.3653
 4535TIP3    H235021   5.203   1.447   0.907  0.1230 -0.8798 -1.0334
 4536TIP3   OH235022   1.907   2.354  15.921 -0.6818 -0.3655  0.3308
 4536TIP3    H135023   1.874   2.264  15.917 -0.1994 -0.5842  1.1334
 4536TIP3    H235024   1.849   2.398  15.983  0.5420 -0.7851  1.8497
 4537TIP3   OH235025   5.454   1.253  10.518 -0.4032  0.5785  0.0771
 4537TIP3    H135026   5.367   1.233  10.483 -0.0741  1.9549 -1.6703
 4537TIP3    H235027   5.455   1.349  10.525  0.5911  0.5059  1.1414
 4538TIP3   OH235028   4.996   6.286  10.883  0.4580 -0.3681  0.4679
 4538TIP3    H135029   4.938   6.300  10.808 -0.0669  2.3093  1.2400
 4538TIP3    H235030   4.989   6.193  10.902 -2.1372 -0.5078 -0.6759
 4539TIP3   OH235031   4.284   0.524  15.118  0.0793 -0.3719 -0.9468
 4539TIP3    H135032   4.241   0.478  15.046 -0.0805 -1.9410  0.1031
 4539TIP3    H235033   4.364   0.474  15.135 -0.8690 -1.2866  1.2504
 4540TIP3   OH235034   4.561   1.605   4.514 -0.5232  0.4303  0.0674
 4540TIP3    H135035   4.602   1.519   4.502 -0.3021  0.3425  1.3552
 4540TIP3    H235036   4.469   1.590   4.494  0.1406  0.9425 -4.3425
 4541TIP3   OH235037   5.341   6.545  13.783 -0.2098 -0.5046  0.1297
 4541TIP3    H135038   5.298   6.543  13.698  0.4107  0.1705 -0.2093
 4541TIP3    H235039   5.270   6.563  13.845 -0.8252 -1.9480 -0.1069
 4542TIP3   OH235040   2.242   4.558   4.236 -0.5412  0.3058  0.5144
 4542TIP3    H135041   2.150   4.566   4.262  0.0389 -0.5226  3.1212
 4542TIP3    H235042   2.272   4.479   4.281  1.1610 -0.1628 -1.3123
 4543TIP3   OH235043   5.465   3.607  16.333 -0.5094  0.6730 -0.4310
 4543TIP3    H135044   5.398   3.665  16.369  0.1896  1.2154  0.0345
 4543TIP3    H235045   5.545   3.632  16.379 -0.5241 -2.0438  1.3025
 4544TIP3   OH235046   1.441   1.046   5.206 -0.3442 -0.6539 -0.7080
 4544TIP3    H135047   1.528   1.006   5.200 -0.2678 -0.9094  1.4332
 4544TIP3    H235048   1.390   1.004   5.136  0.9145 -1.3559 -1.2253
 4545TIP3   OH235049   1.036   1.680  11.173 -1.0543 -0.4312 -0.0000
 4545TIP3    H135050   1.131   1.673  11.177 -0.9850  0.2254 -0.3499
 4545TIP3    H235051   1.006   1.589  11.165 -0.6681 -1.0045  3.6370
 4546TIP3   OH235052   3.681   3.377  14.076  0.1043 -0.2017 -0.2611
 4546TIP3    H135053   3.746   3.446  14.067 -0.2469  0.0452 -0.9889
 4546TIP3    H235054   3.685   3.329  13.993 -1.0735  0.2169 -0.5875
 4547TIP3   OH235055   0.959   6.423   1.273  0.1662  0.2504  0.0913
 4547TIP3    H135056   1.012   6.446   1.350  0.4016 -1.7232  0.5749
 4547TIP3    H235057   1.023   6.412   1.203  0.6446 -2.8602  0.8424
 4548TIP3   OH235058   1.965   2.126   1.976  0.1552 -0.3624 -0.2142
 4548TIP3    H135059   2.020   2.167   2.042 -0.1840 -0.3686  0.0768
 4548TIP3    H235060   1.908   2.197   1.944  0.1598 -0.4111 -0.3313
 4549TIP3   OH235061   2.328   3.989  14.758  0.2039  0.4048  0.3712
 4549TIP3    H135062   2.259   3.942  14.710  0.2121 -1.4778  2.0681
 4549TIP3    H235063   2.386   3.920  14.790  2.4772  1.8794 -0.3047
 4550TIP3   OH235064   1.524   5.955  15.686 -0.3389  0.5003 -0.0303
 4550TIP3    H135065   1.546   5.886  15.749 -0.1955  0.2769 -0.3268
 4550TIP3    H235066   1.430   5.968  15.697 -1.3532 -2.8365 -2.9907
 4551TIP3   OH235067   6.416   2.791  13.401 -0.2304 -0.0052  0.0571
 4551TIP3    H135068   6.485   2.806  13.465 -0.3457  1.9058 -0.2154
 4551TIP3    H235069   6.335   2.790  13.451 -0.1151 -1.5957  0.2883
 4552TIP3   OH235070   1.666   3.788   5.302  0.5610 -0.2343  0.0658
 4552TIP3    H135071   1.609   3.841   5.245 -0.9867 -1.1237  0.7217
 4552TIP3    H235072   1.610   3.763   5.375  2.1620 -0.1663  1.3802
 4553TIP3   OH235073   2.636   4.330  12.908  0.3269 -0.2505 -0.3428
 4553TIP3    H135074   2.714   4.327  12.853  0.2730  3.1644 -0.8462
 4553TIP3    H235075   2.670   4.331  12.998  0.8570  0.6426 -0.5425
 4554TIP3   OH235076   6.324   1.743   3.120 -0.0909 -0.1107 -0.0165
 4554TIP3    H135077   6.342   1.818   3.176 -0.8352 -0.2832  0.4795
 4554TIP3    H235078   6.355   1.769   3.034  0.4896  0.4108  0.3394
 4555TIP3   OH235079   2.143   5.511   3.602  0.4542 -0.9089 -0.5603
 4555TIP3    H135080   2.141   5.605   3.589  0.6063 -0.9489 -0.9052
 4555TIP3    H235081   2.090   5.475   3.531 -1.9474 -0.9575  1.1273
 4556TIP3   OH235082   2.150   0.283   2.678  0.2416  0.2422  0.1428
 4556TIP3    H135083   2.107   0.361   2.712  0.6323  0.4907  0.0668
 4556TIP3    H235084   2.239   0.287   2.713  0.2654 -0.1704  0.1413
 4557TIP3   OH235085   2.052   5.331   0.143 -0.4108  0.2397 -0.0147
 4557TIP3    H135086   2.029   5.378   0.223  0.2392  1.2013 -0.3767
 4557TIP3    H235087   1.989   5.259   0.138 -1.4709  1.1095  0.5219
 4558TIP3   OH235088   5.170   1.536  15.320  0.2559  0.3333  0.1405
 4558TIP3    H135089   5.253   1.543  15.367  0.5871  0.9400 -0.5242
 4558TIP3    H235090   5.121   1.469  15.368  0.5617  0.9670  1.3814
 4559TIP3   OH235091   5.838   6.749  10.627  0.1136  0.5498  0.2756
 4559TIP3    H135092   5.777   6.676  10.627 -0.4920  1.0411  1.0830
 4559TIP3    H235093   5.880   6.746  10.713  2.5295 -0.8097 -0.8473
 4560TIP3   OH235094   4.986   3.390   5.040  0.2902  0.1980 -0.2799
 4560TIP3    H135095   4.974   3.404   5.134  1.1715 -0.1493 -0.1113
 4560TIP3    H235096   5.019   3.473   5.006  0.5025  0.1496 -0.1896
 4561TIP3   OH235097   3.996   4.856   4.971 -0.5446  0.1699 -0.0803
 4561TIP3    H135098   4.024   4.818   4.888  0.9393 -0.0747  0.4861
 4561TIP3    H235099   3.979   4.948   4.951  0.1204  0.1903 -0.6045
 4562TIP3   OH235100   2.620   5.370  11.303  0.4384  0.1031  0.3933
 4562TIP3    H135101   2.564   5.444  11.324  1.4827  1.2055 -0.5806
 4562TIP3    H235102   2.627   5.372  11.207  2.0580 -0.0512  0.4827
 4563TIP3   OH235103   4.728   6.229   3.947 -0.1113 -0.3355 -0.2918
 4563TIP3    H135104   4.734   6.311   3.996 -0.7313 -0.0023 -0.7537
 4563TIP3    H235105   4.791   6.240   3.875 -0.2360 -0.2401 -0.3865
 4564TIP3   OH235106   4.895   1.074  11.277 -0.2286 -0.2812 -0.3639
 4564TIP3    H135107   4.856   1.101  11.194 -0.9782 -1.1245 -0.3013
 4564TIP3    H235108   4.856   1.131  11.343  0.2299  0.2660 -0.5568
 4565TIP3   OH235109   0.520   5.601   2.183  0.8673 -0.3219  0.3655
 4565TIP3    H135110   0.464   5.540   2.134  0.8169 -1.8335  2.1865
 4565TIP3    H235111   0.568   5.544   2.244  1.5988  1.3793  1.4267
 4566TIP3   OH235112   5.807   3.329  14.343 -0.3921  0.0630  0.1444
 4566TIP3    H135113   5.764   3.352  14.425 -0.9647  1.1157 -0.4335
 4566TIP3    H235114   5.870   3.399  14.328  0.5578 -0.7364  0.2633
 4567TIP3   OH235115   1.102   6.230   4.433  0.0595 -0.6494  0.0650
 4567TIP3    H135116   1.112   6.191   4.346  0.2796  0.7359 -0.5640
 4567TIP3    H235117   1.017   6.272   4.431  0.8044  0.9142 -0.1422
 4568TIP3   OH235118   3.263   2.384  13.907 -0.5885 -0.7734 -0.6099
 4568TIP3    H135119   3.187   2.443  13.910  0.1162  0.1155  0.5291
 4568TIP3    H235120   3.233   2.309  13.855 -2.8783 -1.3606  1.4020
 4569TIP3   OH235121   1.027   3.905  15.647 -0.6322 -0.1220 -0.3235
 4569TIP3    H135122   1.064   3.973  15.592 -0.1358  0.3209  0.5418
 4569TIP3    H235123   1.092   3.892  15.716 -2.2936  1.0855  1.5741
 4570TIP3   OH235124   5.707   5.840   1.668 -0.0962  0.5161  0.0606
 4570TIP3    H135125   5.712   5.898   1.744 -0.5876  1.0880 -0.3287
 4570TIP3    H235126   5.628   5.787   1.683 -1.1257  1.7414 -0.7874
 4571TIP3   OH235127   3.758   1.977  10.433 -0.4653  0.3730 -0.1172
 4571TIP3    H135128   3.729   1.907  10.491  1.4024 -0.6256 -0.3092
 4571TIP3    H235129   3.768   2.053  10.490  3.1071 -1.0238  1.4532
 4572TIP3   OH235130   1.860   4.292  15.446 -0.0014  0.1012 -0.5766
 4572TIP3    H135131   1.886   4.203  15.421 -0.1046 -0.1179  0.0603
 4572TIP3    H235132   1.942   4.335  15.471 -0.1611 -0.4180  0.9140
 4573TIP3   OH235133   4.964   5.453  15.885 -0.2580 -0.2887 -0.1762
 4573TIP3    H135134   4.991   5.363  15.905  0.5986  0.4481  2.3824
 4573TIP3    H235135   5.015   5.477  15.808  1.1299 -1.3150  0.3758
 4574TIP3   OH235136   3.884   6.700   3.937  0.3835  0.0052  0.7688
 4574TIP3    H135137   3.963   6.754   3.946 -0.2135  0.7012  2.1224
 4574TIP3    H235138   3.816   6.751   3.980 -0.9067 -0.4298 -0.6590
 4575TIP3   OH235139   0.070   1.596   2.384  0.1640  0.1583 -0.1185
 4575TIP3    H135140   0.148   1.627   2.430 -0.2035  0.0566  0.5808
 4575TIP3    H235141   0.077   1.500   2.389  1.0410  0.0919 -1.8404
 4576TIP3   OH235142   5.403   5.918  13.417 -0.8991  0.1156  0.5373
 4576TIP3    H135143   5.493   5.895  13.394 -1.3413 -0.3183 -0.8912
 4576TIP3    H235144   5.384   5.866  13.494 -0.1247 -0.2744  0.4771
 4577TIP3   OH235145   0.002   4.771  10.870  0.4219 -0.2926 -0.6541
 4577TIP3    H135146   0.065   4.705  10.840  0.7898  0.2907 -1.2019
 4577TIP3    H235147  -0.048   4.794  10.792 -2.5084 -2.8225  0.3009
 4578TIP3   OH235148   3.246   5.982  17.228  0.2447 -0.1157  0.2077
 4578TIP3    H135149   3.157   5.982  17.193  0.2282 -0.2140  0.2494
 4578TIP3    H235150   3.264   6.074  17.247 -0.6403 -0.2983  2.1887
 4579TIP3   OH235151   1.191   5.625  14.725 -0.1058 -0.3100 -0.3368
 4579TIP3    H135152   1.142   5.706  14.737  0.3998 -0.0247 -0.1532
 4579TIP3    H235153   1.129   5.566  14.682 -0.2033  0.4611 -1.3086
 4580TIP3   OH235154   4.442   6.720   5.830 -0.7971 -0.3694  0.1458
 4580TIP3    H135155   4.443   6.699   5.736  0.2697  1.1728 -0.2241
 4580TIP3    H235156   4.533   6.709   5.858 -0.7707  0.8579  0.5800
 4581TIP3   OH235157   0.849   5.381  13.593 -0.2263 -0.4060 -0.0439
 4581TIP3    H135158   0.877   5.330  13.669  1.9658 -0.9703 -1.1639
 4581TIP3    H235159   0.811   5.461  13.631  0.0789 -1.0279  1.6503
 4582TIP3   OH235160   5.780   6.590   2.738  0.6908  0.6270  0.7961
 4582TIP3    H135161   5.792   6.679   2.706 -0.9467  2.0835  3.7317
 4582TIP3    H235162   5.703   6.595   2.795  1.2017 -2.4048  1.9874
 4583TIP3   OH235163   0.602   0.414   3.770  0.0998 -0.0621  0.2775
 4583TIP3    H135164   0.636   0.355   3.837  0.7275  0.1446  0.1479
 4583TIP3    H235165   0.596   0.359   3.692 -1.1790 -0.4527  0.6309
 4584TIP3   OH235166   3.297   1.193  13.062 -0.4925 -0.7704  0.3258
 4584TIP3    H135167   3.221   1.197  13.004 -0.5589 -0.5365  0.4239
 4584TIP3    H235168   3.371   1.216  13.007 -0.5609 -0.5094  0.3390
 4585TIP3   OH235169   2.741   0.575  13.160 -0.0601  0.0526  1.3048
 4585TIP3    H135170   2.716   0.602  13.248 -0.1161  1.4310  0.8929
 4585TIP3    H235171   2.812   0.635  13.136  0.6151 -0.9234  0.7617
 4586TIP3   OH235172   0.272   4.982   1.309  0.4918 -0.3768  0.2490
 4586TIP3    H135173   0.213   4.910   1.333  0.6451 -0.6362 -0.1419
 4586TIP3    H235174   0.352   4.964   1.357  0.7072 -0.7531 -0.2358
 4587TIP3   OH235175   2.679   0.348  11.923 -0.2155 -0.0547  0.1597
 4587TIP3    H135176   2.724   0.265  11.942 -0.4488 -0.9715 -2.8389
 4587TIP3    H235177   2.647   0.339  11.834 -2.3726  2.3923  0.5560
 4588TIP3   OH235178   1.811   3.661   5.784  0.6360 -0.1624  0.3103
 4588TIP3    H135179   1.774   3.573   5.771 -2.0602  0.8364  0.6567
 4588TIP3    H235180   1.763   3.697   5.858  2.8044  1.0860  1.2073
 4589TIP3   OH235181   3.530   2.045  14.296 -0.4601  1.0487 -0.1738
 4589TIP3    H135182   3.572   1.985  14.234  0.3740 -0.0884  1.4361
 4589TIP3    H235183   3.441   2.013  14.304 -0.1307  0.2361  0.3681
 4590TIP3   OH235184   5.968   2.666   4.452  0.3019  0.1482  0.3186
 4590TIP3    H135185   5.906   2.663   4.524  1.4915 -0.3277  1.3672
 4590TIP3    H235186   5.915   2.654   4.373 -1.1082  1.2891  1.0464
 4591TIP3   OH235187   3.987   5.125   3.695 -0.1528  0.2241 -0.6160
 4591TIP3    H135188   4.052   5.188   3.663 -1.0405  0.3456 -2.2729
 4591TIP3    H235189   3.967   5.155   3.784  0.9953  1.0117 -0.5972
 4592TIP3   OH235190   0.157   0.509   3.864  0.7865  0.1872  0.5758
 4592TIP3    H135191   0.210   0.509   3.784  2.7579  0.6123  1.8126
 4592TIP3    H235192   0.186   0.586   3.912 -0.3077 -0.0944  1.7460
 4593TIP3   OH235193   6.023   1.345   6.620  0.3862 -0.3952  0.0438
 4593TIP3    H135194   5.983   1.321   6.703 -1.2659  1.4171 -0.1725
 4593TIP3    H235195   6.101   1.395   6.645  0.0136 -0.0361  0.4941
 4594TIP3   OH235196   3.755   0.634  15.233 -0.1244  0.2104 -0.2867
 4594TIP3    H135197   3.816   0.708  15.231  1.1333 -0.7970 -0.7140
 4594TIP3    H235198   3.798   0.566  15.181 -0.2849 -1.5370  1.7254
 4595TIP3   OH235199   0.069   3.725   3.605 -0.3124 -0.4146  0.0910
 4595TIP3    H135200   0.061   3.756   3.695 -0.9145  0.5073 -0.2638
 4595TIP3    H235201   0.135   3.782   3.565 -0.9795  0.0455 -0.3952
 4596TIP3   OH235202   0.474   1.878  10.377  0.1087 -0.5624 -0.4334
 4596TIP3    H135203   0.519   1.914  10.301 -0.0487  0.6540  0.0352
 4596TIP3    H235204   0.426   1.952  10.415  0.9750 -0.8831  1.4332
 4597TIP3   OH235205   0.118   2.215   1.214 -0.0183 -0.5682  0.2432
 4597TIP3    H135206   0.034   2.207   1.260 -0.5970 -0.4795 -0.7856
 4597TIP3    H235207   0.131   2.129   1.174  0.2289 -0.4764  0.1259
 4598TIP3   OH235208   3.786   2.432  11.436 -0.3552 -0.3888 -0.0362
 4598TIP3    H135209   3.879   2.420  11.416 -0.4051  0.0723 -0.5579
 4598TIP3    H235210   3.741   2.415  11.353 -0.7685 -0.9446  0.2957
 4599TIP3   OH235211   5.090   2.445   2.241  0.6698 -0.5415  0.4278
 4599TIP3    H135212   5.158   2.425   2.177  0.9133  1.1768  0.1058
 4599TIP3    H235213   5.137   2.450   2.325  1.0615  1.0927  0.1411
 4600TIP3   OH235214   5.707   4.302  14.512 -0.2738  0.3266  0.4496
 4600TIP3    H135215   5.762   4.350  14.573  2.8480 -0.0015 -1.9005
 4600TIP3    H235216   5.737   4.211  14.517  0.9600  0.4684 -2.2951
 4601TIP3   OH235217   2.668   0.093  15.724 -0.1561 -0.5799  0.0141
 4601TIP3    H135218   2.605   0.156  15.760  1.3074  0.3812  1.0211
 4601TIP3    H235219   2.667   0.020  15.787 -0.0119 -0.4071  0.2174
 4602TIP3   OH235220   4.428   1.727  16.795 -0.2539 -0.1328  0.5358
 4602TIP3    H135221   4.412   1.788  16.723  1.0267  0.0733  0.4072
 4602TIP3    H235222   4.375   1.650  16.774  1.1214 -0.6342 -1.3599
 4603TIP3   OH235223   5.809   0.390  11.372 -0.3656  0.1864 -0.4127
 4603TIP3    H135224   5.769   0.436  11.298 -3.3132  0.4205  1.2007
 4603TIP3    H235225   5.889   0.440  11.389 -0.4300  1.0949 -2.3904
 4604TIP3   OH235226   0.251   2.372  13.053  0.2949 -0.8294 -0.2748
 4604TIP3    H135227   0.325   2.392  12.997  0.2972  0.2077  0.0812
 4604TIP3    H235228   0.289   2.340  13.135  0.4728  1.4382  0.6096
 4605TIP3   OH235229   0.354   0.237  11.607 -0.1179  0.4570 -0.1350
 4605TIP3    H135230   0.410   0.314  11.603 -0.6624  0.8836 -4.4570
 4605TIP3    H235231   0.265   0.272  11.608 -0.3757  0.0027 -2.2631
 4606TIP3   OH235232   6.344   3.650  14.465  0.0443 -0.1023 -0.4677
 4606TIP3    H135233   6.278   3.681  14.527 -1.4731  0.3926 -2.2235
 4606TIP3    H235234   6.393   3.728  14.441  0.5245 -0.2653 -0.0386
 4607TIP3   OH235235   6.193   3.898   4.244  0.2536  0.3536 -0.2140
 4607TIP3    H135236   6.282   3.925   4.267  0.5738 -0.7652 -0.1085
 4607TIP3    H235237   6.186   3.916   4.150  0.5567  0.5167 -0.2064
 4608TIP3   OH235238   5.719   5.214  14.280  0.5184  0.4541  0.1855
 4608TIP3    H135239   5.800   5.237  14.234 -0.0339  0.3647 -0.8694
 4608TIP3    H235240   5.652   5.213  14.211 -0.3372  0.2938  0.9986
 4609TIP3   OH235241   0.105   2.850   2.761  0.1032 -0.4621 -0.9190
 4609TIP3    H135242   0.134   2.768   2.800  0.1303 -1.1455 -2.3276
 4609TIP3    H235243   0.159   2.917   2.802 -0.2759 -1.0644  0.6351
 4610TIP3   OH235244   1.276   1.513   3.026 -0.0176  0.0856  0.2914
 4610TIP3    H135245   1.194   1.532   3.071 -0.8252  1.0114 -1.4539
 4610TIP3    H235246   1.321   1.450   3.082 -1.2087  0.7435  2.0482
 4611TIP3   OH235247   0.248   5.193   3.363  0.4680  0.0917  0.3045
 4611TIP3    H135248   0.325   5.249   3.350 -0.1915  1.5942  2.3295
 4611TIP3    H235249   0.267   5.147   3.445 -0.5454  0.0844  0.5436
 4612TIP3   OH235250   1.249   2.293  12.482 -0.3734 -0.3138 -0.0277
 4612TIP3    H135251   1.243   2.352  12.557  0.3708  1.0519 -1.0097
 4612TIP3    H235252   1.314   2.333  12.425  0.8064 -2.5207 -0.3632
 4613TIP3   OH235253   2.517   1.672  17.094 -0.5225  0.5893 -0.0297
 4613TIP3    H135254   2.512   1.718  17.010  0.4123 -0.7575 -0.8852
 4613TIP3    H235255   2.432   1.685  17.134 -0.4463  2.6064 -0.4437
 4614TIP3   OH235256   5.106   2.458  16.664  0.0731  0.3244  0.4925
 4614TIP3    H135257   5.073   2.372  16.690  0.2552  0.4012  0.9974
 4614TIP3    H235258   5.146   2.443  16.578  0.0303 -0.0752  0.5376
 4615TIP3   OH235259   4.532   2.432  17.198  0.0829  0.1518  0.1765
 4615TIP3    H135260   4.623   2.459  17.186 -0.4086  0.6790 -3.2087
 4615TIP3    H235261   4.525   2.349  17.151 -1.7593  1.5172 -2.1824
 4616TIP3   OH235262   6.433   5.588  16.016  0.2363  0.6866 -0.1042
 4616TIP3    H135263   6.421   5.661  15.956  1.3026  0.5553 -0.4858
 4616TIP3    H235264   6.469   5.518  15.962  0.6039  0.3532  0.5558
 4617TIP3   OH235265   5.714   1.482  12.804 -0.1992  0.3971 -0.1397
 4617TIP3    H135266   5.790   1.538  12.786 -0.7151  1.3449  0.5632
 4617TIP3    H235267   5.666   1.479  12.721  0.9487 -0.7866 -0.7959
 4618TIP3   OH235268   1.921   4.112   3.671 -0.3951 -0.2145  0.5122
 4618TIP3    H135269   1.982   4.039   3.663  0.0766  0.3597 -1.4878
 4618TIP3    H235270   1.855   4.096   3.603 -1.0791  0.5017  0.9796
 4619TIP3   OH235271   4.564   3.623  14.043 -0.3327  0.6288  0.2886
 4619TIP3    H135272   4.583   3.555  14.108  1.5943  1.0067  0.1964
 4619TIP3    H235273   4.511   3.580  13.977  1.2986 -0.9843 -0.0549
 4620TIP3   OH235274   1.213   3.133   5.223 -0.2159 -0.1382  0.1641
 4620TIP3    H135275   1.280   3.202   5.222 -1.0080  0.6765 -1.6800
 4620TIP3    H235276   1.149   3.162   5.158 -2.2727 -1.0050  1.7432
 4621TIP3   OH235277   1.581   0.388  12.912 -0.4150  0.8205  0.1791
 4621TIP3    H135278   1.497   0.400  12.869 -0.2567  0.5512 -0.2134
 4621TIP3    H235279   1.608   0.300  12.888  0.4116  1.2335 -0.4703
 4622TIP3   OH235280   1.771   1.646   1.171 -0.1486 -0.1100  0.0041
 4622TIP3    H135281   1.737   1.569   1.217 -1.5637  0.2256 -0.4266
 4622TIP3    H235282   1.702   1.712   1.181 -0.2359  0.1709 -2.0555
 4623TIP3   OH235283   1.356   0.099  16.093  0.2400  0.0014  0.0214
 4623TIP3    H135284   1.325   0.167  16.033  1.2692  0.1586 -0.3591
 4623TIP3    H235285   1.403   0.037  16.036  0.3870 -0.3633  0.5351
 4624TIP3   OH235286   2.071   6.619   4.029 -0.0411  0.0640  0.0257
 4624TIP3    H135287   2.147   6.577   4.070 -0.7812 -0.7047  0.6576
 4624TIP3    H235288   2.087   6.613   3.935  0.9530  0.4445  0.1578
 4625TIP3   OH235289   5.793   1.496  13.865  0.6174  0.0057 -0.7181
 4625TIP3    H135290   5.698   1.510  13.862  0.5705 -0.4174 -1.5583
 4625TIP3    H235291   5.829   1.561  13.804  0.7539 -0.6402 -1.3424
 4626TIP3   OH235292   4.905   4.234   4.847  0.0143  0.0660 -0.0731
 4626TIP3    H135293   4.905   4.139   4.846 -0.1352  0.0609 -1.6880
 4626TIP3    H235294   4.872   4.257   4.934  0.7848 -1.3339  0.6279
 4627TIP3   OH235295   5.794   4.594  14.784  0.5044  0.7174 -0.2641
 4627TIP3    H135296   5.743   4.524  14.824  1.2718  0.1492 -0.2485
 4627TIP3    H235297   5.749   4.613  14.702  1.1102 -0.8871 -1.0319
 4628TIP3   OH235298   0.896   2.767  12.647  0.4745  0.1364  0.0878
 4628TIP3    H135299   0.814   2.718  12.646  0.5393  0.0208  0.3489
 4628TIP3    H235300   0.900   2.808  12.561  0.3461 -0.1950 -0.0790
 4629TIP3   OH235301   2.500   2.578   4.563  0.1671 -0.0787  0.4908
 4629TIP3    H135302   2.479   2.528   4.642  0.6671  0.2900  0.8618
 4629TIP3    H235303   2.532   2.662   4.596  1.5554 -0.3681 -0.0641
 4630TIP3   OH235304   2.164   5.632  14.438 -0.0555 -0.0566  0.3681
 4630TIP3    H135305   2.208   5.692  14.378  0.5561 -0.1791  0.6935
 4630TIP3    H235306   2.198   5.654  14.524 -1.2258  0.3890  0.7375
 4631TIP3   OH235307   6.707   5.904  11.792  0.2568 -0.3567  0.0902
 4631TIP3    H135308   6.776   5.864  11.845 -0.6518  0.5846  2.0936
 4631TIP3    H235309   6.711   5.997  11.811 -1.2662 -0.2181 -0.0945
 4632TIP3   OH235310   4.822   0.348   4.542 -0.3655  0.2469 -0.5469
 4632TIP3    H135311   4.786   0.373   4.457 -0.6451 -2.4007 -1.2905
 4632TIP3    H235312   4.745   0.329   4.596 -0.2246 -2.0120 -1.0429
 4633TIP3   OH235313   3.472   3.536  11.667  0.0429  0.3908  0.1183
 4633TIP3    H135314   3.426   3.608  11.710  2.3811  0.9984  1.8026
 4633TIP3    H235315   3.555   3.574  11.638  0.1531 -0.9829 -1.5533
 4634TIP3   OH235316   3.216   5.656  13.788 -0.1877  0.4603  0.0505
 4634TIP3    H135317   3.224   5.720  13.860  1.8343 -0.7087  0.9296
 4634TIP3    H235318   3.305   5.643  13.757 -0.5960 -1.6309 -0.3701
 4635TIP3   OH235319   0.281   5.103  15.345  0.0917 -0.2330 -0.0627
 4635TIP3    H135320   0.281   5.110  15.441  1.3057 -1.2747  0.0464
 4635TIP3    H235321   0.189   5.112  15.320 -0.6266 -2.4648  1.4417
 4636TIP3   OH235322   0.268   4.184  12.025 -0.0123  0.1457 -0.0970
 4636TIP3    H135323   0.282   4.093  12.051 -0.6065 -0.0460 -0.4382
 4636TIP3    H235324   0.213   4.221  12.094  0.0928  0.2012 -0.0424
 4637TIP3   OH235325   3.691   3.110  11.865 -0.0991 -0.5522  0.2625
 4637TIP3    H135326   3.642   3.154  11.795  0.2657 -1.2294 -0.4402
 4637TIP3    H235327   3.736   3.181  11.911 -0.7607 -0.0434  0.1483
 4638TIP3   OH235328   6.327   1.932   3.369 -0.3357  0.2427  0.0572
 4638TIP3    H135329   6.302   1.842   3.387  2.7012 -0.1660  3.2651
 4638TIP3    H235330   6.248   1.983   3.386 -1.4436 -1.5661  0.5972
 4639TIP3   OH235331   1.879   2.014   3.439  0.0105 -0.2256 -0.5781
 4639TIP3    H135332   1.945   1.982   3.500 -0.3527  0.5797  0.2616
 4639TIP3    H235333   1.928   2.064   3.373  0.2763  0.0528 -0.1713
 4640TIP3   OH235334   1.368   0.551  14.769 -0.0907  0.0751 -0.1645
 4640TIP3    H135335   1.345   0.499  14.693 -0.9918  1.3364 -0.7915
 4640TIP3    H235336   1.320   0.512  14.841 -2.0919  0.9779 -0.9332
 4641TIP3   OH235337   6.633   4.103   5.080 -0.2117 -0.0883  0.2496
 4641TIP3    H135338   6.714   4.151   5.098 -0.1393 -0.3857  0.7578
 4641TIP3    H235339   6.635   4.086   4.986  0.9237 -1.1546  0.4320
 4642TIP3   OH235340   1.033   5.690  15.311  0.2005 -0.8278 -0.3699
 4642TIP3    H135341   0.986   5.607  15.308  1.2014 -1.5307  1.6217
 4642TIP3    H235342   1.123   5.667  15.287 -0.0905  0.2501 -2.7354
 4643TIP3   OH235343   4.980   2.877   1.573  0.8301  0.0753  0.0077
 4643TIP3    H135344   4.965   2.932   1.650  0.8061  0.7854 -0.4974
 4643TIP3    H235345   5.034   2.931   1.515  0.9584 -0.5031 -0.4179
 4644TIP3   OH235346   4.992   0.571  11.188 -0.3604  0.3487 -0.0463
 4644TIP3    H135347   4.998   0.666  11.198  0.3350  0.3052  0.0017
 4644TIP3    H235348   5.080   0.545  11.158 -0.3613 -0.3488  0.5369
 4645TIP3   OH235349   2.043   0.904  16.911 -0.2713  0.1935 -0.2293
 4645TIP3    H135350   2.115   0.933  16.856  0.2680 -0.0992  0.3125
 4645TIP3    H235351   2.084   0.846  16.976 -0.9182  0.3915  0.3650
 4646TIP3   OH235352   0.269   5.279  15.698  0.2221  0.5616 -0.9488
 4646TIP3    H135353   0.231   5.230  15.771 -0.8882  1.2054 -1.0643
 4646TIP3    H235354   0.363   5.260  15.702  0.1526  0.4288  0.5091
 4647TIP3   OH235355   0.062   0.274   1.699  0.2896  0.2785 -0.4401
 4647TIP3    H135356   0.076   0.330   1.775  0.2312 -0.9780  0.5281
 4647TIP3    H235357  -0.001   0.322   1.645  0.0606  1.0267  0.4708
 4648TIP3   OH235358   2.693   2.588   3.707 -0.1115 -0.0153 -0.5660
 4648TIP3    H135359   2.739   2.579   3.790  2.4946 -1.5227 -2.0380
 4648TIP3    H235360   2.601   2.574   3.728  0.2725  1.0913  2.2398
 4649TIP3   OH235361   1.157   5.902   5.082  0.7836 -0.2595 -0.5695
 4649TIP3    H135362   1.139   5.945   5.165 -2.0294  0.7555 -1.5703
 4649TIP3    H235363   1.196   5.970   5.027  0.5328 -0.2721 -0.7656
 4650TIP3   OH235364   2.729   3.479   4.603  0.2686  0.3418  0.0032
 4650TIP3    H135365   2.785   3.438   4.669 -0.1057  0.9437  0.7182
 4650TIP3    H235366   2.756   3.440   4.520  1.9737  0.8446  0.2843
 4651TIP3   OH235367   3.055   3.143  12.535 -0.3242 -0.2739 -0.1301
 4651TIP3    H135368   3.051   3.061  12.584  1.0174  0.1597  0.7497
 4651TIP3    H235369   3.148   3.166  12.534 -0.6835  1.2905 -0.2653
 4652TIP3   OH235370   0.692   6.031  15.668  0.0184 -0.3666 -0.8399
 4652TIP3    H135371   0.751   6.035  15.592  0.2480  0.1621 -0.6369
 4652TIP3    H235372   0.724   5.958  15.720  0.1184 -0.4671 -1.0403
 4653TIP3   OH235373   3.902   6.671   5.185  0.1338  0.4677  0.3912
 4653TIP3    H135374   3.935   6.610   5.252 -1.8818  0.1105  1.1403
 4653TIP3    H235375   3.833   6.720   5.230 -2.0609 -0.5359 -1.6626
 4654TIP3   OH235376   6.707   4.016   4.524 -0.1774 -0.8611 -0.3561
 4654TIP3    H135377   6.703   4.095   4.471 -1.2095 -1.0908 -0.6314
 4654TIP3    H235378   6.643   3.957   4.485 -0.8485 -1.1081  1.0281
 4655TIP3   OH235379   2.655   6.249   4.351 -0.1663  0.1490 -0.1911
 4655TIP3    H135380   2.733   6.252   4.296 -0.4640 -1.2168 -0.7278
 4655TIP3    H235381   2.626   6.340   4.357  1.9272  0.8137  0.7393
 4656TIP3   OH235382   1.788   0.042   4.523  0.0333  0.4624 -0.0519
 4656TIP3    H135383   1.881   0.027   4.541 -0.1906  0.0422  0.7858
 4656TIP3    H235384   1.784   0.133   4.494  0.7608  0.3548 -0.5403
 4657TIP3   OH235385   1.885   5.893  15.258  0.1288 -0.0130  0.6518
 4657TIP3    H135386   1.852   5.844  15.334 -0.5480 -0.2665  0.2039
 4657TIP3    H235387   1.827   5.868  15.186  1.7232 -1.0147 -0.3494
 4658TIP3   OH235388   6.019   3.943  14.826 -0.0162 -0.6696 -0.0991
 4658TIP3    H135389   5.932   3.908  14.846  0.1603 -0.7998  0.4605
 4658TIP3    H235390   6.052   3.973  14.910  0.1258  0.1988 -0.4533
 4659TIP3   OH235391   0.229   5.434  15.996  0.7846  0.1924  0.6124
 4659TIP3    H135392   0.269   5.475  15.919 -0.9184  1.4569  0.3515
 4659TIP3    H235393   0.218   5.342  15.972  2.1026  0.1373  0.1373
 4660TIP3   OH235394   5.416   4.826   2.886  0.0949 -0.7124  0.5848
 4660TIP3    H135395   5.423   4.819   2.981 -2.2758 -0.3176  0.8435
 4660TIP3    H235396   5.364   4.750   2.859 -0.2033 -0.2291 -0.2506
 4661TIP3   OH235397   4.510   4.642   1.471  0.1620 -0.5103 -0.0746
 4661TIP3    H135398   4.503   4.650   1.376  0.2034  0.3241 -0.0137
 4661TIP3    H235399   4.574   4.708   1.496 -0.6438  0.0267  0.6397
 4662TIP3   OH235400   1.623   2.132   4.911 -0.4229  0.4141 -0.5274
 4662TIP3    H135401   1.592   2.179   4.989 -0.8494 -1.5682  0.5688
 4662TIP3    H235402   1.718   2.133   4.918 -0.3680  1.7939 -0.9962
 4663TIP3   OH235403   2.095   4.831   0.113 -0.2082  0.7867  0.6823
 4663TIP3    H135404   2.186   4.805   0.103 -0.5006 -0.7658  1.6514
 4663TIP3    H235405   2.079   4.828   0.208 -1.1681  1.3806  0.5550
 4664TIP3   OH235406   0.822   5.119  12.114  0.1019 -0.0772 -0.0250
 4664TIP3    H135407   0.910   5.138  12.145 -0.1650 -0.2136  0.8322
 4664TIP3    H235408   0.794   5.201  12.072 -0.2801  0.8280  1.8789
 4665TIP3   OH235409   1.973   6.069   1.680 -0.5419  0.4784  0.5264
 4665TIP3    H135410   2.008   6.152   1.649  0.8814 -0.6433 -1.0535
 4665TIP3    H235411   2.042   6.031   1.735 -1.1200  0.2624  1.1251
 4666TIP3   OH235412   3.407   1.611  14.591  0.1492  0.1779  0.4252
 4666TIP3    H135413   3.320   1.583  14.564 -0.9537  3.6495 -0.0997
 4666TIP3    H235414   3.456   1.621  14.510  0.0809  0.9966  0.4764
 4667TIP3   OH235415   6.037   0.723   3.561  0.6821  0.4840  0.0080
 4667TIP3    H135416   5.984   0.665   3.616  0.8880  1.1795  0.9702
 4667TIP3    H235417   5.975   0.790   3.531  0.4918 -0.0986 -0.9182
 4668TIP3   OH235418   1.353   1.991   2.282 -0.4415 -0.5518 -0.5344
 4668TIP3    H135419   1.330   2.061   2.344 -0.2151 -0.2211 -0.8242
 4668TIP3    H235420   1.317   2.020   2.198 -0.2210 -0.7190 -0.6859
 4669TIP3   OH235421   5.714   4.465  16.961 -0.3212  0.2256 -0.3307
 4669TIP3    H135422   5.791   4.487  16.908  0.0208  0.5447  0.2751
 4669TIP3    H235423   5.674   4.391  16.917 -0.5404  1.0314 -1.5157
 4670TIP3   OH235424   3.164   1.295  11.343  0.9567 -0.1528  0.1371
 4670TIP3    H135425   3.238   1.236  11.356  0.9775 -0.2322 -0.3149
 4670TIP3    H235426   3.089   1.247  11.377  1.0649 -0.1928  0.3237
 4671TIP3   OH235427   1.186   2.406  13.510 -0.3842 -0.2463 -0.4642
 4671TIP3    H135428   1.228   2.333  13.556 -0.7344 -1.4202 -1.9463
 4671TIP3    H235429   1.216   2.398  13.420 -0.9824  1.0487 -0.7979
 4672TIP3   OH235430   2.568   1.260  15.190  0.2287 -0.4992 -0.4749
 4672TIP3    H135431   2.638   1.301  15.140  0.4953  0.0944  0.3702
 4672TIP3    H235432   2.545   1.182  15.139  0.1993  0.2964 -1.7401
 4673TIP3   OH235433   1.535   5.117   1.507 -0.6883 -0.4085 -0.3349
 4673TIP3    H135434   1.473   5.044   1.518 -0.8359 -0.2131  0.1758
 4673TIP3    H235435   1.542   5.156   1.594  0.9428 -1.0425 -0.1513
 4674TIP3   OH235436   3.871   3.942   4.908  0.2782  0.2202 -0.0085
 4674TIP3    H135437   3.966   3.954   4.900  0.3193  0.8786  1.2401
 4674TIP3    H235438   3.836   3.976   4.826  1.2801 -2.9203 -1.9391
 4675TIP3   OH235439   3.791   2.810   3.792 -0.3203  0.3581 -0.3318
 4675TIP3    H135440   3.843   2.874   3.841 -0.2242  0.0333 -0.0002
 4675TIP3    H235441   3.850   2.737   3.777 -0.6651 -0.0035  0.0236
 4676TIP3   OH235442   0.872   1.103   2.086  0.3819  0.4138 -0.3327
 4676TIP3    H135443   0.796   1.162   2.089 -0.9615 -0.9190 -3.3991
 4676TIP3    H235444   0.858   1.042   2.159 -0.3699  1.4422  0.4095
 4677TIP3   OH235445   4.435   0.791   0.583  0.1116 -1.1128 -0.1573
 4677TIP3    H135446   4.347   0.819   0.609  0.2503 -2.3681  1.9744
 4677TIP3    H235447   4.475   0.761   0.665  2.1091 -1.6918 -1.2769
 4678TIP3   OH235448   2.331   3.639   1.257 -0.4781 -0.1144 -0.3417
 4678TIP3    H135449   2.239   3.619   1.273 -0.7317  0.9407 -0.3686
 4678TIP3    H235450   2.344   3.725   1.297 -0.0659  0.7191 -2.1501
 4679TIP3   OH235451   6.486   3.237   3.280 -0.2210  0.5106  0.0167
 4679TIP3    H135452   6.435   3.197   3.209 -0.5192  2.1242 -0.7202
 4679TIP3    H235453   6.430   3.230   3.357 -0.3772 -0.2319 -0.1608
 4680TIP3   OH235454   2.330   3.643  14.814 -0.3350  0.1139 -0.6357
 4680TIP3    H135455   2.415   3.688  14.810 -0.6990  0.8398 -0.2013
 4680TIP3    H235456   2.351   3.552  14.790  0.4734  0.4037 -1.0882
 4681TIP3   OH235457   1.388   3.369   6.595  0.2586  0.7129  0.0465
 4681TIP3    H135458   1.319   3.402   6.537  0.3203  0.4758 -0.1623
 4681TIP3    H235459   1.353   3.287   6.629  0.5726  0.4315 -0.3104
 4682TIP3   OH235460   0.130   5.274   5.205 -0.4395  0.9150 -0.3357
 4682TIP3    H135461   0.060   5.325   5.247 -0.2141 -1.2294  3.0530
 4682TIP3    H235462   0.084   5.220   5.140 -1.5822  1.1390  0.2591
 4683TIP3   OH235463   4.793   3.181   3.076 -0.1947 -0.2654  0.5645
 4683TIP3    H135464   4.801   3.214   3.165  0.1735  3.1923 -0.6098
 4683TIP3    H235465   4.709   3.213   3.045  0.2964 -0.1665 -0.7733
 4684TIP3   OH235466   1.111   3.663   2.868 -0.3429  0.4067 -0.2786
 4684TIP3    H135467   1.138   3.598   2.803  0.4771  1.3876 -0.9464
 4684TIP3    H235468   1.107   3.615   2.951  0.2412 -0.4839 -0.7593
 4685TIP3   OH235469   3.126   1.666  14.726  0.1963 -0.3761  0.1090
 4685TIP3    H135470   3.136   1.572  14.716  1.9229 -0.3075  0.6919
 4685TIP3    H235471   3.091   1.678  14.814  0.3307 -0.4753  0.1762
 4686TIP3   OH235472   3.821   0.827   2.438  0.0486 -0.0336 -0.2387
 4686TIP3    H135473   3.734   0.793   2.457  0.2271 -0.0411  0.5764
 4686TIP3    H235474   3.813   0.922   2.453 -0.0648  0.0981 -1.0906
 4687TIP3   OH235475   4.115   3.484  13.895  0.5997  0.3559 -0.0600
 4687TIP3    H135476   4.210   3.474  13.888  0.6071 -0.0040  0.4728
 4687TIP3    H235477   4.088   3.522  13.812  1.4363  2.2831  0.5004
 4688TIP3   OH235478   2.034   2.205  10.973  0.0027 -0.3009  0.2590
 4688TIP3    H135479   2.117   2.204  11.021  0.0483  0.5266  0.2006
 4688TIP3    H235480   2.057   2.174  10.885 -0.0035 -1.4005  0.6254
 4689TIP3   OH235481   5.740   6.442   3.760  0.0324 -0.0597 -0.1507
 4689TIP3    H135482   5.752   6.356   3.721 -1.0780 -0.2691 -0.0651
 4689TIP3    H235483   5.802   6.498   3.713  1.4528 -1.0772  0.4437
 4690TIP3   OH235484   0.564   0.430   5.467 -0.5772 -0.1957 -0.5742
 4690TIP3    H135485   0.622   0.407   5.395 -2.2083  0.6715 -2.2470
 4690TIP3    H235486   0.484   0.380   5.450 -0.4865 -1.1941  1.5528
 4691TIP3   OH235487   5.503   4.807  11.200  0.0417 -0.1069  0.0469
 4691TIP3    H135488   5.478   4.895  11.172  1.2263  0.6146  1.1203
 4691TIP3    H235489   5.434   4.751  11.166 -0.8897  1.2675 -0.4478
 4692TIP3   OH235490   5.462   2.627  16.107  0.2950  0.6714  0.5878
 4692TIP3    H135491   5.514   2.549  16.127 -0.2573 -0.0638 -0.7142
 4692TIP3    H235492   5.393   2.595  16.048  0.6132  2.2998 -0.7434
 4693TIP3   OH235493   5.521   3.102   3.574  0.2627  0.2800  0.6978
 4693TIP3    H135494   5.426   3.116   3.568  0.0456 -0.9654  0.9698
 4693TIP3    H235495   5.558   3.190   3.567 -0.8174  0.6391 -1.0483
 4694TIP3   OH235496   5.480   6.615   3.787 -0.7715  0.1361 -0.0807
 4694TIP3    H135497   5.563   6.568   3.784 -1.0893 -0.4203 -2.0930
 4694TIP3    H235498   5.473   6.655   3.700 -1.5690  2.0533  0.8191
 4695TIP3   OH235499   4.386   5.383  14.458 -0.2012 -0.0832  0.3879
 4695TIP3    H135500   4.373   5.476  14.476  0.7167  0.0266  0.5342
 4695TIP3    H235501   4.329   5.338  14.522  0.4840  0.3637  1.3433
 4696TIP3   OH235502   5.487   0.845  16.606  0.7642  0.2514  0.2230
 4696TIP3    H135503   5.558   0.838  16.542 -2.4304  0.3162 -3.7539
 4696TIP3    H235504   5.444   0.760  16.602  0.2222  0.4048  2.0949
 4697TIP3   OH235505   0.314   5.382   3.059 -0.2158 -0.2907 -0.2904
 4697TIP3    H135506   0.257   5.457   3.042  1.9553  1.8164  1.0240
 4697TIP3    H235507   0.355   5.363   2.975 -0.9589 -0.1764 -0.6873
 4698TIP3   OH235508   6.289   3.162   2.501  0.3171 -0.0444 -0.2431
 4698TIP3    H135509   6.334   3.079   2.514  1.1085  0.0931 -1.8441
 4698TIP3    H235510   6.308   3.186   2.410 -2.7808  0.1382 -0.9622
 4699TIP3   OH235511   4.010   6.128  10.510  0.2631 -0.4243  0.4116
 4699TIP3    H135512   3.926   6.091  10.536 -1.0938  3.1283  1.7504
 4699TIP3    H235513   4.065   6.120  10.588 -0.2247  0.7826  0.8988
 4700TIP3   OH235514   0.616   0.061  14.520  0.3217 -0.5044 -0.8690
 4700TIP3    H135515   0.686   0.113  14.480 -0.2755 -0.8129 -2.3755
 4700TIP3    H235516   0.612  -0.019  14.467 -0.7998 -0.7257 -0.4733
 4701TIP3   OH235517   5.313   4.832  11.516 -0.0261 -0.1546 -0.1426
 4701TIP3    H135518   5.253   4.777  11.566  1.6279  0.3854  2.6546
 4701TIP3    H235519   5.303   4.919  11.554 -0.7118  0.9809 -2.7340
 4702TIP3   OH235520   4.053   1.961  10.848  0.5225  0.1804  0.2977
 4702TIP3    H135521   4.007   2.022  10.791 -1.4259 -1.6859 -0.2914
 4702TIP3    H235522   3.983   1.923  10.903  1.5069 -1.9047  0.2216
 4703TIP3   OH235523   1.023   1.415   1.281 -0.1407 -0.8638  0.6203
 4703TIP3    H135524   1.045   1.481   1.215  0.7148 -2.8630 -1.1854
 4703TIP3    H235525   0.936   1.441   1.312 -1.2442 -0.6041 -2.3603
 4704TIP3   OH235526   0.057   4.303   3.365  0.2610  0.6236 -0.4878
 4704TIP3    H135527   0.075   4.323   3.274  0.2334  1.2090 -0.3674
 4704TIP3    H235528  -0.032   4.269   3.365 -0.6739  2.8713 -0.3970
 4705TIP3   OH235529   6.294   5.030  15.409  0.2706 -0.6101 -0.3841
 4705TIP3    H135530   6.367   4.972  15.431  1.1926 -0.4689 -2.7329
 4705TIP3    H235531   6.292   5.095  15.479  0.6598 -2.1408  1.1156
 4706TIP3   OH235532   4.758   0.729   2.559 -0.3612 -0.2200  0.3199
 4706TIP3    H135533   4.684   0.701   2.505 -0.4991  0.1069  0.3391
 4706TIP3    H235534   4.779   0.817   2.527  0.7900 -0.7750 -0.5088
 4707TIP3   OH235535   6.433   4.577  10.992  0.2596  0.2110 -0.1762
 4707TIP3    H135536   6.402   4.575  10.901 -2.1974 -1.3178  0.5953
 4707TIP3    H235537   6.392   4.655  11.029  3.1298  2.2040 -0.8521
 4708TIP3   OH235538   0.722   3.847   6.019 -0.0193 -0.0763  0.3007
 4708TIP3    H135539   0.633   3.870   5.991  0.0675 -0.7051 -0.5330
 4708TIP3    H235540   0.778   3.901   5.963  0.1450 -0.9121 -0.3599
 4709TIP3   OH235541   6.771   6.280  15.300 -0.2399 -0.8654  0.0733
 4709TIP3    H135542   6.709   6.348  15.274 -0.1816 -1.0827 -0.6607
 4709TIP3    H235543   6.718   6.200  15.305  0.0372 -1.1307 -0.9512
 4710TIP3   OH235544   3.855   0.390  11.540  0.1976 -0.1434 -0.5543
 4710TIP3    H135545   3.938   0.344  11.529  1.7649  1.5279  2.6193
 4710TIP3    H235546   3.880   0.482  11.551 -1.9781  0.3423  1.1392
 4711TIP3   OH235547   0.693   3.369  11.366  0.1555 -0.4479 -0.2133
 4711TIP3    H135548   0.771   3.368  11.312 -0.1702  1.0145 -0.7579
 4711TIP3    H235549   0.711   3.434  11.433  0.5132 -2.1718  1.4320
 4712TIP3   OH235550   5.037   2.050   3.626  0.5731  0.4670 -0.3762
 4712TIP3    H135551   5.059   2.132   3.582 -1.1351  1.4924  0.5754
 4712TIP3    H235552   5.056   2.068   3.719 -0.1440 -0.0978 -0.1183
 4713TIP3   OH235553   1.286   4.329  11.513  0.4907  0.5645  0.2533
 4713TIP3    H135554   1.275   4.242  11.475 -3.4432  1.5304 -1.2675
 4713TIP3    H235555   1.326   4.313  11.599  0.0215 -2.7115 -0.0265
 4714TIP3   OH235556   5.326   4.965   0.220  0.1502 -0.2046  0.0266
 4714TIP3    H135557   5.294   4.887   0.266 -1.2224  0.1304 -0.2963
 4714TIP3    H235558   5.366   5.019   0.288 -1.5506  0.1373  0.8079
 4715TIP3   OH235559   0.628   2.583   4.983  0.2488  0.1535  0.1770
 4715TIP3    H135560   0.573   2.659   5.002 -0.2682 -0.6941  2.4454
 4715TIP3    H235561   0.594   2.548   4.901 -1.0301  1.0271  0.3153
 4716TIP3   OH235562   2.656   3.521  15.080 -0.1271  0.4382 -0.1633
 4716TIP3    H135563   2.565   3.537  15.055  0.5792  2.1093 -1.8552
 4716TIP3    H235564   2.662   3.426  15.090 -2.0039  0.2894 -0.1347
 4717TIP3   OH235565   0.804   4.695  15.491 -0.2587 -0.1413 -0.2835
 4717TIP3    H135566   0.847   4.674  15.409 -1.1646  0.0453 -0.8272
 4717TIP3    H235567   0.873   4.690  15.557  0.7662  0.9255 -1.2236
 4718TIP3   OH235568   6.732   2.042   2.199 -0.1204  0.1498  0.3432
 4718TIP3    H135569   6.749   1.948   2.205 -0.7745  0.1074  1.8178
 4718TIP3    H235570   6.673   2.061   2.272  1.4998  2.0364  1.2574
 4719TIP3   OH235571   5.074   6.044   0.072  0.0587 -0.3596 -1.0372
 4719TIP3    H135572   5.016   6.076   0.141  0.7508  1.3608 -1.1799
 4719TIP3    H235573   5.087   5.952   0.091 -1.6044 -0.4545 -0.2158
 4720TIP3   OH235574   4.186   6.340  10.375  0.2927 -0.3025 -0.0859
 4720TIP3    H135575   4.141   6.391  10.307  1.1807  1.2718  0.4540
 4720TIP3    H235576   4.125   6.269  10.397 -1.0702  0.6294 -0.7574
 4721TIP3   OH235577   2.379   1.678  15.619 -0.5342 -0.1500  0.1991
 4721TIP3    H135578   2.334   1.600  15.588 -0.5628 -0.5899  1.2910
 4721TIP3    H235579   2.315   1.749  15.608 -1.1374 -0.5887  0.7752
 4722TIP3   OH235580   1.230   6.006  14.932  0.3574 -0.2459  0.0455
 4722TIP3    H135581   1.267   6.068  14.995 -0.7298  0.2761  0.1910
 4722TIP3    H235582   1.164   5.957  14.983 -1.2529  0.8547 -0.8831
 4723TIP3   OH235583   3.413   1.759  15.279  0.5725 -0.8499 -0.0136
 4723TIP3    H135584   3.432   1.852  15.266 -1.2655 -0.2932  0.8587
 4723TIP3    H235585   3.461   1.736  15.359 -0.1494 -0.2437  0.6005
 4724TIP3   OH235586   0.799   2.105   6.446  0.0756 -0.1813 -0.1415
 4724TIP3    H135587   0.813   2.063   6.531 -0.1663  0.6748  0.3265
 4724TIP3    H235588   0.815   2.198   6.461  1.1482 -0.1576 -1.2965
 4725TIP3   OH235589   3.251   2.026   5.444 -0.4601 -0.7481 -0.1686
 4725TIP3    H135590   3.304   1.956   5.484  1.1748  0.4776 -0.0810
 4725TIP3    H235591   3.244   2.093   5.512 -2.8012 -1.1675  0.0638
 4726TIP3   OH235592   6.774   3.313  14.818  0.3957 -0.1147  0.3324
 4726TIP3    H135593   6.824   3.289  14.740  1.1343 -0.9854  1.0505
 4726TIP3    H235594   6.831   3.290  14.891  0.3163  2.0161  1.1255
 4727TIP3   OH235595   5.286   2.454  15.974  0.4141  0.0356 -0.4177
 4727TIP3    H135596   5.232   2.397  16.028 -0.3580 -0.4530 -1.6486
 4727TIP3    H235597   5.237   2.463  15.892 -0.2546  3.6780  0.2013
 4728TIP3   OH235598   5.038   3.341  12.226  0.2329 -0.5080  0.3406
 4728TIP3    H135599   5.093   3.361  12.151 -0.5837 -1.0990 -0.4392
 4728TIP3    H235600   5.069   3.400  12.295  0.6812  0.3978 -0.6004
 4729TIP3   OH235601   0.250   0.210  12.229 -0.0673  0.1968  0.8390
 4729TIP3    H135602   0.300   0.208  12.311  1.3252 -0.8250  0.0231
 4729TIP3    H235603   0.195   0.132  12.232 -0.8320  0.7505  1.2757
 4730TIP3   OH235604   0.586   0.443  15.654 -0.1119 -0.4279  0.2033
 4730TIP3    H135605   0.614   0.392  15.730  0.8949 -0.0039  0.1394
 4730TIP3    H235606   0.662   0.443  15.596 -1.2036 -1.6024 -1.2932
 4731TIP3   OH235607   1.269   5.325   4.911 -0.2225  0.3038  0.1563
 4731TIP3    H135608   1.245   5.291   4.825  0.4586  0.1877  0.0068
 4731TIP3    H235609   1.189   5.367   4.943 -0.8739 -0.7833  0.0319
 4732TIP3   OH235610   0.321   4.161   1.744  0.1795 -0.1270 -0.4442
 4732TIP3    H135611   0.294   4.246   1.777 -1.3062 -0.7236 -0.0374
 4732TIP3    H235612   0.415   4.170   1.726  0.0513  1.5626 -0.3770
 4733TIP3   OH235613   0.719   4.515  13.807 -0.1521 -0.4214  0.0632
 4733TIP3    H135614   0.677   4.456  13.870  0.3486  0.8200  1.6150
 4733TIP3    H235615   0.783   4.564  13.859  0.0676  0.8733 -1.3685
 4734TIP3   OH235616   4.627   1.229   4.762  0.4726  0.4209  0.2926
 4734TIP3    H135617   4.613   1.316   4.800  0.5737  0.3705  0.4436
 4734TIP3    H235618   4.549   1.179   4.789  0.9275  0.1401  1.1387
 4735TIP3   OH235619   5.756   2.831  11.230 -0.6749  0.0066  0.2198
 4735TIP3    H135620   5.782   2.744  11.197  0.6590  0.3994  0.1747
 4735TIP3    H235621   5.745   2.884  11.151  1.2151  0.5893  0.2965
 4736TIP3   OH235622   6.156   0.714   3.326 -0.0138 -0.1859  0.1395
 4736TIP3    H135623   6.194   0.639   3.280 -0.1836 -0.1537 -0.0533
 4736TIP3    H235624   6.094   0.675   3.388 -0.8635 -0.1625 -0.6670
 4737TIP3   OH235625   1.449   6.329   1.239 -0.7018  0.4384  0.3757
 4737TIP3    H135626   1.373   6.324   1.297 -0.7233 -0.1120  0.3050
 4737TIP3    H235627   1.521   6.358   1.295 -0.9247  0.8088  0.4764
 4738TIP3   OH235628   0.897   2.591   2.705  0.0333 -0.1126  0.3926
 4738TIP3    H135629   0.867   2.505   2.677  2.1014 -1.1789  1.2749
 4738TIP3    H235630   0.934   2.631   2.627  0.6526 -0.7518  0.3546
 4739TIP3   OH235631   0.678   4.664  13.569 -0.1022 -0.2553  0.4486
 4739TIP3    H135632   0.713   4.752  13.584  5.5471 -1.7578 -1.4299
 4739TIP3    H235633   0.714   4.612  13.641 -0.1166 -1.6345 -0.5044
 4740TIP3   OH235634   5.513   3.560   1.940 -0.0455 -0.4602  0.7044
 4740TIP3    H135635   5.498   3.469   1.965 -1.1402 -0.8271 -1.1053
 4740TIP3    H235636   5.526   3.557   1.845 -0.9553  1.3562  0.4825
 4741TIP3   OH235637   4.398   3.276   2.087 -0.8479 -0.0737 -0.1897
 4741TIP3    H135638   4.439   3.267   2.001 -2.6899 -2.2497 -0.9527
 4741TIP3    H235639   4.458   3.230   2.146  2.0417  4.0067  0.4839
 4742TIP3   OH235640   5.785   4.434   4.157 -0.2827 -0.4485 -0.4722
 4742TIP3    H135641   5.793   4.528   4.136 -0.1624 -0.3377  0.0577
 4742TIP3    H235642   5.729   4.399   4.088 -0.0170 -0.0582 -0.8921
 4743TIP3   OH235643   6.182   6.753   1.031  0.3681  0.4356  0.6575
 4743TIP3    H135644   6.264   6.708   1.012  0.2703  0.5680 -0.1152
 4743TIP3    H235645   6.147   6.709   1.108  0.6793 -0.2661  0.4039
 4744TIP3   OH235646   4.979   4.081   0.552  0.2419  0.0910  0.1623
 4744TIP3    H135647   5.072   4.101   0.569 -0.1641  0.6402  2.0006
 4744TIP3    H235648   4.962   4.004   0.605 -0.5570  0.4873  0.4910
 4745TIP3   OH235649   5.212   1.570   0.179 -0.4102  0.2360 -0.0122
 4745TIP3    H135650   5.288   1.561   0.237  0.5474  1.0766 -1.1038
 4745TIP3    H235651   5.243   1.537   0.095 -1.1046  1.0268 -0.5876
 4746TIP3   OH235652   4.323   4.937   3.111  0.5478 -0.1369 -0.3836
 4746TIP3    H135653   4.346   4.847   3.134  0.4807 -0.7168 -2.4038
 4746TIP3    H235654   4.302   4.934   3.018 -5.4053  0.7664  0.5672
 4747TIP3   OH235655   4.114   5.626  13.986 -0.8584 -0.2586  0.1964
 4747TIP3    H135656   4.044   5.615  13.921 -0.9544 -1.0044  0.4122
 4747TIP3    H235657   4.115   5.719  14.005 -1.6385 -0.2050  0.0158
 4748TIP3   OH235658   6.704   6.013   3.058  0.2313 -0.4899  0.2477
 4748TIP3    H135659   6.734   5.972   2.977 -1.0597 -2.4840  0.7049
 4748TIP3    H235660   6.782   6.018   3.112  0.7519 -0.8330 -0.4497
 4749TIP3   OH235661   1.611   0.816  16.956 -0.8291  0.4674 -0.5230
 4749TIP3    H135662   1.598   0.892  16.899  2.6605  2.0060  0.5023
 4749TIP3    H235663   1.647   0.852  17.037  2.6511 -2.2859 -0.6112
 4750TIP3   OH235664   1.823   3.467  16.067  0.0116  0.3463 -0.6085
 4750TIP3    H135665   1.868   3.494  16.147  1.0654  1.2098 -1.4561
 4750TIP3    H235666   1.894   3.442  16.007 -0.7538 -0.2408 -1.2933
 4751TIP3   OH235667   1.712   1.126   4.783  0.2975  0.6627  0.0502
 4751TIP3    H135668   1.620   1.145   4.800  0.2446  0.3633  0.1081
 4751TIP3    H235669   1.750   1.112   4.870  0.1691 -0.2344 -0.0286
 4752TIP3   OH235670   2.391   5.110  16.528 -0.0388 -0.1768 -0.0683
 4752TIP3    H135671   2.332   5.184  16.546 -0.5306 -0.9423  1.7404
 4752TIP3    H235672   2.461   5.147  16.475 -1.6165  0.9865 -1.4606
 4753TIP3   OH235673   0.574   1.472   4.599 -0.2487 -0.2155  0.0657
 4753TIP3    H135674   0.487   1.457   4.636  0.3282  0.0318  1.6078
 4753TIP3    H235675   0.600   1.388   4.561 -0.0749 -1.0894  2.0082
 4754TIP3   OH235676   2.301   5.218   4.223  0.5709 -0.3451 -0.8361
 4754TIP3    H135677   2.376   5.278   4.228  1.6267 -1.6788 -0.1749
 4754TIP3    H235678   2.236   5.266   4.171  1.7895  0.9243 -1.2587
 4755TIP3   OH235679   4.528   0.386   0.902  0.3466  0.2664 -0.7319
 4755TIP3    H135680   4.516   0.465   0.955 -1.1566 -0.4458  0.0745
 4755TIP3    H235681   4.458   0.391   0.836 -1.9068 -1.8694  1.3016
 4756TIP3   OH235682   2.248   2.268  11.798 -0.4274  1.0627  0.2696
 4756TIP3    H135683   2.260   2.348  11.848 -0.6604  1.4221 -0.2477
 4756TIP3    H235684   2.253   2.198  11.864  2.1079  1.3099  0.4427
 4757TIP3   OH235685   1.850   1.163  14.979 -0.9209  0.5186 -0.4193
 4757TIP3    H135686   1.768   1.120  15.004 -0.5934  0.2453  0.1975
 4757TIP3    H235687   1.899   1.171  15.060 -0.4524  0.9442 -0.7376
 4758TIP3   OH235688   0.652   6.011   0.827  0.6089  0.5708  0.1352
 4758TIP3    H135689   0.582   6.055   0.780  0.6089  1.1440  0.6602
 4758TIP3    H235690   0.644   6.042   0.917  1.2010  0.2266  0.3129
 4759TIP3   OH235691   6.058   2.379  14.939  0.2195 -0.1638  0.1184
 4759TIP3    H135692   6.114   2.410  15.010 -1.0752  0.6490  0.8422
 4759TIP3    H235693   6.083   2.433  14.864  1.0400 -0.4593  0.1750
 4760TIP3   OH235694   6.396   3.307  14.818  0.6943 -0.1675 -0.4517
 4760TIP3    H135695   6.352   3.227  14.791  1.1170 -0.4307 -0.3584
 4760TIP3    H235696   6.469   3.316  14.757  1.1224 -0.2836  0.0445
 4761TIP3   OH235697   0.224   5.739   3.685 -0.2316  0.0538 -0.1901
 4761TIP3    H135698   0.300   5.697   3.725  0.0440  0.5121 -0.2267
 4761TIP3    H235699   0.222   5.705   3.596  0.4355  0.6837 -0.4527
 4762TIP3   OH235700   5.176   4.423   4.956 -0.0992  0.8326  0.0258
 4762TIP3    H135701   5.126   4.402   5.034  1.8116 -0.8457  0.8914
 4762TIP3    H235702   5.182   4.340   4.908  3.0925  0.4945  0.7714
 4763TIP3   OH235703   6.386   1.786   1.413 -0.3456 -0.4076 -0.5789
 4763TIP3    H135704   6.323   1.774   1.342 -0.6353 -0.0371 -0.3944
 4763TIP3    H235705   6.357   1.726   1.481 -0.2641 -0.5252 -0.6490
 4764TIP3   OH235706   2.012   2.547   6.392  0.2549 -0.1351 -0.1689
 4764TIP3    H135707   2.076   2.618   6.387  0.9887 -0.6686  1.1211
 4764TIP3    H235708   2.018   2.504   6.307 -0.4024  1.4860 -1.0803
 4765TIP3   OH235709   1.494   3.470   0.220  0.0584  0.2792 -0.0785
 4765TIP3    H135710   1.442   3.415   0.280  1.1334 -1.0654 -0.3336
 4765TIP3    H235711   1.484   3.559   0.255 -0.1225 -0.3367  1.5392
 4766TIP3   OH235712   6.343   1.466  16.221 -0.0605  0.2600 -0.6100
 4766TIP3    H135713   6.413   1.481  16.284  0.3910  0.4464 -1.1506
 4766TIP3    H235714   6.372   1.512  16.142 -1.3909  1.4591 -0.4448
 4767TIP3   OH235715   4.909   3.514  11.306  0.6263  0.1669  0.5918
 4767TIP3    H135716   4.868   3.434  11.340 -0.3076  1.1664  1.9449
 4767TIP3    H235717   4.895   3.579  11.375  1.8949  1.3505 -0.2141
 4768TIP3   OH235718   0.192   1.920   1.116  0.3949  0.0182  0.4618
 4768TIP3    H135719   0.119   1.909   1.177 -1.8870  0.1542 -2.0318
 4768TIP3    H235720   0.254   1.851   1.140 -1.4907 -1.4408  1.4578
 4769TIP3   OH235721   5.775   1.202   4.820  0.2784  0.4483  0.1296
 4769TIP3    H135722   5.746   1.132   4.878 -0.9530  1.8534  1.2921
 4769TIP3    H235723   5.769   1.281   4.873  0.5051  1.6098 -1.4864
 4770TIP3   OH235724   4.543   2.243   1.490 -0.7085 -0.5045  0.1877
 4770TIP3    H135725   4.615   2.297   1.523 -0.3785 -0.2324 -0.9116
 4770TIP3    H235726   4.549   2.162   1.540 -0.4678  0.0195  1.0385
 4771TIP3   OH235727   3.855   4.422   3.518 -0.7361 -0.2041  0.0940
 4771TIP3    H135728   3.883   4.506   3.482  0.4427 -0.8301 -0.4958
 4771TIP3    H235729   3.770   4.406   3.476 -1.4912  1.1717  1.0251
 4772TIP3   OH235730   0.456   6.305  10.958 -0.1764  0.1842  0.0835
 4772TIP3    H135731   0.373   6.316  11.003 -0.1091 -1.6830  0.7528
 4772TIP3    H235732   0.463   6.211  10.943  2.6165  0.0320  1.6487
 4773TIP3   OH235733   1.519   6.080  14.715 -0.4710  0.4666  0.3724
 4773TIP3    H135734   1.477   6.080  14.629 -1.1780  1.0504  0.7133
 4773TIP3    H235735   1.548   5.989  14.727 -0.0436  0.4562 -0.6313
 4774TIP3   OH235736   3.123   1.214  16.728  0.5293 -0.2090 -0.0580
 4774TIP3    H135737   3.134   1.306  16.750  1.0875 -0.0753 -0.8308
 4774TIP3    H235738   3.096   1.172  16.809  2.2610  0.2806  0.8252
 4775TIP3   OH235739   5.188   5.800  17.025  0.1575  0.2406 -0.4200
 4775TIP3    H135740   5.113   5.857  17.044  0.7376  0.1500  2.5042
 4775TIP3    H235741   5.256   5.827  17.085  1.5915 -1.4379 -1.1793
 4776TIP3   OH235742   6.712   1.340  14.084  0.0998  0.0715  0.2929
 4776TIP3    H135743   6.632   1.359  14.132 -2.2513 -3.4209 -1.8357
 4776TIP3    H235744   6.696   1.372  13.995  1.8780  0.9789  0.2509
 4777TIP3   OH235745   1.231   4.710  13.237  0.0384 -0.0349  0.1036
 4777TIP3    H135746   1.230   4.656  13.316  0.4943  0.0125  0.1470
 4777TIP3    H235747   1.141   4.741  13.228 -0.8248 -2.5945 -1.1660
 4778TIP3   OH235748   2.601   5.038   6.609  0.2864 -0.4523 -0.3195
 4778TIP3    H135749   2.674   4.999   6.657  3.5956  1.7792 -3.0379
 4778TIP3    H235750   2.571   5.110   6.665  1.8345  0.0599 -0.0811
 4779TIP3   OH235751   4.928   4.940  15.893  0.2372  0.0622 -0.1304
 4779TIP3    H135752   4.991   4.894  15.836 -1.7355 -1.6855 -1.0712
 4779TIP3    H235753   4.844   4.928  15.849 -0.7333  2.6692  0.8612
 4780TIP3   OH235754   5.953   2.073   1.184 -0.2100 -0.4222 -0.1806
 4780TIP3    H135755   5.874   2.032   1.220  0.8303 -0.2610  2.5222
 4780TIP3    H235756   5.954   2.047   1.092 -4.5593  1.3714 -1.0111
 4781TIP3   OH235757   3.526   6.200  17.172 -0.5723  0.4036 -0.3335
 4781TIP3    H135758   3.554   6.124  17.223  1.8212  2.6866  2.0191
 4781TIP3    H235759   3.442   6.225  17.211 -0.9441 -0.4720 -0.5432
 4782TIP3   OH235760   0.854   4.718  17.146 -0.5507  0.1411 -0.3073
 4782TIP3    H135761   0.947   4.735  17.127 -0.5130  0.9383  0.5151
 4782TIP3    H235762   0.818   4.688  17.063  0.1991  0.9312 -0.9435
 4783TIP3   OH235763   5.555   0.192  13.291  0.3101 -0.1014 -0.0561
 4783TIP3    H135764   5.581   0.282  13.307  0.8456 -0.0721 -0.9965
 4783TIP3    H235765   5.632   0.152  13.249  0.2040 -1.0850  0.6539
 4784TIP3   OH235766   1.923   0.249   1.406  0.2594 -0.7342 -0.1083
 4784TIP3    H135767   1.954   0.270   1.494  0.4696  1.0185 -0.5646
 4784TIP3    H235768   1.835   0.213   1.420  0.4891 -0.9592  0.8420
 4785TIP3   OH235769   2.477   6.761  13.725  0.0965  0.1831 -0.2217
 4785TIP3    H135770   2.404   6.749  13.785  1.7082 -0.2954  1.7749
 4785TIP3    H235771   2.482   6.678  13.677 -0.2937 -0.0262  0.0933
 4786TIP3   OH235772   3.894   0.679   1.753  0.1087 -0.3091 -0.4198
 4786TIP3    H135773   3.941   0.730   1.686 -0.4171  0.5202 -0.1795
 4786TIP3    H235774   3.859   0.604   1.705  0.2773 -0.0589 -0.9472
 4787TIP3   OH235775   6.322   3.546  12.085 -0.5851 -0.3667  0.7468
 4787TIP3    H135776   6.405   3.594  12.081 -0.2720 -0.6024  2.8893
 4787TIP3    H235777   6.342   3.469  12.139 -2.0726 -0.7091  0.8529
 4788TIP3   OH235778   4.025   1.386   5.822 -0.5555  0.1224 -0.1685
 4788TIP3    H135779   4.065   1.302   5.798 -0.6194 -0.3266  1.2075
 4788TIP3    H235780   4.087   1.424   5.884  0.3118  1.9108 -2.0264
 4789TIP3   OH235781   4.724   6.193  13.564  0.2441 -0.3547  0.6466
 4789TIP3    H135782   4.639   6.207  13.522  0.9513 -0.8326 -1.0272
 4789TIP3    H235783   4.703   6.153  13.649 -1.2106  0.0053  0.4803
 4790TIP3   OH235784   5.810   5.213   3.944  0.0733  0.4182  0.7267
 4790TIP3    H135785   5.883   5.270   3.921  1.1059 -0.6152  1.3452
 4790TIP3    H235786   5.807   5.148   3.873 -1.4997  1.5458 -0.3157
 4791TIP3   OH235787   5.821   6.637  15.898 -0.3005 -0.0173 -0.2941
 4791TIP3    H135788   5.768   6.609  15.824 -0.9242 -0.0563  0.1581
 4791TIP3    H235789   5.912   6.618  15.872 -0.4944  0.1687 -1.1204
 4792TIP3   OH235790   5.057   5.014  14.479  0.6812 -0.2214 -0.0082
 4792TIP3    H135791   5.127   5.048  14.423 -0.8271  0.7701 -1.3819
 4792TIP3    H235792   5.016   5.092  14.517  0.2757 -0.7783  0.7460
 4793TIP3   OH235793   4.796   1.849   5.500 -0.5022 -0.1273  0.9214
 4793TIP3    H135794   4.865   1.811   5.447 -2.5984 -0.8800 -1.4337
 4793TIP3    H235795   4.823   1.940   5.513  1.3809 -0.6593  0.9714
 4794TIP3   OH235796   1.525   0.099  17.049  0.0023 -0.5448 -0.4189
 4794TIP3    H135797   1.562   0.013  17.030  2.3300  0.5069 -0.9749
 4794TIP3    H235798   1.510   0.098  17.144  1.6273 -1.0118 -0.1299
 4795TIP3   OH235799   1.800   0.666   4.158  0.3081 -0.3372  0.1462
 4795TIP3    H135800   1.827   0.663   4.250  2.9240  0.1483 -0.5199
 4795TIP3    H235801   1.831   0.584   4.121  0.0487 -0.1526 -0.4908
 4796TIP3   OH235802   6.149   4.457  13.964  0.2918 -0.4370 -0.4480
 4796TIP3    H135803   6.219   4.396  13.988 -0.5521 -0.7722  1.3245
 4796TIP3    H235804   6.190   4.543  13.966  0.3853 -0.4460  2.1793
 4797TIP3   OH235805   2.625   2.208   2.870 -0.3416  0.1840  0.0733
 4797TIP3    H135806   2.690   2.277   2.864 -0.8077  0.6235 -0.0579
 4797TIP3    H235807   2.664   2.134   2.823 -0.5763  0.9546 -1.4019
 4798TIP3   OH235808   5.071   3.432  15.964  0.6703  0.3336 -0.6338
 4798TIP3    H135809   5.140   3.463  16.023  0.6515 -1.1851  0.2412
 4798TIP3    H235810   5.116   3.412  15.882  1.1102  0.2816 -0.3835
 4799TIP3   OH235811   6.061   6.459  13.713  0.1875 -0.4953 -0.0991
 4799TIP3    H135812   6.047   6.483  13.621 -0.0737 -0.8898 -0.1632
 4799TIP3    H235813   6.081   6.366  13.711  0.2524 -0.4886  0.2393
 4800TIP3   OH235814   1.872   0.409  15.548 -0.1304  0.6214 -0.1126
 4800TIP3    H135815   1.934   0.337  15.539  0.1671  0.9268 -0.5621
 4800TIP3    H235816   1.786   0.366  15.554 -0.0480  0.2492 -1.3164
 4801TIP3   OH235817   6.107   5.577  13.952 -0.0823  0.1252  0.1381
 4801TIP3    H135818   6.023   5.531  13.957 -0.8030  1.3402 -0.2239
 4801TIP3    H235819   6.083   5.667  13.929  1.1092  1.2727  3.0267
 4802TIP3   OH235820   5.198   6.458   4.193  0.2559 -0.0939  0.1447
 4802TIP3    H135821   5.197   6.486   4.102 -1.2749 -0.9934 -0.1572
 4802TIP3    H235822   5.290   6.445   4.214  0.5827 -0.7070 -1.5429
 4803TIP3   OH235823   5.550   3.628  14.306 -0.5342 -0.5267 -0.2545
 4803TIP3    H135824   5.645   3.622  14.307 -0.5648 -1.1002 -0.1624
 4803TIP3    H235825   5.522   3.547  14.263 -1.0253 -0.9247  0.7956
 4804TIP3   OH235826   5.338   2.816  11.518  0.0893 -0.2814  0.2896
 4804TIP3    H135827   5.426   2.855  11.513  0.7122 -1.6869 -0.2545
 4804TIP3    H235828   5.354   2.727  11.551 -1.2847 -0.1133  1.5063
 4805TIP3   OH235829   0.689   1.749  16.349 -0.2297  0.6406 -0.4287
 4805TIP3    H135830   0.704   1.736  16.443 -1.4464  0.8636 -0.1813
 4805TIP3    H235831   0.768   1.714  16.307  0.3772  0.6257  0.6771
 4806TIP3   OH235832   4.534   6.725  12.353  0.8323  0.2158  0.0136
 4806TIP3    H135833   4.525   6.636  12.318  0.2357  0.9458 -1.7532
 4806TIP3    H235834   4.500   6.782  12.285 -1.0333  1.7018  2.0286
 4807TIP3   OH235835   5.604   5.347   0.528 -0.1149 -0.0829  0.2986
 4807TIP3    H135836   5.630   5.283   0.462 -0.0787 -0.5953  0.8059
 4807TIP3    H235837   5.562   5.417   0.478 -0.5362 -0.6935 -0.2213
 4808TIP3   OH235838   1.639   3.513   4.552 -0.1394 -0.3280 -0.3130
 4808TIP3    H135839   1.717   3.511   4.607  0.0563 -1.5917 -0.6106
 4808TIP3    H235840   1.606   3.602   4.561  0.4952 -0.1995  0.9889
 4809TIP3   OH235841   0.654   2.376   0.759  0.5527 -0.3019  0.3549
 4809TIP3    H135842   0.711   2.394   0.685  0.1671 -0.1378  0.0921
 4809TIP3    H235843   0.566   2.369   0.720  0.6829 -3.2426  0.3194
 4810TIP3   OH235844   0.955   2.225  14.584 -0.4380  0.2879  0.3935
 4810TIP3    H135845   0.883   2.282  14.555  0.5701  1.7336  0.6544
 4810TIP3    H235846   1.000   2.275  14.651  0.9527 -0.5128  0.0859
 4811TIP3   OH235847   6.324   0.227  12.854  0.3702 -0.4577 -0.3974
 4811TIP3    H135848   6.349   0.307  12.901  0.6487 -0.5676 -0.3590
 4811TIP3    H235849   6.281   0.259  12.774  0.3111 -0.2705 -0.2927
 4812TIP3   OH235850   1.749   5.706   2.590  0.0978 -0.5438 -0.4166
 4812TIP3    H135851   1.839   5.713   2.623  0.1612 -1.3773 -0.3921
 4812TIP3    H235852   1.707   5.642   2.647 -1.2838  1.6190  1.1678
 4813TIP3   OH235853   0.717   2.121   4.997  0.1238 -0.1009  0.2894
 4813TIP3    H135854   0.636   2.125   5.048  0.6091 -0.5410  1.1014
 4813TIP3    H235855   0.778   2.179   5.044  1.0247 -1.6180  1.0512
 4814TIP3   OH235856   4.636   1.946   0.111  0.2968 -0.6712 -0.0754
 4814TIP3    H135857   4.554   1.965   0.066  0.5827  0.8446 -0.0103
 4814TIP3    H235858   4.617   1.869   0.165 -0.7087 -1.0958 -1.0000
 4815TIP3   OH235859   2.689   5.604   2.947 -0.3161 -0.1754  0.2976
 4815TIP3    H135860   2.709   5.511   2.959  1.7368  0.1716 -0.1096
 4815TIP3    H235861   2.774   5.645   2.935 -1.1352  1.8758  1.1166
 4816TIP3   OH235862   0.667   6.181   3.627 -0.0367  0.1340 -0.3324
 4816TIP3    H135863   0.710   6.169   3.542  0.5105 -1.1594  0.1053
 4816TIP3    H235864   0.717   6.250   3.670  0.3902 -0.0008 -0.6077
 4817TIP3   OH235865   4.687   4.153  13.128  0.0240  0.1722  0.4051
 4817TIP3    H135866   4.730   4.097  13.064 -2.0475  1.4651 -2.3634
 4817TIP3    H235867   4.732   4.237  13.121 -1.1371  0.7465 -0.5240
 4818TIP3   OH235868   4.990   1.348   1.461 -0.2044  0.1574  0.3262
 4818TIP3    H135869   4.994   1.427   1.514 -1.9217  0.9990 -0.7015
 4818TIP3    H235870   5.068   1.352   1.405  1.1151 -0.2725  2.0624
 4819TIP3   OH235871   3.364   0.776  15.417  0.7391 -0.2897 -0.0394
 4819TIP3    H135872   3.345   0.730  15.498 -0.7577  0.7191  0.2353
 4819TIP3    H235873   3.294   0.751  15.357  0.4910  0.7692 -0.2247
 4820TIP3   OH235874   3.874   2.241  12.355  0.5623  0.1786 -0.6917
 4820TIP3    H135875   3.961   2.204  12.370  1.7441  2.5448 -1.3026
 4820TIP3    H235876   3.822   2.168  12.320  1.5090 -1.9703  2.0264
 4821TIP3   OH235877   0.530   1.200   3.690 -0.1371 -0.0847  0.0176
 4821TIP3    H135878   0.450   1.149   3.696 -0.9184  0.7468 -2.2703
 4821TIP3    H235879   0.600   1.136   3.697 -1.0698 -1.2677 -0.9403
 4822TIP3   OH235880   1.737   1.932  11.446 -0.7161  0.4200 -0.0779
 4822TIP3    H135881   1.712   2.024  11.458 -0.8914  0.0582  3.1753
 4822TIP3    H235882   1.659   1.883  11.471 -0.2267 -0.6367 -0.5797
 4823TIP3   OH235883   1.762   3.259  11.676  0.6765 -0.0696 -0.2233
 4823TIP3    H135884   1.798   3.289  11.760 -0.2548 -0.0817  0.1873
 4823TIP3    H235885   1.667   3.261  11.688  0.3032  3.1843 -2.3794
 4824TIP3   OH235886   2.036   5.415  14.330  0.5302 -0.2066 -0.9766
 4824TIP3    H135887   2.116   5.384  14.288 -0.0473 -1.3443 -1.2932
 4824TIP3    H235888   2.063   5.492  14.381  2.0684 -1.3151 -0.0307
 4825TIP3   OH235889   0.344   0.857   1.782 -0.5066 -0.1386 -0.2292
 4825TIP3    H135890   0.439   0.870   1.786 -0.2050 -1.9586 -0.7194
 4825TIP3    H235891   0.333   0.764   1.767 -2.3891  0.0830 -0.4633
 4826TIP3   OH235892   5.012   4.618   0.834 -0.0835 -0.0501  0.3869
 4826TIP3    H135893   5.073   4.641   0.905  0.1447 -0.3110  0.2788
 4826TIP3    H235894   4.982   4.702   0.801  0.1539  0.0826  0.5007
 4827TIP3   OH235895   3.229   5.842  14.262  0.0456 -0.0997 -0.0976
 4827TIP3    H135896   3.313   5.801  14.282 -0.3991 -2.0236 -1.8542
 4827TIP3    H235897   3.168   5.802  14.325 -0.1599 -1.3163 -1.0353
 4828TIP3   OH235898   2.576   0.824  13.149 -0.3840  0.1553  0.4244
 4828TIP3    H135899   2.594   0.917  13.164 -0.2191 -0.0543  1.6179
 4828TIP3    H235900   2.642   0.778  13.201 -1.2835 -0.6334  0.8916
 4829TIP3   OH235901   5.187   1.411   2.518 -0.3587  0.5300 -0.1833
 4829TIP3    H135902   5.228   1.326   2.532 -0.1431  0.9287  1.9404
 4829TIP3    H235903   5.217   1.438   2.431 -1.5351 -2.1293 -1.5321
 4830TIP3   OH235904   5.224   3.996   2.737 -0.0252 -0.2503 -0.0016
 4830TIP3    H135905   5.254   3.981   2.647  2.6116 -1.8380  1.0401
 4830TIP3    H235906   5.274   4.072   2.766  0.5592 -0.8955  0.7058
 4831TIP3   OH235907   0.939   3.859   2.797  0.6409  0.2088 -0.2452
 4831TIP3    H135908   1.012   3.798   2.807  1.2150  1.0664  1.1084
 4831TIP3    H235909   0.968   3.921   2.730  1.1188  0.4557  0.1798
 4832TIP3   OH235910   3.458   6.622  13.545  0.0216 -0.5984 -0.0393
 4832TIP3    H135911   3.365   6.646  13.538  0.0580 -0.6528 -0.9212
 4832TIP3    H235912   3.493   6.642  13.458  1.3631  1.5967  0.9326
 4833TIP3   OH235913   1.643   4.274   5.289 -0.0671  0.0408 -0.0745
 4833TIP3    H135914   1.603   4.322   5.362 -0.1132 -0.7563  0.4296
 4833TIP3    H235915   1.662   4.342   5.224 -4.0813  0.2761 -1.2412
 4834TIP3   OH235916   5.510   2.392   4.074  0.2688 -0.1911  0.0965
 4834TIP3    H135917   5.594   2.347   4.070 -0.7242 -2.1091 -0.5192
 4834TIP3    H235918   5.457   2.340   4.134 -0.7023  0.5626 -0.0785
 4835TIP3   OH235919   0.094   2.352  15.107  0.0536  0.0728  0.1701
 4835TIP3    H135920   0.049   2.376  15.026 -1.0942 -4.0422 -0.6199
 4835TIP3    H235921   0.184   2.334  15.080  0.1422  0.4531  0.1997
 4836TIP3   OH235922   1.279   4.745  12.697  0.2992  0.0298 -0.0489
 4836TIP3    H135923   1.321   4.800  12.763  0.1955 -1.3507  1.2140
 4836TIP3    H235924   1.308   4.782  12.613  1.6147  0.9293  0.7604
 4837TIP3   OH235925   5.156   0.418  14.545  0.4335 -0.0053 -0.3597
 4837TIP3    H135926   5.191   0.505  14.563 -0.0710 -0.1137  1.3420
 4837TIP3    H235927   5.233   0.361  14.547  0.6426  0.2718 -0.4764
 4838TIP3   OH235928   4.140   2.436  13.317 -0.1505  0.2096 -0.0217
 4838TIP3    H135929   4.140   2.361  13.259  0.7655  0.7504 -0.7547
 4838TIP3    H235930   4.057   2.480  13.301  0.1900  0.4746 -1.0875
 4839TIP3   OH235931   6.445   6.236  13.754  0.3513 -0.3171 -0.1501
 4839TIP3    H135932   6.401   6.265  13.674  1.4904 -0.6392 -0.9148
 4839TIP3    H235933   6.453   6.142  13.744 -0.1736 -0.4578  0.7035
 4840TIP3   OH235934   2.951   2.940  15.755 -0.3392 -0.6536  0.4367
 4840TIP3    H135935   2.935   2.943  15.849  0.3159  1.0456  0.5285
 4840TIP3    H235936   2.881   2.993  15.716  0.8772  0.9043  0.2465
 4841TIP3   OH235937   0.127   4.415  16.854  0.3341 -0.0129  0.0191
 4841TIP3    H135938   0.190   4.476  16.816 -0.3476  0.1701 -0.8529
 4841TIP3    H235939   0.117   4.443  16.945  2.5664 -0.9042  0.6093
 4842TIP3   OH235940   1.205   3.606   0.310  0.0346 -0.0006  0.0153
 4842TIP3    H135941   1.229   3.696   0.285 -1.9636  0.9006  1.1185
 4842TIP3    H235942   1.163   3.570   0.231 -1.6116  1.0257  0.3784
 4843TIP3   OH235943   5.991   2.518   2.657  0.4620  0.1542 -0.1105
 4843TIP3    H135944   5.924   2.490   2.594  1.8163 -0.8154 -1.1827
 4843TIP3    H235945   6.074   2.500   2.612  1.4912 -1.1232  2.1506
 4844TIP3   OH235946   6.090   2.201   3.151  0.2118 -0.1059 -0.3183
 4844TIP3    H135947   6.001   2.178   3.125  1.1030 -2.5205 -1.6624
 4844TIP3    H235948   6.113   2.136   3.218  0.6870  1.0761  0.7119
 4845TIP3   OH235949   5.025   3.306   0.572  0.3123 -0.2760  0.2529
 4845TIP3    H135950   4.972   3.238   0.613  0.8276  0.3018  1.9704
 4845TIP3    H235951   5.013   3.293   0.478 -2.0556 -0.7789  0.5624
 4846TIP3   OH235952   0.498   4.742   0.378 -1.0778 -0.2570  0.1839
 4846TIP3    H135953   0.513   4.699   0.294 -2.3118 -0.1152 -0.1291
 4846TIP3    H235954   0.507   4.672   0.443 -0.1485 -0.3713 -0.0578
 4847TIP3   OH235955   3.183   2.446   0.208  0.0600 -0.2586 -0.0428
 4847TIP3    H135956   3.147   2.452   0.120 -1.2002  0.8616  0.5167
 4847TIP3    H235957   3.225   2.530   0.224 -1.2866  0.2549  1.0458
 4848TIP3   OH235958   5.361   3.888  15.080 -0.4838  0.1617 -0.4520
 4848TIP3    H135959   5.402   3.970  15.052 -1.8844  0.6653 -1.1540
 4848TIP3    H235960   5.352   3.897  15.174 -1.1547  1.1017 -0.5838
 4849TIP3   OH235961   6.053   1.953  12.693  0.1633  0.0071 -0.5464
 4849TIP3    H135962   6.049   2.030  12.749  0.8697  0.0925 -0.6048
 4849TIP3    H235963   6.129   1.967  12.637  0.6982 -1.0318 -0.1083
 4850TIP3   OH235964   5.088   5.858  15.160  0.0936  0.0318 -0.3642
 4850TIP3    H135965   5.091   5.937  15.214 -3.4588 -0.3099  0.5570
 4850TIP3    H235966   5.118   5.887  15.074  1.9109  1.5637  0.7181
 4851TIP3   OH235967   3.884   5.285  15.075 -0.7499 -0.1797  0.6594
 4851TIP3    H135968   3.810   5.324  15.029 -0.5704 -0.2781  0.2900
 4851TIP3    H235969   3.846   5.212  15.124 -1.1499  0.6502  1.6294
 4852TIP3   OH235970   3.408   5.824   4.631  0.1213  0.0103  0.4281
 4852TIP3    H135971   3.430   5.914   4.606 -1.3981 -0.1561 -1.7703
 4852TIP3    H235972   3.380   5.830   4.722  0.8082  1.6184  0.5573
 4853TIP3   OH235973   4.611   0.896   2.280 -0.0194  0.1072  0.5474
 4853TIP3    H135974   4.594   0.803   2.297  0.8842  0.0634  1.2823
 4853TIP3    H235975   4.706   0.902   2.276 -0.1065  0.7890 -0.7979
 4854TIP3   OH235976   6.570   1.227   5.766 -0.0035 -0.0537  0.0287
 4854TIP3    H135977   6.630   1.302   5.778 -2.1796  1.8491 -0.2550
 4854TIP3    H235978   6.561   1.190   5.854  0.1458  0.8259  0.4302
 4855TIP3   OH235979   0.515   3.087   1.865 -0.0332 -0.4875 -0.7554
 4855TIP3    H135980   0.562   3.132   1.936 -1.5152  1.4389 -0.8932
 4855TIP3    H235981   0.452   3.032   1.909 -0.2578 -0.0797 -0.5598
 4856TIP3   OH235982   3.217   6.355   2.926 -0.2936  0.1581 -0.0338
 4856TIP3    H135983   3.132   6.369   2.885  0.1652  0.3901 -0.9350
 4856TIP3    H235984   3.199   6.354   3.019 -0.9958  2.3908 -0.0889
 4857TIP3   OH235985   6.739   5.875  12.541  0.1545 -0.4746 -0.0185
 4857TIP3    H135986   6.664   5.929  12.515 -0.8451 -1.8811 -0.2167
 4857TIP3    H235987   6.763   5.908  12.627 -1.9446 -1.1615  0.9123
 4858TIP3   OH235988   2.768   4.663  17.075  0.1300 -0.0054  0.0607
 4858TIP3    H135989   2.852   4.617  17.085 -1.0349 -2.2518  0.1979
 4858TIP3    H235990   2.758   4.673  16.980 -0.7372 -2.4913 -0.2014
 4859TIP3   OH235991   3.652   2.102   3.884  0.2915 -0.1108 -0.4759
 4859TIP3    H135992   3.607   2.101   3.968 -0.4219 -0.3226 -0.8568
 4859TIP3    H235993   3.669   2.194   3.867  0.3930 -0.0645 -0.1235
 4860TIP3   OH235994   4.530   0.852  17.061  0.2172 -0.4093  0.0846
 4860TIP3    H135995   4.606   0.909  17.072  1.7800 -2.4911  0.8097
 4860TIP3    H235996   4.500   0.869  16.972  1.0344  1.0300  0.0505
 4861TIP3   OH235997   5.138   5.393  11.423 -0.4096  0.0763 -0.1421
 4861TIP3    H135998   5.163   5.469  11.476  1.7897  0.3200 -1.4543
 4861TIP3    H235999   5.109   5.430  11.340  0.7830 -0.5045 -0.8317
 4862TIP3   OH236000   6.488   1.295  16.979 -0.5441  0.3816 -0.2526
 4862TIP3    H136001   6.399   1.264  16.963  0.0901 -1.3286 -0.6676
 4862TIP3    H236002   6.502   1.361  16.912 -1.2256  0.0862 -0.7013
 4863TIP3   OH236003   0.510   4.367   3.139  0.2697 -0.0660  0.1037
 4863TIP3    H136004   0.501   4.354   3.045 -1.1070 -0.3328  0.2611
 4863TIP3    H236005   0.462   4.448   3.157 -0.2149 -0.4813  0.7003
 4864TIP3   OH236006   1.759   3.798   4.975  0.3555  0.7321  0.5925
 4864TIP3    H136007   1.782   3.891   4.979 -0.1644  0.8316  1.2805
 4864TIP3    H236008   1.667   3.794   4.998 -0.2194  0.2661 -1.6069
 4865TIP3   OH236009   2.278   0.704  16.143 -0.4133  0.3486 -0.1777
 4865TIP3    H136010   2.248   0.642  16.210  0.6224 -0.4639 -0.4328
 4865TIP3    H236011   2.217   0.777  16.149 -1.6686 -0.6854  0.1474
 4866TIP3   OH236012   5.664   2.354   1.961 -0.2253 -0.5169  0.3790
 4866TIP3    H136013   5.687   2.390   2.047 -1.3227 -0.6645  0.7493
 4866TIP3    H236014   5.569   2.369   1.953 -0.5548 -2.4913  0.1559
 4867TIP3   OH236015   1.208   3.511   1.035 -0.4373  0.5218  0.3529
 4867TIP3    H136016   1.121   3.486   1.066 -0.6508  0.0611 -0.5754
 4867TIP3    H236017   1.256   3.534   1.114 -0.9634 -0.5950  1.0265
 4868TIP3   OH236018   4.568   3.563   1.410 -0.2433  0.5160 -0.0952
 4868TIP3    H136019   4.508   3.604   1.471 -1.2252 -1.3503  0.2667
 4868TIP3    H236020   4.609   3.636   1.363 -1.7791  1.8684  0.5986
 4869TIP3   OH236021   5.308   2.679   3.591 -0.0396  0.1771 -0.8052
 4869TIP3    H136022   5.320   2.735   3.514 -1.1985  0.4101 -0.8333
 4869TIP3    H236023   5.344   2.729   3.664 -1.0147  0.9489 -0.8416
 4870TIP3   OH236024   4.401   3.212  17.022  0.3182 -0.3254  0.3619
 4870TIP3    H136025   4.453   3.200  16.943 -0.3246  0.6401 -0.2217
 4870TIP3    H236026   4.315   3.177  17.001 -0.1364  0.7984  0.2936
 4871TIP3   OH236027   3.258   4.186   3.454 -0.2849 -0.5875 -1.1391
 4871TIP3    H136028   3.320   4.257   3.436 -0.6996 -0.1122 -0.7262
 4871TIP3    H236029   3.291   4.112   3.403 -1.8999  0.8806 -4.6302
 4872TIP3   OH236030   0.729   4.495   2.075 -0.5924  0.3844  0.3359
 4872TIP3    H136031   0.807   4.486   2.020 -2.3192  0.1096 -2.2461
 4872TIP3    H236032   0.714   4.589   2.080 -0.5067  0.4038  0.2268
 4873TIP3   OH236033   4.318   0.368  16.067  0.1626 -0.6122  0.1782
 4873TIP3    H136034   4.225   0.348  16.055  0.2084 -0.0221 -1.3397
 4873TIP3    H236035   4.363   0.311  16.005  0.8792 -1.2996  1.2973
 4874TIP3   OH236036   2.225   6.295  11.978  0.4175  0.5142  0.4486
 4874TIP3    H136037   2.248   6.287  11.885  1.4616  0.6584  0.6801
 4874TIP3    H236038   2.194   6.385  11.988 -0.3743  0.2805  0.1002
 4875TIP3   OH236039   2.779   0.469   3.755 -0.4125  0.3275  0.5319
 4875TIP3    H136040   2.827   0.532   3.702 -0.0298 -0.4067 -0.0175
 4875TIP3    H236041   2.690   0.469   3.719 -0.1601 -0.1520 -0.1118
 4876TIP3   OH236042   6.431   2.992   3.107  0.1808  0.1487 -0.2614
 4876TIP3    H136043   6.342   2.964   3.088  0.0831 -0.5523  1.1768
 4876TIP3    H236044   6.485   2.944   3.044 -0.1844 -1.7833  0.8197
 4877TIP3   OH236045   0.383   6.409   2.592 -0.0501  0.1380 -0.3595
 4877TIP3    H136046   0.436   6.363   2.658 -0.9323 -0.0167  0.2618
 4877TIP3    H236047   0.367   6.344   2.524 -0.9315 -0.3594  0.3103
 4878TIP3   OH236048   0.771   4.964  15.544 -0.0203  0.2445  0.0810
 4878TIP3    H136049   0.799   4.878  15.513 -0.5828  0.0164  0.1907
 4878TIP3    H236050   0.680   4.951  15.573 -0.6368  1.2034 -1.2901
 4879TIP3   OH236051   3.196   5.445   5.829  0.2912  0.2686 -0.2804
 4879TIP3    H136052   3.161   5.477   5.912  0.4510  0.9314 -0.4664
 4879TIP3    H236053   3.119   5.432   5.774  0.1569 -0.4608  0.0591
 4880TIP3   OH236054   2.076   3.276  17.136  0.0324  0.6361  0.1849
 4880TIP3    H136055   2.008   3.241  17.078 -0.4161 -0.0281  1.0747
 4880TIP3    H236056   2.140   3.206  17.144  0.9572  1.3442 -0.8257
 4881TIP3   OH236057   6.275   0.429   1.957  0.3972 -0.1559  0.2182
 4881TIP3    H136058   6.236   0.377   2.028  0.8832 -0.5915  0.1726
 4881TIP3    H236059   6.263   0.375   1.879 -0.1690  0.3404 -0.0476
 4882TIP3   OH236060   4.630   5.843   0.073 -0.0343  0.6199  0.4555
 4882TIP3    H136061   4.604   5.844   0.165 -0.1150 -0.7443  0.4624
 4882TIP3    H236062   4.700   5.778   0.069 -1.7908 -1.2988 -0.8701
 4883TIP3   OH236063   6.647   1.652  14.881  0.7996  0.0434  0.2799
 4883TIP3    H136064   6.669   1.688  14.967  0.6388  0.1622  0.2710
 4883TIP3    H236065   6.559   1.683  14.864  1.5358  1.6931 -0.7962
 4884TIP3   OH236066   0.323   3.618   2.664  0.0868 -0.2058 -0.7962
 4884TIP3    H136067   0.368   3.702   2.663  0.8983 -0.6197 -0.0586
 4884TIP3    H236068   0.239   3.637   2.707 -0.2444  0.4593 -1.7110
 4885TIP3   OH236069   0.997   2.741   4.654  0.2320  0.6187  0.0723
 4885TIP3    H136070   1.004   2.816   4.713  1.5401  0.1501  0.5405
 4885TIP3    H236071   1.076   2.745   4.600  0.6333 -0.7617  0.5253
 4886TIP3   OH236072   0.933   3.369   2.890  0.4038 -0.7520  0.3854
 4886TIP3    H136073   0.965   3.453   2.923  0.4328 -0.2047 -0.9836
 4886TIP3    H236074   0.863   3.345   2.952  1.3650 -0.4627  1.6378
 4887TIP3   OH236075   4.566   3.912   4.242  0.4515 -0.4205  0.4593
 4887TIP3    H136076   4.642   3.920   4.298  0.4371  0.4595  0.3649
 4887TIP3    H236077   4.491   3.925   4.301  0.3709 -1.2400  0.5446
 4888TIP3   OH236078   1.656   3.666   0.041 -0.5903 -0.3156 -0.2948
 4888TIP3    H136079   1.566   3.678   0.071 -0.3729  2.4111 -0.4526
 4888TIP3    H236080   1.702   3.745   0.071  1.0141 -0.1859 -2.7599
 4889TIP3   OH236081   6.728   5.751  11.169  0.3605  0.4873 -0.0858
 4889TIP3    H136082   6.673   5.673  11.175 -0.4063  0.8008 -2.2205
 4889TIP3    H236083   6.817   5.717  11.159  0.2098 -0.0839  0.4936
 4890TIP3   OH236084   0.208   6.085  12.335  0.4186  0.3427 -0.0422
 4890TIP3    H136085   0.168   6.004  12.301  0.4677 -0.2147  1.1782
 4890TIP3    H236086   0.261   6.117  12.262 -0.3974 -0.1665 -0.9001
 4891TIP3   OH236087   2.890   0.433  13.873 -0.1744 -0.4586  0.4320
 4891TIP3    H136088   2.847   0.452  13.957 -1.0843 -1.7785  0.2949
 4891TIP3    H236089   2.976   0.400  13.898 -0.0168  0.2254  0.8052
 4892TIP3   OH236090   1.357   6.338   5.437 -0.5773 -0.1267  0.0736
 4892TIP3    H136091   1.303   6.412   5.407 -0.0259  0.2133 -0.0984
 4892TIP3    H236092   1.359   6.279   5.361 -0.2894  0.1009 -0.0978
 4893TIP3   OH236093   1.121   0.614  16.162 -0.3719 -0.1527 -0.0226
 4893TIP3    H136094   1.194   0.675  16.162 -0.0359 -0.5437 -0.2984
 4893TIP3    H236095   1.111   0.587  16.253  2.2063 -2.8604 -0.3882
 4894TIP3   OH236096   4.242   4.410   3.582 -0.4678 -0.5929 -0.2078
 4894TIP3    H136097   4.216   4.397   3.490 -2.7143  1.0501  0.1169
 4894TIP3    H236098   4.173   4.465   3.619  0.7998 -0.5466  2.2894
 4895TIP3   OH236099   5.031   5.652  16.838 -0.0345  0.0171 -0.0639
 4895TIP3    H136100   5.083   5.622  16.764 -0.0345 -1.8895  0.6586
 4895TIP3    H236101   5.095   5.671  16.906 -0.1031  0.6912 -0.1849
 4896TIP3   OH236102   5.238   3.578   2.357 -0.6235 -0.8448 -0.0001
 4896TIP3    H136103   5.278   3.509   2.408  0.7798  0.9134  1.4285
 4896TIP3    H236104   5.302   3.599   2.289  0.0519  0.5669  1.0119
 4897TIP3   OH236105   2.689   3.091   2.907 -0.5070  0.0729  0.0654
 4897TIP3    H136106   2.622   3.085   2.839  0.3416 -0.5344 -0.7414
 4897TIP3    H236107   2.699   3.002   2.939 -0.1325  0.1690  0.2258
 4898TIP3   OH236108   0.960   3.244  14.967  1.1566  0.4779  0.0501
 4898TIP3    H136109   1.009   3.164  14.987 -0.7987 -0.3648  1.8924
 4898TIP3    H236110   1.024   3.315  14.977  2.7216 -0.7565 -0.7688
 4899TIP3   OH236111   4.611   3.608  13.733  0.0324  0.0367 -0.1487
 4899TIP3    H136112   4.625   3.548  13.806 -0.3462  0.0226 -0.0865
 4899TIP3    H236113   4.560   3.558  13.670 -1.6647  0.7749  0.5797
 4900TIP3   OH236114   1.096   2.004  15.375  0.3370 -0.1383 -0.7193
 4900TIP3    H136115   1.063   1.926  15.419 -1.4329 -0.0306 -1.7612
 4900TIP3    H236116   1.018   2.046  15.339  1.2539  2.0336 -0.3378
 4901TIP3   OH236117   0.172   1.583   1.486  0.9613 -0.4637 -0.4562
 4901TIP3    H136118   0.214   1.510   1.440  1.7015 -0.3401  0.0028
 4901TIP3    H236119   0.243   1.645   1.503  0.1303  1.0270 -2.0521
 4902TIP3   OH236120   2.311   2.392  15.527  0.1670  0.8524  0.2716
 4902TIP3    H136121   2.340   2.308  15.491  2.0741  1.2995  0.6654
 4902TIP3    H236122   2.276   2.369  15.614  3.2390  0.7012  1.5816
 4903TIP3   OH236123   5.279   0.139  12.166 -0.2744 -0.1047 -0.4427
 4903TIP3    H136124   5.356   0.190  12.192  0.8712 -2.2185  0.5796
 4903TIP3    H236125   5.214   0.157  12.234 -0.7634  1.7205 -1.3313
 4904TIP3   OH236126   4.013   0.521   5.649 -0.2725 -0.2149  0.7449
 4904TIP3    H136127   4.062   0.548   5.571  0.1452 -2.8429  0.0038
 4904TIP3    H236128   3.940   0.582   5.654 -0.6218 -0.2965 -2.0558
 4905TIP3   OH236129   4.535   5.720   5.606 -0.3976  0.0164 -0.7579
 4905TIP3    H136130   4.512   5.802   5.563 -1.4006 -0.4010 -1.0549
 4905TIP3    H236131   4.589   5.674   5.542 -0.6682  0.0258 -0.9968
 4906TIP3   OH236132   4.114   3.896   5.373  0.4856 -0.2089  0.2631
 4906TIP3    H136133   4.018   3.897   5.366  0.5405  0.5579 -0.5497
 4906TIP3    H236134   4.131   3.872   5.465 -0.4980  0.9202  0.7632
 4907TIP3   OH236135   5.316   6.146   5.770  0.2689  0.3788  0.6322
 4907TIP3    H136136   5.286   6.219   5.717 -1.1960 -0.4115  0.3098
 4907TIP3    H236137   5.299   6.173   5.861  1.2929  1.0898  0.6240
 4908TIP3   OH236138   3.289   5.094  11.989  0.6950 -0.2963 -0.0769
 4908TIP3    H136139   3.231   5.086  11.914 -0.2338  1.1184  0.4405
 4908TIP3    H236140   3.327   5.007  12.000 -1.0632 -1.1700 -0.6503
 4909TIP3   OH236141   1.845   4.471   2.177  0.1123 -0.6068 -0.3198
 4909TIP3    H136142   1.819   4.463   2.086  0.8185 -0.0216 -0.5756
 4909TIP3    H236143   1.934   4.504   2.175  0.3673 -1.1771  0.5735
 4910TIP3   OH236144   3.295   3.071  15.996  0.0480  0.2708 -0.3114
 4910TIP3    H136145   3.255   2.986  16.016  0.5409 -0.2153 -1.2785
 4910TIP3    H236146   3.222   3.126  15.968 -0.0369 -0.4618 -1.6069
 4911TIP3   OH236147   2.228   6.422   1.057  0.2246  0.4291  0.1712
 4911TIP3    H136148   2.248   6.500   1.006  1.4085  0.6311  0.8990
 4911TIP3    H236149   2.295   6.420   1.125 -0.7547 -0.3231  1.1685
 4912TIP3   OH236150   3.572   4.369  14.511  0.4514  0.1647 -0.1614
 4912TIP3    H136151   3.479   4.384  14.493  0.3526 -1.3732 -1.1177
 4912TIP3    H236152   3.574   4.340  14.602  0.2097  1.7463  0.3865
 4913TIP3   OH236153   0.410   0.386  16.157 -0.1731  0.2525 -0.0149
 4913TIP3    H136154   0.431   0.408  16.066  0.7546 -1.0435 -0.1520
 4913TIP3    H236155   0.480   0.326  16.184 -0.2883  0.8166  1.6483
 4914TIP3   OH236156   4.412   0.800   2.841  0.2026  0.5542  0.3458
 4914TIP3    H136157   4.498   0.773   2.874  0.8833  2.1675 -0.0001
 4914TIP3    H236158   4.409   0.894   2.857 -2.0240  0.3511  1.4320
 4915TIP3   OH236159   2.658   1.222  16.603  0.0692 -0.0640  0.4863
 4915TIP3    H136160   2.630   1.131  16.616  1.2417 -0.1636  2.8764
 4915TIP3    H236161   2.748   1.214  16.571 -0.1149  0.2791 -0.1361
 4916TIP3   OH236162   6.479   4.355   5.054  0.1320 -0.0376 -0.4862
 4916TIP3    H136163   6.523   4.277   5.089  0.1622  0.1028 -0.2071
 4916TIP3    H236164   6.508   4.426   5.111  0.0082  0.1575 -0.6660
 4917TIP3   OH236165   2.142   5.965  15.653  0.7488  0.3273 -0.0864
 4917TIP3    H136166   2.049   5.977  15.675  0.8002  0.9658 -0.2085
 4917TIP3    H236167   2.148   5.991  15.561  1.0665  0.3649 -0.0539
 4918TIP3   OH236168   3.872   2.778  13.865  0.1217  0.0371  0.0251
 4918TIP3    H136169   3.817   2.706  13.897  0.2474 -0.9127 -1.7462
 4918TIP3    H236170   3.942   2.734  13.817 -0.7409  1.3237 -2.5912
 4919TIP3   OH236171   0.160   0.385  10.962  0.5789  0.1736  0.3861
 4919TIP3    H136172   0.131   0.394  11.053  0.0940  0.6437  0.1886
 4919TIP3    H236173   0.239   0.438  10.957  1.2594 -0.7698  0.8159
 4920TIP3   OH236174   2.613   3.291   2.059  0.6399  0.6774  0.4304
 4920TIP3    H136175   2.691   3.283   2.003  0.8332 -1.9003  0.9654
 4920TIP3    H236176   2.540   3.299   1.998  0.7919 -2.5479 -0.3529
 4921TIP3   OH236177   0.158   0.830  15.870  0.3477 -0.0615  0.8007
 4921TIP3    H136178   0.232   0.804  15.924 -0.2792 -1.8178  0.8835
 4921TIP3    H236179   0.158   0.768  15.797 -1.6229 -0.8230  1.3642
 4922TIP3   OH236180   6.320   1.198  11.303  0.3703 -0.6397  0.1370
 4922TIP3    H136181   6.379   1.199  11.228  1.1481 -0.2371  0.7425
 4922TIP3    H236182   6.241   1.155  11.270 -1.0139  3.1117 -2.2012
 4923TIP3   OH236183   0.535   0.227  17.028  0.2036  0.1035  0.1124
 4923TIP3    H136184   0.464   0.291  17.024 -0.4102 -0.6211 -1.2304
 4923TIP3    H236185   0.577   0.243  17.113  2.1133  4.4124 -1.3946
 4924TIP3   OH236186   5.992   4.191   2.046  0.0381 -0.1598  0.7174
 4924TIP3    H136187   6.009   4.116   1.989  1.4566  1.1510 -0.6644
 4924TIP3    H236188   6.069   4.196   2.102 -1.0223 -0.9928  2.3618
 4925TIP3   OH236189   3.346   1.089   1.669  0.0131  0.2469  0.0846
 4925TIP3    H136190   3.281   1.047   1.612  0.0565  1.8747 -1.2523
 4925TIP3    H236191   3.302   1.168   1.701  0.6686  0.3476  0.7448
 4926TIP3   OH236192   1.391   1.542   5.904 -0.1472  0.0802  0.4089
 4926TIP3    H136193   1.385   1.521   5.810 -1.3666  1.4940  0.1139
 4926TIP3    H236194   1.353   1.466   5.948 -0.1443 -0.3372 -0.2950
 4927TIP3   OH236195   0.909   2.022  12.332 -0.3953  0.1597 -0.5038
 4927TIP3    H136196   0.912   1.945  12.389  0.8458  0.5089 -0.0640
 4927TIP3    H236197   1.000   2.036  12.305 -0.4858  1.8497 -0.0544
 4928TIP3   OH236198   6.640   1.447  11.216 -0.1681  0.4619 -0.1734
 4928TIP3    H136199   6.634   1.461  11.121 -0.1712 -1.7779 -0.5688
 4928TIP3    H236200   6.734   1.452  11.234 -0.0376 -0.3827 -0.5537
 4929TIP3   OH236201   5.795   5.055   1.464  0.7940  0.6498 -0.0802
 4929TIP3    H136202   5.785   5.144   1.430  0.5871 -0.2730 -2.6983
 4929TIP3    H236203   5.882   5.027   1.434  0.9200  0.0102  0.8407
 4930TIP3   OH236204   5.841   0.686   0.608 -0.2630  0.6081  0.8490
 4930TIP3    H136205   5.874   0.743   0.539 -1.0347  1.0770  0.8620
 4930TIP3    H236206   5.898   0.609   0.604  0.2764  1.0230  0.3011
 4931TIP3   OH236207   1.950   1.591  13.500  0.1475 -0.3899  0.1500
 4931TIP3    H136208   2.045   1.602  13.497  0.1867 -0.8710 -0.5946
 4931TIP3    H236209   1.930   1.535  13.426 -0.4593 -2.1749  1.5810
 4932TIP3   OH236210   1.328   3.611  13.920 -0.0740  0.4923 -0.2423
 4932TIP3    H136211   1.396   3.575  13.977  1.7583 -0.5776 -2.9350
 4932TIP3    H236212   1.273   3.535  13.899  0.2857  0.4982 -1.2328
 4933TIP3   OH236213   2.808   5.746   0.656 -1.0392  0.4088  0.2252
 4933TIP3    H136214   2.851   5.832   0.655 -0.5812  0.2029  1.0077
 4933TIP3    H236215   2.714   5.766   0.662 -0.9407  0.8565  0.2965
 4934TIP3   OH236216   3.229   5.751  11.702 -0.5257  0.7648 -0.8124
 4934TIP3    H136217   3.302   5.690  11.697 -0.9341  0.3125 -1.2786
 4934TIP3    H236218   3.157   5.708  11.655 -1.2865  0.9254  0.1675
 4935TIP3   OH236219   4.800   0.326  12.601 -0.1091  0.4342  0.7502
 4935TIP3    H136220   4.846   0.288  12.676  0.9943  0.9001  0.3202
 4935TIP3    H236221   4.781   0.251  12.544  1.0237  0.3484  0.4598
 4936TIP3   OH236222   4.749   5.013  16.392 -0.8618 -0.2115  0.4494
 4936TIP3    H136223   4.780   4.981  16.307  0.8129 -1.1648  1.3579
 4936TIP3    H236224   4.663   4.972  16.404 -0.5161 -1.1558 -0.1925
 4937TIP3   OH236225   2.644   4.793  12.872  0.1617  0.1940  0.2229
 4937TIP3    H136226   2.705   4.727  12.838 -0.5718  0.2386 -1.2567
 4937TIP3    H236227   2.691   4.876  12.862  0.1593  0.1478 -0.2200
 4938TIP3   OH236228   3.833   5.913  13.482 -0.6885 -0.4598 -0.0711
 4938TIP3    H136229   3.864   5.989  13.433 -0.3129 -0.4763  0.1399
 4938TIP3    H236230   3.772   5.950  13.546 -1.0712 -0.4232 -0.4536
 4939TIP3   OH236231   6.243   4.739  16.102 -0.1592  0.1216 -0.3811
 4939TIP3    H136232   6.170   4.784  16.144 -0.1714 -0.0768 -0.1906
 4939TIP3    H236233   6.265   4.667  16.161  1.0862  0.9828  0.2525
 4940TIP3   OH236234   4.658   5.867  14.366  0.3654  0.6580  0.2984
 4940TIP3    H136235   4.694   5.850  14.279  0.6969  2.4771  0.0411
 4940TIP3    H236236   4.658   5.782  14.409 -1.1509 -0.5796 -1.9644
 4941TIP3   OH236237   4.064   2.098  12.659  0.1202  0.4199 -0.0971
 4941TIP3    H136238   4.114   2.110  12.578 -0.5029 -0.2251 -0.5933
 4941TIP3    H236239   3.974   2.084  12.630  0.0416 -0.7774  0.6347
 4942TIP3   OH236240   3.929   2.921  17.157 -0.2986 -0.3436  0.2576
 4942TIP3    H136241   3.901   2.852  17.097 -0.8651 -0.3126  0.4849
 4942TIP3    H236242   3.927   2.880  17.243  0.3126 -0.3268  0.2871
 4943TIP3   OH236243   5.942   2.971  13.940 -0.9994  0.0570 -0.0107
 4943TIP3    H136244   5.958   2.966  14.034 -0.3869 -2.7554 -0.1808
 4943TIP3    H236245   6.029   2.977  13.901 -1.0443 -1.7565 -0.4610
 4944TIP3   OH236246   2.914   2.285   3.181 -0.4436 -0.4367  0.5621
 4944TIP3    H136247   2.922   2.379   3.162  0.1076 -0.1989  1.8783
 4944TIP3    H236248   2.879   2.281   3.270 -1.0919 -1.4973  0.2841
 4945TIP3   OH236249   3.869   3.456  16.660  0.0140  0.0149  0.0036
 4945TIP3    H136250   3.914   3.379  16.625  1.9380  0.7864  0.6407
 4945TIP3    H236251   3.862   3.516  16.585 -1.1811 -0.6173 -0.4116
 4946TIP3   OH236252   4.516   0.617   1.033 -0.0760  0.5346 -0.0383
 4946TIP3    H136253   4.599   0.658   1.059 -0.2115  0.1873  1.0041
 4946TIP3    H236254   4.449   0.670   1.075 -0.4059  0.8752 -0.9641
 4947TIP3   OH236255   2.961   6.613   5.875  0.1350  0.0449  0.0970
 4947TIP3    H136256   2.977   6.663   5.955  1.8658  2.4892 -1.6057
 4947TIP3    H236257   3.043   6.565   5.861 -0.7605 -1.6983  0.5979
 4948TIP3   OH236258   5.490   2.346  11.772  0.6845  0.2572  0.6222
 4948TIP3    H136259   5.418   2.287  11.750 -0.1420  1.6464 -0.5561
 4948TIP3    H236260   5.568   2.303  11.736  0.0363  0.0702 -0.6177
 4949TIP3   OH236261   2.270   5.869   5.211 -0.2711 -0.0589  0.0411
 4949TIP3    H136262   2.293   5.863   5.119  1.6584  0.7421  0.4189
 4949TIP3    H236263   2.255   5.778   5.238 -1.4152 -0.2483 -1.1703
 4950TIP3   OH236264   2.105   2.926   1.816 -0.2791  0.0230 -0.1746
 4950TIP3    H136265   2.064   2.861   1.758  1.8886  0.3113 -2.1968
 4950TIP3    H236266   2.095   2.890   1.904 -1.4390 -1.7385 -0.9794
 4951TIP3   OH236267   1.695   1.045   2.765 -0.2624 -0.2253 -0.2781
 4951TIP3    H136268   1.651   0.988   2.829 -1.1168  0.0265 -0.6224
 4951TIP3    H236269   1.634   1.048   2.691  0.2167  0.3719 -0.6497
 4952TIP3   OH236270   1.117   6.089  12.791  0.0115 -0.4062  0.1139
 4952TIP3    H136271   1.104   6.016  12.731 -1.2580  0.0346 -0.1772
 4952TIP3    H236272   1.060   6.070  12.865 -1.5360  1.0030 -0.6494
 4953TIP3   OH236273   1.910   2.560  13.400  0.1964  0.3048  0.3022
 4953TIP3    H136274   1.955   2.567  13.315 -1.6054  2.4435 -0.5949
 4953TIP3    H236275   1.957   2.622  13.456  1.1605 -0.8404  0.7866
 4954TIP3   OH236276   4.700   2.630  17.028  0.7790 -0.1660  0.0964
 4954TIP3    H136277   4.730   2.704  16.975  0.6821  0.6226  1.1113
 4954TIP3    H236278   4.642   2.581  16.969  0.3850  0.8808 -0.4239
 4955TIP3   OH236279   0.992   5.545   4.034 -0.1139 -0.3078 -0.0818
 4955TIP3    H136280   0.934   5.613   4.069 -0.2482 -0.7370  0.5355
 4955TIP3    H236281   0.938   5.466   4.033 -0.2894 -0.2119 -1.7698
 4956TIP3   OH236282   0.101   5.974  14.474  0.0009  0.2989  0.1684
 4956TIP3    H136283   0.144   5.928  14.546 -0.1199 -0.9827 -0.5503
 4956TIP3    H236284   0.046   5.907  14.432  0.7187  0.7696 -1.6338
 4957TIP3   OH236285   6.322   5.999  11.606  0.6525 -0.8665  0.5853
 4957TIP3    H136286   6.342   6.068  11.669  0.9580 -2.0004  1.7752
 4957TIP3    H236287   6.401   5.945  11.604  1.1552 -0.1612 -1.7673
 4958TIP3   OH236288   2.258   4.572  15.939  0.1521 -0.2043 -0.0028
 4958TIP3    H136289   2.246   4.609  16.026  3.4878  0.7481  0.2154
 4958TIP3    H236290   2.255   4.648  15.880  2.5544 -0.0629 -0.0714
 4959TIP3   OH236291   5.245   5.514   3.385  0.0502 -0.2894 -0.0340
 4959TIP3    H136292   5.228   5.438   3.329  1.3136 -1.1161  0.6687
 4959TIP3    H236293   5.266   5.477   3.470  0.1704  0.8851  0.4620
 4960TIP3   OH236294   3.723   2.854  13.257 -0.0424 -0.0016  0.2147
 4960TIP3    H136295   3.656   2.838  13.324 -1.9403 -0.0159 -1.5804
 4960TIP3    H236296   3.779   2.922  13.295 -1.3117  0.3106  1.6385
 4961TIP3   OH236297   2.692   2.885   3.903 -0.0657 -0.3668  0.0494
 4961TIP3    H136298   2.695   2.980   3.892 -0.0678 -0.3752 -0.0203
 4961TIP3    H236299   2.730   2.850   3.823 -0.7930 -0.4430 -0.2630
 4962TIP3   OH236300   6.051   3.413   3.347 -0.0175 -0.5866  0.1147
 4962TIP3    H136301   6.068   3.506   3.358  0.0736 -0.5521 -0.2764
 4962TIP3    H236302   6.130   3.370   3.381  0.8070 -0.4336 -1.4848
 4963TIP3   OH236303   5.039   1.779   3.457 -0.4565  0.1833  0.3494
 4963TIP3    H136304   5.105   1.729   3.505  1.7369  0.6841 -1.9499
 4963TIP3    H236305   5.038   1.865   3.499  2.2713  0.9975 -1.0032
 4964TIP3   OH236306   1.330   5.660  13.885 -0.4406  0.0583  0.4626
 4964TIP3    H136307   1.324   5.706  13.802 -0.2887  0.4420  0.6622
 4964TIP3    H236308   1.364   5.725  13.946 -3.0653  0.6210  1.4765
 4965TIP3   OH236309   0.516   6.001   2.102  0.3818  0.2422 -0.2540
 4965TIP3    H136310   0.438   5.970   2.056  1.1689  0.9645 -2.1892
 4965TIP3    H236311   0.502   6.096   2.109 -0.1849  0.0464  2.0059
 4966TIP3   OH236312   5.618   6.551   5.265 -0.0068 -0.0364 -0.5365
 4966TIP3    H136313   5.593   6.633   5.307  0.5639  0.2582 -0.7609
 4966TIP3    H236314   5.702   6.528   5.304 -0.7741 -1.2377  0.5202
 4967TIP3   OH236315   3.656   1.110   4.202 -0.2415 -0.3089 -0.0908
 4967TIP3    H136316   3.698   1.119   4.287 -1.0959 -0.2451  0.3319
 4967TIP3    H236317   3.564   1.132   4.217 -0.6810 -1.5555 -0.7533
 4968TIP3   OH236318   5.623   3.519   2.768  0.1479 -0.2555 -0.1741
 4968TIP3    H136319   5.620   3.430   2.732 -1.6773  0.1302 -1.1040
 4968TIP3    H236320   5.533   3.535   2.797  0.6374  1.0105  0.7133
 4969TIP3   OH236321   3.209   3.248  14.587  0.4497 -0.3677  0.2294
 4969TIP3    H136322   3.187   3.297  14.509  1.6982 -0.8250 -0.4397
 4969TIP3    H236323   3.211   3.314  14.657 -1.2161 -0.0480  0.0070
 4970TIP3   OH236324   3.384   0.884  12.265  0.4904  0.3929  0.4726
 4970TIP3    H136325   3.347   0.971  12.283  1.4204  0.8584  0.1780
 4970TIP3    H236326   3.395   0.845  12.351  0.6019  0.7947  0.6444
 4971TIP3   OH236327   2.019   2.459  14.038 -0.1554 -0.4239 -0.1159
 4971TIP3    H136328   1.981   2.471  14.125  2.3248 -0.2217  1.0314
 4971TIP3    H236329   1.975   2.382  14.003 -2.3926  0.4370  0.5710
 4972TIP3   OH236330   2.090   4.858   3.118  0.4193 -0.3050  0.3287
 4972TIP3    H136331   2.027   4.805   3.070 -0.1394 -0.5146  1.2644
 4972TIP3    H236332   2.038   4.930   3.155  0.5894 -0.8076  1.6077
 4973TIP3   OH236333   5.120   3.195  14.104 -0.3382  0.1704  0.1290
 4973TIP3    H136334   5.161   3.147  14.033  1.5303  1.7310  0.0433
 4973TIP3    H236335   5.026   3.183  14.091 -0.0033 -0.8682 -1.6563
 4974TIP3   OH236336   6.223   4.885   4.262  0.0263 -0.1463 -0.3156
 4974TIP3    H136337   6.306   4.911   4.221  0.2770 -0.8285 -0.2616
 4974TIP3    H236338   6.247   4.814   4.321 -0.5988 -0.3473 -0.2970
 4975TIP3   OH236339   1.755   5.609  13.351  0.1420 -0.2329 -0.3557
 4975TIP3    H136340   1.672   5.573  13.319 -0.4894  1.4003 -0.6516
 4975TIP3    H236341   1.757   5.699  13.317  0.0890  1.1784  3.0255
 4976TIP3   OH236342   1.860   4.946   6.977 -0.5736 -0.3196  0.1151
 4976TIP3    H136343   1.772   4.921   7.006 -1.5787  1.5831 -1.0327
 4976TIP3    H236344   1.866   5.040   6.997  0.4447  0.0111 -1.5038
 4977TIP3   OH236345   3.432   2.637  11.267  0.1994  0.3953  0.2077
 4977TIP3    H136346   3.482   2.718  11.262  1.6402 -0.5212 -1.5677
 4977TIP3    H236347   3.387   2.631  11.183  0.1670 -0.6744  0.2883
 4978TIP3   OH236348   0.237   6.424  15.222  0.0216 -0.7250  0.1407
 4978TIP3    H136349   0.177   6.499  15.212  1.3821  0.1194 -2.8791
 4978TIP3    H236350   0.180   6.352  15.250 -2.4751  0.1242 -2.1986
 4979TIP3   OH236351   2.645   3.783  15.893 -0.0195  0.0995 -0.3822
 4979TIP3    H136352   2.685   3.856  15.941  0.8767 -0.3774 -0.3746
 4979TIP3    H236353   2.667   3.800  15.801 -0.8302  0.4542 -0.5216
 4980TIP3   OH236354   6.308   1.277  14.088 -0.6235  0.5338 -0.0632
 4980TIP3    H136355   6.366   1.305  14.159 -1.3045 -0.2570  0.8307
 4980TIP3    H236356   6.231   1.332  14.096 -0.6456  0.5354 -0.2811
 4981TIP3   OH236357   5.094   2.836   4.346 -0.0994  0.3758  0.6575
 4981TIP3    H136358   5.186   2.813   4.357 -0.2895  0.2880  2.3331
 4981TIP3    H236359   5.046   2.756   4.367 -0.5802  0.5153  0.1300
 4982TIP3   OH236360   2.566   1.702   5.142 -0.0954  0.0601  0.0453
 4982TIP3    H136361   2.501   1.736   5.204 -0.1803 -0.1258  0.0574
 4982TIP3    H236362   2.530   1.618   5.113 -0.2352  0.3173 -0.5366
 4983TIP3   OH236363   4.376   1.150  15.793  1.1009 -0.0875  0.0521
 4983TIP3    H136364   4.392   1.065  15.834  0.6418 -0.1508  0.1015
 4983TIP3    H236365   4.281   1.155  15.784  1.1716  0.1102 -0.6181
 4984TIP3   OH236366   5.459   3.035  16.852 -0.5579 -0.8508 -0.0060
 4984TIP3    H136367   5.520   3.046  16.779 -1.5604 -1.0348 -0.8970
 4984TIP3    H236368   5.416   3.120  16.860 -1.1712 -1.1271 -0.3090
 4985TIP3   OH236369   6.688   1.357   4.008 -0.1342 -0.5896  0.1600
 4985TIP3    H136370   6.635   1.300   3.954  0.7817 -1.7362  0.4350
 4985TIP3    H236371   6.729   1.418   3.947 -2.2477  0.7889  0.0034
 4986TIP3   OH236372   4.513   4.845  14.225 -0.2492 -0.4137  0.6536
 4986TIP3    H136373   4.578   4.776  14.243  1.4259  0.3775 -1.7357
 4986TIP3    H236374   4.447   4.835  14.293  2.4534 -1.1687  3.3957
 4987TIP3   OH236375   5.334   0.922  16.397 -0.2280 -0.6352 -0.1677
 4987TIP3    H136376   5.372   0.902  16.482 -0.7448 -1.0436 -0.0290
 4987TIP3    H236377   5.357   0.847  16.342 -1.1003 -1.0411  0.0072
 4988TIP3   OH236378   5.200   1.701  16.770 -0.2261  0.0588 -0.2892
 4988TIP3    H136379   5.224   1.638  16.838 -0.9557  0.3852  0.2875
 4988TIP3    H236380   5.243   1.669  16.691 -1.3564 -1.7160 -0.2356
 4989TIP3   OH236381   0.355   0.554   6.188  0.2593  0.2142  0.5432
 4989TIP3    H136382   0.399   0.557   6.103 -0.8038  4.9656 -0.1690
 4989TIP3    H236383   0.280   0.496   6.174  1.5919 -1.2951 -0.8228
 4990TIP3   OH236384   2.201   0.801  13.403 -0.0525  0.4036  0.6062
 4990TIP3    H136385   2.146   0.872  13.437 -1.1420  2.0649 -3.8922
 4990TIP3    H236386   2.260   0.844  13.341  1.7209 -2.2450  0.2874
 4991TIP3   OH236387   1.243   4.376   1.086 -0.0805 -0.3340  0.2532
 4991TIP3    H136388   1.237   4.471   1.089  0.2260 -0.2048 -1.7609
 4991TIP3    H236389   1.336   4.357   1.102  0.2608 -0.1225 -1.2924
 4992TIP3   OH236390   5.705   3.908  13.379 -0.1358  0.3861  0.5047
 4992TIP3    H136391   5.725   3.934  13.469 -0.6913  1.2347  0.4048
 4992TIP3    H236392   5.610   3.921  13.371 -0.9112 -3.7834  1.0671
 4993TIP3   OH236393   1.555   6.457  13.710  0.2058  0.4460  0.3128
 4993TIP3    H136394   1.467   6.456  13.674  0.1348 -1.0925  0.4748
 4993TIP3    H236395   1.609   6.417  13.642  0.6784  0.7822  0.4837
 4994TIP3   OH236396   3.148   6.479   1.553  0.7684 -0.0357 -0.3303
 4994TIP3    H136397   3.183   6.494   1.641 -0.5732  3.8567 -0.2537
 4994TIP3    H236398   3.141   6.566   1.515 -0.8327 -1.3803 -3.4744
 4995TIP3   OH236399   0.752   0.742  14.116 -0.2058  0.0534 -0.1200
 4995TIP3    H136400   0.827   0.728  14.059 -1.1234 -0.0149 -1.3733
 4995TIP3    H236401   0.773   0.695  14.197  1.5980  1.0528  0.0422
 4996TIP3   OH236402   1.256   4.838  14.623 -0.1945  0.4648  0.0016
 4996TIP3    H136403   1.274   4.827  14.717  0.5622  0.0582 -0.1842
 4996TIP3    H236404   1.312   4.912  14.597 -0.5447  0.6980 -0.0917
 4997TIP3   OH236405   2.750   6.494   0.427 -0.2467  0.3691  0.2335
 4997TIP3    H136406   2.771   6.402   0.441 -0.4626  0.4286  1.0009
 4997TIP3    H236407   2.767   6.536   0.512  0.2009  1.1039 -0.2013
 4998TIP3   OH236408   4.034   0.972  12.216  0.4414  0.1678  0.0929
 4998TIP3    H136409   4.053   0.909  12.286  0.9849 -2.4688 -2.2421
 4998TIP3    H236410   3.949   0.946  12.183  0.7208  0.5804 -0.9913
 4999TIP3   OH236411   0.810   6.228  13.479  0.0159  0.3899 -0.0376
 4999TIP3    H136412   0.896   6.260  13.453  0.7221  0.0069  1.6433
 4999TIP3    H236413   0.751   6.301  13.462  0.5288  0.4342 -1.8394
 5000TIP3   OH236414   5.923   2.534  11.820 -0.2466 -0.2247  0.3208
 5000TIP3    H136415   5.997   2.506  11.767 -0.8305 -1.5430  0.1796
 5000TIP3    H236416   5.961   2.549  11.907  0.0045 -2.0907  0.5774
 5001TIP3   OH236417   3.118   4.774  16.774  0.2819  0.2062 -0.1217
 5001TIP3    H136418   3.142   4.683  16.793  2.2668  0.5471 -0.7088
 5001TIP3    H236419   3.199   4.823  16.788 -0.8443  1.9696  0.5574
 5002TIP3   OH236420   6.123   6.348   3.112  0.3596 -0.1118 -0.6516
 5002TIP3    H136421   6.123   6.282   3.182  1.9698  0.3106 -0.2094
 5002TIP3    H236422   6.037   6.339   3.071 -2.6817  2.5632  4.0914
 5003TIP3   OH236423   4.837   6.440  11.040  0.1576  0.7005  0.4791
 5003TIP3    H136424   4.811   6.501  10.971  1.2244  1.4577  0.7188
 5003TIP3    H236425   4.912   6.393  11.003  0.7585  1.1355  1.1107
 5004TIP3   OH236426   2.558   4.371  10.461  0.1322  0.0404  0.1475
 5004TIP3    H136427   2.539   4.289  10.506  0.1472 -0.4259 -0.6828
 5004TIP3    H236428   2.519   4.439  10.516  1.4774 -0.3696  1.6620
 5005TIP3   OH236429   4.731   0.460   3.022  0.2429 -0.1374 -0.1049
 5005TIP3    H136430   4.723   0.520   2.947  0.2931 -1.4591 -1.1963
 5005TIP3    H236431   4.668   0.493   3.085  1.0012  1.6939 -0.2337
 5006TIP3   OH236432   4.510   5.442  15.054 -0.4592  0.4005  0.1857
 5006TIP3    H136433   4.427   5.479  15.023 -0.2004  1.0770  0.3073
 5006TIP3    H236434   4.498   5.347  15.044 -1.6456  0.4244  1.1911
 5007TIP3   OH236435   2.175   4.550   6.084  0.0471  0.2023 -0.0501
 5007TIP3    H136436   2.263   4.537   6.117 -0.6565 -1.3674  1.3450
 5007TIP3    H236437   2.124   4.578   6.159 -0.4215  2.4806 -1.1254
 5008TIP3   OH236438   4.810   3.642   0.064 -0.0641  0.4229  0.3212
 5008TIP3    H136439   4.754   3.606   0.133  0.5539 -0.0389  0.5823
 5008TIP3    H236440   4.828   3.732   0.092 -1.5481  0.9502 -0.2944
 5009TIP3   OH236441   1.241   6.316   0.737  0.3429  0.1124  0.3265
 5009TIP3    H136442   1.218   6.248   0.674 -1.4934 -0.2539  1.3048
 5009TIP3    H236443   1.292   6.271   0.805 -1.2477 -0.4611  1.2044
 5010TIP3   OH236444   2.943   0.217  16.406  0.0565  0.0779  0.2078
 5010TIP3    H136445   3.001   0.231  16.331 -2.8005  0.4371 -2.1196
 5010TIP3    H236446   3.001   0.191  16.477  3.1389  1.4616 -1.6052
 5011TIP3   OH236447   5.872   5.750   5.008 -0.4226  0.0362 -0.5058
 5011TIP3    H136448   5.879   5.846   5.016  0.3972  0.1518 -2.2676
 5011TIP3    H236449   5.899   5.718   5.094 -1.3693  1.3956  0.3478
 5012TIP3   OH236450   3.353   1.922  13.909 -0.1243  0.6631 -0.0103
 5012TIP3    H136451   3.275   1.966  13.875 -0.6023  0.8631  1.2999
 5012TIP3    H236452   3.394   1.986  13.967  0.4136  0.1588  0.1783
 5013TIP3   OH236453   2.947   5.465  14.273  0.6961  0.4446  0.3457
 5013TIP3    H136454   3.041   5.462  14.256  0.4272  0.2138 -1.2524
 5013TIP3    H236455   2.909   5.499  14.192 -0.8128 -2.0240 -0.1149
 5014TIP3   OH236456   3.612   4.229   2.647 -0.4292 -0.3477  0.2743
 5014TIP3    H136457   3.571   4.232   2.733  0.3072  0.6576  0.6053
 5014TIP3    H236458   3.635   4.319   2.628  1.8998 -0.8807  0.2696
 5015TIP3   OH236459   5.918   6.143  11.202 -0.3931  0.7026  0.7179
 5015TIP3    H136460   5.899   6.208  11.135 -1.0328  0.5406  0.7329
 5015TIP3    H236461   5.944   6.065  11.153 -0.0041  0.8483  0.6890
 5016TIP3   OH236462   3.061   2.948  15.163 -0.7237  0.2714 -0.2144
 5016TIP3    H136463   3.146   2.931  15.204 -0.2469 -1.2418 -1.7573
 5016TIP3    H236464   3.037   2.866  15.121 -2.6101  0.9002 -0.4659
 5017TIP3   OH236465   6.562   3.294  12.569  0.1813 -0.2114  0.5117
 5017TIP3    H136466   6.474   3.258  12.570 -0.5864  1.5225 -0.3846
 5017TIP3    H236467   6.572   3.334  12.656 -0.1835  0.1649  0.3840
 5018TIP3   OH236468   5.057   2.630  11.698  0.5972  0.8545  0.5465
 5018TIP3    H136469   5.083   2.582  11.619 -1.1249  1.0947 -0.1950
 5018TIP3    H236470   5.067   2.567  11.769  4.0022  1.1474  0.5379
 5019TIP3   OH236471   5.133   5.584  15.398  0.3887 -0.2342  0.6249
 5019TIP3    H136472   5.091   5.502  15.424 -1.8157  0.3000 -0.9840
 5019TIP3    H236473   5.217   5.557  15.360 -0.4379 -1.7931 -0.1865
 5020TIP3   OH236474   1.173   3.140   0.424  0.4604  0.2588  0.0955
 5020TIP3    H136475   1.221   3.222   0.411 -1.0797  1.1968  0.0356
 5020TIP3    H236476   1.114   3.159   0.497 -1.8677  0.1575 -1.6522
 5021TIP3   OH236477   4.855   6.106   0.246 -0.1491 -0.1080 -0.1170
 5021TIP3    H136478   4.772   6.086   0.203 -0.6038 -3.2540  1.8764
 5021TIP3    H236479   4.842   6.078   0.337  2.6084  0.7225  0.6219
 5022TIP3   OH236480   2.313   6.135   5.333 -0.5623  0.0933  0.0126
 5022TIP3    H136481   2.295   6.045   5.305 -1.6824  0.9258 -2.1655
 5022TIP3    H236482   2.245   6.154   5.397 -0.0696 -0.7190  0.8004
 5023TIP3   OH236483   6.731   1.186   0.781 -0.7088 -0.1225 -0.1935
 5023TIP3    H136484   6.653   1.196   0.726 -0.7821  0.4610  0.0057
 5023TIP3    H236485   6.696   1.178   0.870 -0.5325  0.5884 -0.0513
 5024TIP3   OH236486   5.692   1.616   1.510 -0.0401 -0.0611  0.2050
 5024TIP3    H136487   5.689   1.710   1.492 -1.6165 -0.4796 -2.0954
 5024TIP3    H236488   5.646   1.576   1.437  1.2232 -2.7168  0.7458
 5025TIP3   OH236489   2.906   5.570   2.598 -0.7766  0.4122 -0.1510
 5025TIP3    H136490   2.893   5.497   2.538 -1.0462  0.2185  0.1392
 5025TIP3    H236491   2.871   5.646   2.551 -1.4484  0.1761 -0.0366
 5026TIP3   OH236492   0.351   3.231  14.349  0.0661  0.4862  0.2939
 5026TIP3    H136493   0.338   3.138  14.328  1.6600 -0.0068  1.2826
 5026TIP3    H236494   0.323   3.277  14.270 -2.8475 -0.6355  0.5268
 5027TIP3   OH236495   2.220   0.373   0.698  0.6785  0.2148 -0.3812
 5027TIP3    H136496   2.188   0.328   0.776 -0.0730  0.1065 -0.7502
 5027TIP3    H236497   2.282   0.311   0.658 -1.2986 -1.0981 -1.5956
 5028TIP3   OH236498   4.652   5.539   0.362  0.5352 -0.3451  0.1305
 5028TIP3    H136499   4.618   5.512   0.277 -1.0179 -0.1898  0.6657
 5028TIP3    H236500   4.578   5.582   0.405  1.9299  1.6677  0.6620
 5029TIP3   OH236501   6.213   2.095   6.403 -0.0194  0.3283  0.3246
 5029TIP3    H136502   6.147   2.026   6.410 -0.5527  0.5924 -1.5415
 5029TIP3    H236503   6.170   2.163   6.351  1.7546  0.4519 -1.0616
 5030TIP3   OH236504   6.715   0.196   4.603 -0.7325 -0.1777  0.0944
 5030TIP3    H136505   6.723   0.176   4.696 -1.7030 -2.1283 -0.1943
 5030TIP3    H236506   6.738   0.289   4.596  2.1011 -0.6248  1.8655
 5031TIP3   OH236507   3.043   6.557  12.884  0.1202 -0.2762  0.4911
 5031TIP3    H136508   3.087   6.641  12.885  0.0861 -0.2575  0.4341
 5031TIP3    H236509   3.010   6.548  12.795 -1.0448  0.2595  0.8501
 5032TIP3   OH236510   1.513   6.621   2.702  0.0139 -0.0894 -0.3212
 5032TIP3    H136511   1.457   6.697   2.690 -1.4969 -0.7997  1.5829
 5032TIP3    H236512   1.519   6.612   2.798  3.4870 -0.0242 -0.3992
 5033TIP3   OH236513   6.108   3.201  16.704  0.1616  0.4791  0.2790
 5033TIP3    H136514   6.197   3.230  16.685 -0.2959  1.2389 -0.7816
 5033TIP3    H236515   6.074   3.170  16.619 -0.6304  0.3360  0.6370
 5034TIP3   OH236516   1.749   5.214   3.146  0.3041 -0.0232 -0.3458
 5034TIP3    H136517   1.658   5.194   3.166 -0.0988  0.9436 -1.1321
 5034TIP3    H236518   1.797   5.137   3.176 -0.6149 -0.0507  1.1798
 5035TIP3   OH236519   4.452   4.268   5.713 -0.0118 -0.2431 -0.0463
 5035TIP3    H136520   4.525   4.247   5.771  0.6122  1.0206 -0.3296
 5035TIP3    H236521   4.374   4.236   5.759  0.6094 -0.5198  0.8308
 5036TIP3   OH236522   1.814   0.695  13.119 -0.4145  0.2815  0.0889
 5036TIP3    H136523   1.894   0.646  13.100 -0.3083  1.0060 -1.5235
 5036TIP3    H236524   1.844   0.778  13.155 -0.5241 -0.1100  1.1072
 5037TIP3   OH236525   4.422   6.773  15.727 -0.2631 -0.4972  0.1452
 5037TIP3    H136526   4.345   6.721  15.707  0.2094 -0.3171 -2.4489
 5037TIP3    H236527   4.389   6.845  15.781 -1.5945 -1.2772  0.4062
 5038TIP3   OH236528   4.705   4.244   6.656  0.3521  0.7483 -0.0958
 5038TIP3    H136529   4.610   4.244   6.647  0.3861  0.5680 -0.4695
 5038TIP3    H236530   4.721   4.283   6.742 -0.1589 -1.3428  1.0210
 5039TIP3   OH236531   2.491   2.570   1.409  0.1201  0.2794 -0.1731
 5039TIP3    H136532   2.429   2.628   1.452  1.4471  1.5863  0.0303
 5039TIP3    H236533   2.463   2.569   1.317  0.3547  1.6407 -0.2771
 5040TIP3   OH236534   3.626   3.615  17.077 -0.0471  0.5175  0.6734
 5040TIP3    H136535   3.713   3.654  17.092  0.1866 -0.1018  0.9453
 5040TIP3    H236536   3.639   3.555  17.004 -0.0312 -0.2761  1.3216
 5041TIP3   OH236537   2.338   0.127   5.824 -0.0504  0.1258  0.6576
 5041TIP3    H136538   2.265   0.065   5.821  0.0634 -0.0112  0.7147
 5041TIP3    H236539   2.321   0.188   5.752  0.2130 -0.3958  0.1388
 5042TIP3   OH236540   3.626   2.754   4.122  0.8415 -0.4412  0.4373
 5042TIP3    H136541   3.627   2.849   4.130 -0.5235 -0.4040  0.4505
 5042TIP3    H236542   3.636   2.722   4.212 -1.1614 -0.2406  0.7778
 5043TIP3   OH236543   0.265   0.025   3.066 -0.3944 -0.4244 -0.3990
 5043TIP3    H136544   0.209  -0.015   2.999  0.6609  0.1539 -1.6760
 5043TIP3    H236545   0.348  -0.022   3.058 -0.0078  0.1875 -0.0397
 5044TIP3   OH236546   1.656   0.480  14.166 -0.3910 -0.3176 -0.4505
 5044TIP3    H136547   1.669   0.563  14.212 -1.9495  0.2503 -0.9616
 5044TIP3    H236548   1.590   0.434  14.217 -2.3039  0.4103 -2.1362
 5045TIP3   OH236549   4.794   1.559   1.170  0.1045 -0.2392  0.2898
 5045TIP3    H136550   4.743   1.587   1.246  0.9535 -0.2031  0.8566
 5045TIP3    H236551   4.781   1.629   1.106 -1.3137 -0.6855  0.0574
 5046TIP3   OH236552   5.944   2.337  15.941 -0.1401 -0.1761 -0.1012
 5046TIP3    H136553   6.026   2.318  15.986 -0.7813 -0.8325  0.8455
 5046TIP3    H236554   5.892   2.384  16.007 -0.1080  1.2607 -1.0662
 5047TIP3   OH236555   3.428   2.581  14.066 -0.1948  0.1767  0.3017
 5047TIP3    H136556   3.354   2.569  14.007  0.9295  0.1705 -1.1752
 5047TIP3    H236557   3.458   2.492  14.086  1.3495  0.1656 -1.7288
 5048TIP3   OH236558   5.320   0.540   0.291  0.0392  0.5586  0.6407
 5048TIP3    H136559   5.380   0.514   0.361  1.1553  0.4100 -0.3469
 5048TIP3    H236560   5.372   0.598   0.235 -0.6512  0.2387 -0.3697
 5049TIP3   OH236561   4.451   6.782  14.158  0.0093 -0.0429 -0.0117
 5049TIP3    H136562   4.379   6.775  14.220 -1.0966  0.8382 -1.1392
 5049TIP3    H236563   4.473   6.876  14.158  1.6121 -0.3847  0.7890
 5050TIP3   OH236564   2.927   5.568  15.924 -0.4284 -0.3654  0.2547
 5050TIP3    H136565   2.893   5.658  15.920  0.7444  0.1461  1.1611
 5050TIP3    H236566   3.021   5.578  15.907  0.1082 -1.1372  2.4957
 5051TIP3   OH236567   5.576   5.741   2.062  0.0062  0.0724  0.2575
 5051TIP3    H136568   5.656   5.690   2.050 -0.8601 -1.6492  1.3950
 5051TIP3    H236569   5.512   5.699   2.005 -0.5803  0.2461  0.7794
 5052TIP3   OH236570   1.347   5.970  16.115  0.1271 -0.2093  0.1710
 5052TIP3    H136571   1.410   6.027  16.160  1.2655  0.4825 -2.1239
 5052TIP3    H236572   1.352   5.887  16.161  2.2054  0.0651  0.5393
 5053TIP3   OH236573   2.179   1.890   2.917  0.0755 -0.3460 -0.0669
 5053TIP3    H136574   2.097   1.911   2.873  0.9733 -1.0825 -2.2207
 5053TIP3    H236575   2.155   1.825   2.984 -0.8388 -2.4241 -2.2589
 5054TIP3   OH236576   1.899   2.862  16.603  0.1516 -0.4126 -0.0363
 5054TIP3    H136577   1.968   2.928  16.616  0.4038 -0.8947  1.1596
 5054TIP3    H236578   1.941   2.779  16.625  0.3886 -1.2809 -3.2306
 5055TIP3   OH236579   1.172   0.845   0.284  0.4319 -0.0594 -0.5777
 5055TIP3    H136580   1.229   0.774   0.257 -1.7721 -1.2797 -2.4432
 5055TIP3    H236581   1.196   0.918   0.227  1.5913  0.1902  0.2054
 5056TIP3   OH236582   6.180   6.232  12.153 -0.0280 -0.2216  0.6883
 5056TIP3    H136583   6.102   6.203  12.106  1.1447  1.1114 -2.3217
 5056TIP3    H236584   6.178   6.327  12.145 -0.2814  0.2355  4.4514
 5057TIP3   OH236585   4.387   2.983  15.962  0.4067 -0.4921 -0.3687
 5057TIP3    H136586   4.329   2.917  15.997  0.6676  0.3476  1.7868
 5057TIP3    H236587   4.331   3.040  15.910 -0.6408 -0.0046  1.2352
 5058TIP3   OH236588   3.951   1.041  16.988  0.1889  0.7540  0.6475
 5058TIP3    H136589   3.909   1.099  17.051  1.7806  1.6911  0.9174
 5058TIP3    H236590   4.028   1.090  16.958 -1.4443  1.1229 -3.4724
 5059TIP3   OH236591   0.905   6.669  11.325  0.3692  0.4382 -0.1220
 5059TIP3    H136592   0.868   6.597  11.376  1.0618  1.0936  1.3505
 5059TIP3    H236593   0.831   6.729  11.312  0.4268  0.7966  1.0996
 5060TIP3   OH236594   3.096   4.032   5.639 -0.1469  0.3496  0.0931
 5060TIP3    H136595   3.017   3.998   5.597  0.2356 -3.9657  2.2306
 5060TIP3    H236596   3.065   4.067   5.723 -0.0613  1.4580 -0.3253
 5061TIP3   OH236597   0.804   6.583  14.208 -0.1920 -0.1138  0.0864
 5061TIP3    H136598   0.729   6.642  14.218  1.1367  1.7823 -0.6360
 5061TIP3    H236599   0.789   6.540  14.124 -0.6025  0.0521  0.0695
 5062TIP3   OH236600   0.467   3.347  11.565  0.4066  0.2833  0.8556
 5062TIP3    H136601   0.513   3.372  11.485 -0.3053 -0.6672  0.1267
 5062TIP3    H236602   0.532   3.357  11.635  2.1959 -2.3241 -0.2828
 5063TIP3   OH236603   6.116   0.212   0.679 -0.1311  0.2146 -0.2033
 5063TIP3    H136604   6.061   0.287   0.659 -0.8324  0.2088  1.5313
 5063TIP3    H236605   6.081   0.177   0.761  2.2584  0.0516  0.8531
 5064TIP3   OH236606   4.936   3.940  12.711 -0.3079 -0.1946  0.4834
 5064TIP3    H136607   5.027   3.911  12.702  0.5250  2.6379 -2.1045
 5064TIP3    H236608   4.884   3.864  12.685  1.5443 -0.7362 -2.0895
 5065TIP3   OH236609   5.960   5.229  14.774 -0.2284  0.4050 -0.4453
 5065TIP3    H136610   6.049   5.231  14.738  0.2323 -0.2807  0.5938
 5065TIP3    H236611   5.954   5.311  14.824 -0.4773  0.8340 -1.1657
 5066TIP3   OH236612   4.790   0.869   4.592  0.2297  0.2595  0.3528
 5066TIP3    H136613   4.836   0.930   4.534  0.6812  1.1615  1.6187
 5066TIP3    H236614   4.759   0.924   4.664 -0.6094 -0.7790  0.8007
 5067TIP3   OH236615   4.997   5.454  13.809  0.4204  0.0090 -0.0889
 5067TIP3    H136616   5.035   5.366  13.814 -0.2693 -0.2622  0.4114
 5067TIP3    H236617   4.986   5.481  13.900 -2.8766 -0.9259 -0.0966
 5068TIP3   OH236618   0.875   0.478   0.092 -0.0514  0.0803  0.7996
 5068TIP3    H136619   0.965   0.509   0.090  0.8102 -2.2552  0.0543
 5068TIP3    H236620   0.862   0.450   0.183 -0.0678  0.4713  0.9213
 5069TIP3   OH236621   0.765   1.514   4.375 -0.3421 -0.0484  0.4551
 5069TIP3    H136622   0.672   1.490   4.370 -0.5355  0.4939  1.1319
 5069TIP3    H236623   0.787   1.504   4.468  0.6023 -1.2845  0.1225
 5070TIP3   OH236624   4.781   2.438  11.282  0.5710 -0.4005  0.5409
 5070TIP3    H136625   4.687   2.427  11.292  0.3264  0.5028 -0.6308
 5070TIP3    H236626   4.817   2.349  11.293 -0.5186 -0.9313 -0.0885
 5071TIP3   OH236627   5.659   0.544   1.845 -0.1292  0.4987  0.2259
 5071TIP3    H136628   5.575   0.576   1.877 -1.2348 -0.5794 -1.4366
 5071TIP3    H236629   5.678   0.599   1.769  0.9879  1.1132  0.9261
 5072TIP3   OH236630   4.495   2.566   2.085 -0.1894 -0.2817  0.2060
 5072TIP3    H136631   4.411   2.541   2.045 -0.3352  0.4032  0.0646
 5072TIP3    H236632   4.526   2.486   2.128 -0.1428 -0.9787 -1.0644
 5073TIP3   OH236633   6.135   2.242  13.701  0.4292 -0.5975  0.6834
 5073TIP3    H136634   6.213   2.201  13.739  0.5192 -0.3622  0.7542
 5073TIP3    H236635   6.123   2.196  13.618  0.0060 -1.3757  1.1653
 5074TIP3   OH236636   3.754   0.241   5.274 -0.4492 -0.2672  0.3189
 5074TIP3    H136637   3.794   0.155   5.284 -0.4114 -0.2491  0.3248
 5074TIP3    H236638   3.668   0.232   5.314 -0.8962 -0.6222 -0.7026
 5075TIP3   OH236639   4.277   0.243   3.578 -0.3140 -0.2303 -0.2326
 5075TIP3    H136640   4.251   0.211   3.492 -0.4767 -2.7661  0.6867
 5075TIP3    H236641   4.201   0.291   3.610 -0.4795  0.2004 -1.2296
 5076TIP3   OH236642   1.274   1.495   0.786  0.2774  0.4441 -1.0293
 5076TIP3    H136643   1.323   1.479   0.867  1.8574  2.2226 -1.5592
 5076TIP3    H236644   1.285   1.414   0.735  1.0366  0.0727 -0.3126
 5077TIP3   OH236645   2.066   3.340  15.218  0.3194  0.1884  0.1861
 5077TIP3    H136646   2.151   3.381  15.231 -0.0633  1.5533 -1.3444
 5077TIP3    H236647   2.004   3.413  15.217 -0.5200 -0.4952 -1.4296
 5078TIP3   OH236648   6.785   1.717  13.579  0.3503 -0.2146 -0.9791
 5078TIP3    H136649   6.836   1.645  13.543  1.9531 -0.1166  0.9207
 5078TIP3    H236650   6.826   1.737  13.663 -2.1519  0.6449  0.1719
 5079TIP3   OH236651   5.081   2.634  16.998  0.1728 -0.1720  0.0704
 5079TIP3    H136652   5.029   2.694  17.052 -0.6034  1.6583 -2.5499
 5079TIP3    H236653   5.165   2.679  16.985  0.0208 -0.1649 -0.9600
 5080TIP3   OH236654   0.495   5.593  14.539  0.1065  0.3337 -0.1725
 5080TIP3    H136655   0.510   5.687  14.548 -1.0930  0.4234  1.3613
 5080TIP3    H236656   0.451   5.584  14.454 -1.8856  1.5085  0.6546
 5081TIP3   OH236657   6.376   4.068  13.234 -0.3166 -0.2091  0.2843
 5081TIP3    H136658   6.309   4.068  13.302  2.4994 -0.5950  3.3077
 5081TIP3    H236659   6.397   4.160  13.221 -0.9771 -0.1243 -0.2179
 5082TIP3   OH236660   2.647   6.640   2.883 -0.3192 -0.0159  0.5885
 5082TIP3    H136661   2.660   6.716   2.939  1.4440 -0.3812  0.7286
 5082TIP3    H236662   2.557   6.612   2.901 -0.9682  1.9591  0.5867
 5083TIP3   OH236663   2.069   5.785   1.514  0.2471 -0.0623  0.8515
 5083TIP3    H136664   2.084   5.872   1.477 -0.0878 -0.9454 -1.4741
 5083TIP3    H236665   1.981   5.761   1.483  0.4809 -1.3744  1.1684
 5084TIP3   OH236666   3.826   0.103   4.648 -0.1959  0.3606 -0.1421
 5084TIP3    H136667   3.753   0.081   4.590  0.6654 -0.1165 -1.0849
 5084TIP3    H236668   3.802   0.066   4.732 -0.7358 -0.4009 -0.6186
 5085TIP3   OH236669   0.616   1.781  16.650  0.9017  0.3644  0.2549
 5085TIP3    H136670   0.591   1.840  16.721  1.4598 -1.9169  2.4487
 5085TIP3    H236671   0.709   1.764  16.663  0.6653 -1.3379 -0.0382
 5086TIP3   OH236672   0.205   4.469   0.344  0.3568  0.0689  0.0153
 5086TIP3    H136673   0.238   4.542   0.395 -1.0697  1.7188 -1.3239
 5086TIP3    H236674   0.116   4.493   0.321  0.0301 -1.8379 -0.9557
 5087TIP3   OH236675   3.564   1.028   5.624  0.3481  0.2937  0.3395
 5087TIP3    H136676   3.530   1.113   5.649 -1.9029 -0.2356 -0.6178
 5087TIP3    H236677   3.655   1.044   5.602 -0.3441  2.7720 -1.1631
 5088TIP3   OH236678   2.332   4.777  13.268 -0.1538 -0.1454  0.0265
 5088TIP3    H136679   2.371   4.847  13.321 -0.1055 -0.0829 -0.0922
 5088TIP3    H236680   2.402   4.748  13.210 -0.6667  0.9500 -1.2013
 5089TIP3   OH236681   0.821   2.794   6.383  0.4894  0.8253  0.1575
 5089TIP3    H136682   0.863   2.711   6.359  0.5349 -0.3534  3.7026
 5089TIP3    H236683   0.737   2.768   6.420  0.5547  2.3109  1.4632
 5090TIP3   OH236684   4.875   5.115   4.959 -0.2950 -0.3442  0.1153
 5090TIP3    H136685   4.868   5.210   4.966 -1.0491 -0.3916  0.0583
 5090TIP3    H236686   4.968   5.097   4.977 -0.3357  0.3145  1.0439
 5091TIP3   OH236687   6.652   4.559   3.972 -0.2309  0.0924 -0.0202
 5091TIP3    H136688   6.611   4.510   3.900 -2.1980  1.3638  0.1470
 5091TIP3    H236689   6.640   4.651   3.948 -0.1488  0.5276  1.5174
 5092TIP3   OH236690   5.899   2.732   3.443 -0.1669  0.2890 -0.0686
 5092TIP3    H136691   5.894   2.803   3.508  1.7253  0.0253  0.4362
 5092TIP3    H236692   5.825   2.676   3.463 -1.2962  1.7322 -0.0182
 5093TIP3   OH236693   4.218   6.065  11.363  0.3058  0.0081  0.0401
 5093TIP3    H136694   4.186   6.153  11.383 -0.5142 -0.0748 -0.8431
 5093TIP3    H236695   4.313   6.074  11.359  0.1612  1.2173 -1.6556
 5094TIP3   OH236696   0.306   4.529  14.842 -0.4397 -0.5133 -0.5948
 5094TIP3    H136697   0.234   4.484  14.886  0.4461 -1.7101 -0.3213
 5094TIP3    H236698   0.288   4.622  14.855 -0.7010 -0.8003  1.5320
 5095TIP3   OH236699   3.040   6.090  11.960 -0.2546  0.4053  0.0722
 5095TIP3    H136700   3.122   6.053  11.927 -0.9567 -0.2561 -1.0119
 5095TIP3    H236701   2.991   6.112  11.881 -1.2893  0.4047  0.6963
 5096TIP3   OH236702   4.854   2.602   4.901  0.4453 -0.1454  0.0731
 5096TIP3    H136703   4.831   2.555   4.821 -0.2649 -0.9107  0.7043
 5096TIP3    H236704   4.804   2.684   4.896 -2.0791 -1.5111  1.1216
 5097TIP3   OH236705   4.201   4.023  12.725 -0.2798  0.9504 -0.3421
 5097TIP3    H136706   4.240   4.098  12.680 -0.9240  2.0541  0.8889
 5097TIP3    H236707   4.143   3.983  12.660 -0.6378  2.0858 -0.7435
 5098TIP3   OH236708   2.047   5.575   2.929 -0.0638  0.0448 -0.2127
 5098TIP3    H136709   2.126   5.523   2.920 -0.5264 -1.0511  1.5771
 5098TIP3    H236710   2.070   5.644   2.992 -0.2377  0.3716 -0.4997
 5099TIP3   OH236711   2.786   2.991   0.451 -0.0741  0.5954  0.8611
 5099TIP3    H136712   2.834   2.916   0.486 -0.7206  0.6898  2.0350
 5099TIP3    H236713   2.694   2.963   0.454 -0.1037  0.1388 -2.0200
 5100TIP3   OH236714   4.241   4.760   3.365 -0.2085 -0.6739 -0.3680
 5100TIP3    H136715   4.315   4.793   3.417 -0.4700  0.5636 -0.7487
 5100TIP3    H236716   4.282   4.704   3.299  0.5196  0.6625 -1.1062
 5101TIP3   OH236717   0.477   3.220  16.415 -0.4370  0.1626 -0.6102
 5101TIP3    H136718   0.476   3.315  16.428 -0.4468 -0.0705  1.4190
 5101TIP3    H236719   0.570   3.197  16.421 -0.2708  0.1798 -2.5785
 5102TIP3   OH236720   5.230   3.365  14.526 -0.1141  0.2641  0.5326
 5102TIP3    H136721   5.302   3.411  14.568 -0.0919  1.7470 -1.0175
 5102TIP3    H236722   5.169   3.435  14.501 -0.8311 -0.6975 -0.4859
 5103TIP3   OH236723   2.590   5.777  16.758  0.3325  0.4155  0.0509
 5103TIP3    H136724   2.497   5.781  16.733  0.2391  1.9118  0.5475
 5103TIP3    H236725   2.636   5.813  16.682  0.2496  2.4483  0.9052
 5104TIP3   OH236726   1.754   6.461   3.963 -0.3324 -0.0537  0.1527
 5104TIP3    H136727   1.803   6.540   3.940 -1.1820  0.9989  1.7866
 5104TIP3    H236728   1.678   6.462   3.904  0.0488 -0.0686 -0.3434
 5105TIP3   OH236729   4.233   3.532  15.697  0.3823  0.5037 -0.0761
 5105TIP3    H136730   4.288   3.555  15.772  0.2256  0.3598  0.0824
 5105TIP3    H236731   4.148   3.572  15.716 -0.2903 -1.2519  0.8152
 5106TIP3   OH236732   4.326   6.518   4.163 -0.3740  0.3411  0.0912
 5106TIP3    H136733   4.237   6.540   4.190  0.2857  2.0642  0.9711
 5106TIP3    H236734   4.317   6.433   4.119 -2.3131  0.0936  0.8698
 5107TIP3   OH236735   4.364   6.040  16.020  0.0545 -0.2628  0.5858
 5107TIP3    H136736   4.290   6.012  15.966  0.7423  0.3803 -0.7403
 5107TIP3    H236737   4.413   5.960  16.037 -0.1039 -0.4527  0.1509
 5108TIP3   OH236738   0.103   0.034   0.630  0.0046  0.0165 -0.0612
 5108TIP3    H136739   0.194   0.060   0.621  0.0432  0.0379  0.3485
 5108TIP3    H236740   0.077   0.005   0.543  0.7527 -1.1100  0.0618
 5109TIP3   OH236741   4.708   2.991   0.146  0.5688  0.1455 -0.0523
 5109TIP3    H136742   4.675   3.062   0.090 -0.7720  0.0021  0.5137
 5109TIP3    H236743   4.659   3.001   0.228  1.6650 -0.3571  0.6802
 5110TIP3   OH236744   3.719   0.298  17.083 -0.7494  0.7010 -0.0472
 5110TIP3    H136745   3.648   0.242  17.052 -0.6889  0.0681  0.9236
 5110TIP3    H236746   3.676   0.381  17.104 -1.3578  0.0623  1.3041
 5111TIP3   OH236747   1.770   1.437  15.591  0.2088  0.3672  0.5917
 5111TIP3    H136748   1.814   1.457  15.508  1.2656 -2.4565  0.3613
 5111TIP3    H236749   1.729   1.520  15.617  1.1966  1.7545 -1.9082
 5112TIP3   OH236750   1.409   0.877  15.238 -0.1601  0.6099  0.0898
 5112TIP3    H136751   1.446   0.813  15.300 -1.2710  1.2589  1.4906
 5112TIP3    H236752   1.345   0.826  15.188  0.2732  0.2250 -0.0880
 5113TIP3   OH236753   3.507   5.874  16.690  0.3506  0.2735  0.1227
 5113TIP3    H136754   3.541   5.901  16.604  0.7144 -0.6753 -0.0481
 5113TIP3    H236755   3.583   5.881  16.748  0.5919 -0.8615 -0.0382
 5114TIP3   OH236756   2.412   4.253   2.671 -0.1498 -0.0420 -0.1246
 5114TIP3    H136757   2.383   4.239   2.581  1.6593 -1.3182 -0.5808
 5114TIP3    H236758   2.493   4.304   2.663  0.1898 -0.4125  0.7445
 5115TIP3   OH236759   0.611   2.425  15.076  0.4679  0.0926 -0.9940
 5115TIP3    H136760   0.601   2.337  15.112 -0.4396  0.1372 -1.1182
 5115TIP3    H236761   0.552   2.480  15.128  1.8639  0.8700 -0.1608
 5116TIP3   OH236762   5.595   4.010   3.921 -0.2618 -0.0469  0.4229
 5116TIP3    H136763   5.581   4.097   3.957  0.3809 -0.5565  1.9856
 5116TIP3    H236764   5.510   3.987   3.882 -0.1149  1.6961 -1.0555
 5117TIP3   OH236765   1.798   2.302   2.740  0.3764 -0.4898 -0.1744
 5117TIP3    H136766   1.853   2.224   2.742  2.3572  0.8136 -0.9111
 5117TIP3    H236767   1.759   2.301   2.653  1.9123  0.2690 -0.9156
 5118TIP3   OH236768   4.031   5.334  13.845  0.2437 -0.2514 -0.3387
 5118TIP3    H136769   4.079   5.355  13.925 -2.4641  0.5085  1.1938
 5118TIP3    H236770   4.008   5.419  13.808 -0.2206 -0.5832 -0.8329
 5119TIP3   OH236771   3.436   0.263  12.122 -0.4907 -0.9882 -0.2494
 5119TIP3    H136772   3.398   0.180  12.094 -0.5060 -1.1136  0.1388
 5119TIP3    H236773   3.360   0.320  12.137 -0.4452 -0.2167 -2.5422
 5120TIP3   OH236774   5.198   5.473   5.280  0.1060 -0.3221  0.9057
 5120TIP3    H136775   5.204   5.382   5.310  0.0944 -0.5940  0.1031
 5120TIP3    H236776   5.167   5.466   5.189  1.7255  0.4050  0.2665
 5121TIP3   OH236777   0.364   3.878   1.927  0.3763  0.5498 -0.0565
 5121TIP3    H136778   0.271   3.888   1.948 -0.1919  1.2522 -2.5123
 5121TIP3    H236779   0.388   3.962   1.888  1.3432 -0.4573 -1.7378
 5122TIP3   OH236780   0.055   0.320  16.379 -0.2257 -0.1822  0.2568
 5122TIP3    H136781   0.137   0.298  16.423  0.2072  0.0315 -0.4209
 5122TIP3    H236782   0.082   0.361  16.297 -0.9941 -0.9933 -0.4355
 5123TIP3   OH236783   3.114   6.704  12.144  0.4812 -0.3690  0.2634
 5123TIP3    H136784   3.196   6.745  12.171 -0.5535  1.2804  1.0576
 5123TIP3    H236785   3.118   6.703  12.048  0.8217  1.1077  0.2317
 5124TIP3   OH236786   6.733   2.574   3.442  0.3353  0.1632 -0.1207
 5124TIP3    H136787   6.663   2.552   3.504 -0.1638  0.8179 -0.4300
 5124TIP3    H236788   6.689   2.579   3.357  0.9247 -0.2680 -0.4557
 5125TIP3   OH236789   2.810   1.124   4.716 -0.4435 -0.2388 -0.3675
 5125TIP3    H136790   2.718   1.125   4.690 -0.7490 -2.3718  0.4203
 5125TIP3    H236791   2.856   1.164   4.642 -1.7639 -1.5162 -1.9656
 5126TIP3   OH236792   2.493   0.287  15.248  0.1462  0.0310 -0.1550
 5126TIP3    H136793   2.505   0.369  15.200  0.2377 -1.2216 -2.4073
 5126TIP3    H236794   2.566   0.232  15.218 -0.4614 -1.1977  0.5844
 5127TIP3   OH236795   2.408   4.816   4.228 -0.9531  0.3445 -0.3689
 5127TIP3    H136796   2.356   4.737   4.217  0.2377 -0.0557 -5.1164
 5127TIP3    H236797   2.498   4.784   4.241 -1.0420  1.0538  2.8134
 5128TIP3   OH236798   4.346   1.159  10.384  0.2119  0.4548  0.1078
 5128TIP3    H136799   4.345   1.065  10.365  0.1407  0.8237 -1.9345
 5128TIP3    H236800   4.258   1.178  10.416 -0.1235 -0.0124 -0.5008
 5129TIP3   OH236801   2.219   2.511   3.283 -0.6564 -0.7360  0.2102
 5129TIP3    H136802   2.186   2.599   3.304 -1.4325 -1.1137  0.6394
 5129TIP3    H236803   2.149   2.471   3.232 -0.3875 -1.1689  0.1760
 5130TIP3   OH236804   0.886   5.925   3.319 -0.2640  0.9537 -0.2407
 5130TIP3    H136805   0.948   5.860   3.285 -1.1287  0.4108 -0.8350
 5130TIP3    H236806   0.835   5.951   3.242 -0.3148  1.9131  0.1089
 5131TIP3   OH236807   3.552   0.758   5.427  0.5002  0.0370  0.5478
 5131TIP3    H136808   3.466   0.715   5.429  0.6130 -0.1819  0.8609
 5131TIP3    H236809   3.561   0.799   5.513 -0.6034  2.7344 -0.5150
 5132TIP3   OH236810   1.427   1.164   5.950 -0.1449  0.7110  0.2316
 5132TIP3    H136811   1.460   1.167   6.040  0.8778  0.3541 -0.1107
 5132TIP3    H236812   1.506   1.172   5.895 -0.3712 -1.7970 -0.6280
 5133TIP3   OH236813   4.027   4.380   3.155  0.2767 -0.6068  0.2038
 5133TIP3    H136814   4.042   4.332   3.237  0.0956 -0.2166  0.4709
 5133TIP3    H236815   4.115   4.404   3.125  0.3165 -0.2816  0.5720
 5134TIP3   OH236816   1.796   4.158   4.575 -0.7933  0.2646  0.2777
 5134TIP3    H136817   1.827   4.210   4.501 -2.8476 -0.1068 -0.9133
 5134TIP3    H236818   1.741   4.218   4.625 -0.4857  0.1343  0.7832
 5135TIP3   OH236819   1.226   5.024  11.971  0.4257  0.7355  0.5037
 5135TIP3    H136820   1.246   4.931  11.979 -0.2409  0.4621 -0.7300
 5135TIP3    H236821   1.308   5.064  11.942  0.1926  0.1819 -1.0127
 5136TIP3   OH236822   3.747   5.062   5.220  0.3769 -0.0141  0.3609
 5136TIP3    H136823   3.654   5.046   5.203 -0.4608 -0.5017  4.3402
 5136TIP3    H236824   3.784   4.976   5.238  1.0411  0.3596  0.8629
 5137TIP3   OH236825   5.167   5.513  15.699  0.4950 -0.4522 -0.3552
 5137TIP3    H136826   5.246   5.537  15.747  0.1826 -1.7622  0.8784
 5137TIP3    H236827   5.186   5.537  15.608  1.7951  0.4340  0.1267
 5138TIP3   OH236828   0.678   0.720  12.055  0.4435  0.0422  0.2950
 5138TIP3    H136829   0.695   0.667  11.977 -0.6660  1.7185 -1.1607
 5138TIP3    H236830   0.709   0.666  12.127  0.1818 -2.2059 -1.1645
 5139TIP3   OH236831   2.594   6.083  15.929  0.7678 -0.5979  0.4246
 5139TIP3    H136832   2.615   6.026  16.003  1.5171 -0.4818  0.3150
 5139TIP3    H236833   2.516   6.044  15.889  0.8806 -1.1608  0.7508
 5140TIP3   OH236834   5.796   4.798   4.358  0.3566 -0.0229  0.4331
 5140TIP3    H136835   5.832   4.764   4.277 -0.7805 -1.0506  0.3335
 5140TIP3    H236836   5.832   4.886   4.365 -1.4496  1.0876 -2.4868
 5141TIP3   OH236837   6.743   5.710  10.319 -0.3823 -0.4041 -0.6666
 5141TIP3    H136838   6.726   5.685  10.410  1.3125 -0.2640 -0.2848
 5141TIP3    H236839   6.823   5.663  10.295  1.5841  2.6745 -0.6863
 5142TIP3   OH236840   1.439   1.400   6.609 -0.7228  0.1390  0.2392
 5142TIP3    H136841   1.499   1.402   6.684 -0.2550 -1.1103 -0.0718
 5142TIP3    H236842   1.473   1.467   6.549 -0.4538  0.3905  0.6683
 5143TIP3   OH236843   4.114   1.581   6.009 -0.2474 -0.9202  0.1196
 5143TIP3    H136844   4.145   1.662   5.968 -0.5269 -1.0005 -0.2615
 5143TIP3    H236845   4.117   1.598   6.103 -3.4685  0.7859  0.0486
 5144TIP3   OH236846   2.237   1.011  14.169 -0.4241  0.8547 -0.0867
 5144TIP3    H136847   2.258   1.096  14.208 -2.1954  0.9980  0.6505
 5144TIP3    H236848   2.318   0.984  14.126  1.3630  1.1299  2.8425
 5145TIP3   OH236849   4.793   2.918   4.752 -0.4981 -0.2807  0.3803
 5145TIP3    H136850   4.808   2.921   4.657  0.9289 -0.4919  0.5737
 5145TIP3    H236851   4.710   2.872   4.762  0.2285 -1.9159 -0.7056
 5146TIP3   OH236852   1.176   3.183  16.746  0.3103  1.1525  0.1288
 5146TIP3    H136853   1.261   3.169  16.789 -0.2317 -1.4849  0.4865
 5146TIP3    H236854   1.130   3.243  16.804  0.8804  0.3631  1.4426
 5147TIP3   OH236855   2.777   5.013  13.921  0.9634 -0.6481  0.0178
 5147TIP3    H136856   2.695   5.047  13.955  1.7537  1.2343  0.1373
 5147TIP3    H236857   2.833   5.003  13.998  1.3419 -0.4859 -0.2335
 5148TIP3   OH236858   4.024   6.776  11.797 -0.1877  0.1530 -0.2932
 5148TIP3    H136859   3.971   6.742  11.726 -1.5614 -1.3536  1.3481
 5148TIP3    H236860   3.962   6.796  11.867  1.2602 -0.5079  1.2690
 5149TIP3   OH236861   0.691   4.556   2.763  0.5615  0.0535  0.0560
 5149TIP3    H136862   0.658   4.484   2.709 -1.3788 -1.1169  2.6109
 5149TIP3    H236863   0.756   4.516   2.820 -0.3121  0.3374  1.2841
 5150TIP3   OH236864   2.864   4.877  15.838 -0.3461 -0.2186  0.4884
 5150TIP3    H136865   2.856   4.834  15.923  0.4946  1.9463  1.7320
 5150TIP3    H236866   2.822   4.962  15.849 -0.1679  0.1501 -1.2652
 5151TIP3   OH236867   1.221   6.057   2.429 -0.0613  0.3405  0.0227
 5151TIP3    H136868   1.140   6.103   2.451 -0.5481  1.0180 -2.7426
 5151TIP3    H236869   1.290   6.118   2.455 -0.5302  0.6810  0.5005
 5152TIP3   OH236870   0.437   6.559  10.591  0.5103  0.0684 -0.3967
 5152TIP3    H136871   0.475   6.479  10.555  0.8074 -0.1764  0.4502
 5152TIP3    H236872   0.353   6.568  10.545 -0.8282 -2.2256  1.3706
 5153TIP3   OH236873   2.301   2.889  17.018  0.3531 -0.9568 -0.2061
 5153TIP3    H136874   2.331   2.932  16.938  1.6923  0.6473  1.0994
 5153TIP3    H236875   2.220   2.845  16.992  1.2312 -1.2931 -2.6578
 5154TIP3   OH236876   6.448   0.963  15.260  0.1240  0.4778 -0.4157
 5154TIP3    H136877   6.502   0.885  15.251  0.7883  0.8831 -0.0508
 5154TIP3    H236878   6.363   0.930  15.289 -0.2763 -0.2899 -2.3036
 5155TIP3   OH236879   4.668   3.938   0.062  0.5320 -0.2984 -0.5128
 5155TIP3    H136880   4.686   4.010   0.123  0.8154 -2.2536  1.8603
 5155TIP3    H236881   4.755   3.910   0.033  0.5712 -1.0053  0.2461
 5156TIP3   OH236882   2.658   1.442  17.011  0.7385  0.2882  0.6853
 5156TIP3    H136883   2.609   1.451  16.929  0.1473  1.7085  1.1552
 5156TIP3    H236884   2.617   1.505  17.070  0.8908 -1.0005  2.2195
 5157TIP3   OH236885   1.828   6.763   5.413 -0.4152 -0.1541 -0.2495
 5157TIP3    H136886   1.773   6.832   5.451  0.1622  0.4581 -0.5104
 5157TIP3    H236887   1.913   6.805   5.400 -0.0623 -0.9177 -0.4221
 5158TIP3   OH236888   0.539   4.366  15.418  0.1138  0.0525  0.2698
 5158TIP3    H136889   0.475   4.319  15.471 -0.7888  0.0055 -0.8092
 5158TIP3    H236890   0.555   4.308  15.344 -0.6866  1.2221 -0.8699
 5159TIP3   OH236891   4.761   1.410   0.881  0.2306 -0.7345  0.8206
 5159TIP3    H136892   4.773   1.464   0.959  0.3289  0.2408  0.1438
 5159TIP3    H236893   4.831   1.438   0.822 -0.6164 -0.5686 -0.1123
 5160TIP3   OH236894   4.383   2.759  12.260 -0.4377 -0.3503 -0.2050
 5160TIP3    H136895   4.311   2.697  12.273 -0.7680 -0.4641 -2.3131
 5160TIP3    H236896   4.342   2.837  12.224  0.2995  0.2343  0.1826
 5161TIP3   OH236897   1.392   5.812  14.099  0.0310 -0.6127 -0.8778
 5161TIP3    H136898   1.386   5.815  14.195 -0.6950 -0.5450 -0.9162
 5161TIP3    H236899   1.472   5.859  14.078 -0.7855  1.0531 -0.3910
 5162TIP3   OH236900   3.872   1.065   6.479 -0.1479 -0.1129 -0.3367
 5162TIP3    H136901   3.866   1.092   6.571 -1.6169  0.5587 -0.6101
 5162TIP3    H236902   3.964   1.078   6.457 -0.1182  1.4119  0.5391
 5163TIP3   OH236903   4.948   4.089   2.060 -0.4494 -0.1956  0.5707
 5163TIP3    H136904   4.908   4.046   1.985  0.3232 -1.6373  0.9563
 5163TIP3    H236905   5.007   4.024   2.097  1.1905  1.3619  0.8721
 5164TIP3   OH236906   0.609   4.186   4.836  0.2676 -0.1275  0.1090
 5164TIP3    H136907   0.599   4.121   4.766  0.9640  0.7435 -0.8387
 5164TIP3    H236908   0.692   4.229   4.816 -0.7890  1.9351 -0.0424
 5165TIP3   OH236909   3.706   4.346   3.044  0.0811  0.7429 -0.7840
 5165TIP3    H136910   3.696   4.418   3.106  0.4895  0.1017  0.0490
 5165TIP3    H236911   3.731   4.271   3.098 -1.0330 -0.2108 -1.5343
 5166TIP3   OH236912   0.708   1.411   4.013  0.7654  0.2468 -0.1682
 5166TIP3    H136913   0.779   1.468   4.044 -0.5124  2.6155 -1.2644
 5166TIP3    H236914   0.629   1.450   4.049 -0.2977  0.0448 -2.1455
 5167TIP3   OH236915   1.668   1.502  13.283 -0.3091 -0.0858  0.3025
 5167TIP3    H136916   1.588   1.462  13.317 -0.0561  0.7772  2.0285
 5167TIP3    H236917   1.739   1.454  13.327  0.1476 -0.6904 -1.0367
 5168TIP3   OH236918   1.990   0.384   3.741  0.8912 -1.0980 -0.4661
 5168TIP3    H136919   2.004   0.424   3.827  0.5966 -1.4270 -0.2660
 5168TIP3    H236920   2.079   0.364   3.709  1.1360  0.6096 -1.0102
 5169TIP3   OH236921   2.964   2.060  14.942  0.1826  0.3402  0.1019
 5169TIP3    H136922   2.965   2.147  14.902 -2.0521  1.2303  1.7956
 5169TIP3    H236923   2.876   2.026  14.924 -0.2058 -0.0650  2.4292
 5170TIP3   OH236924   0.425   1.334   0.762  0.6502 -0.5003 -0.1192
 5170TIP3    H136925   0.468   1.257   0.725  1.2668 -0.0769 -0.3043
 5170TIP3    H236926   0.334   1.308   0.772  0.7391 -1.0714 -0.7000
 5171TIP3   OH236927   3.804   0.072   1.727  0.4484 -0.4413 -0.2837
 5171TIP3    H136928   3.880   0.126   1.746 -0.3440  0.0091  1.9327
 5171TIP3    H236929   3.834  -0.018   1.741  0.7139 -0.2946  0.1037
 5172TIP3   OH236930   5.778   3.356   2.140  0.0701  0.1186  0.4624
 5172TIP3    H136931   5.798   3.449   2.132 -0.5674  0.1669 -0.7444
 5172TIP3    H236932   5.795   3.320   2.053 -1.3483 -0.5566  0.4428
 5173TIP3   OH236933   3.147   6.283  14.354 -0.0326  0.3894 -0.6924
 5173TIP3    H136934   3.117   6.197  14.382  0.1791  0.6251  0.2860
 5173TIP3    H236935   3.236   6.269  14.323 -0.2271  0.1475 -1.1541
 5174TIP3   OH236936   3.095   2.648  13.075  0.1274 -0.0678  0.7175
 5174TIP3    H136937   3.151   2.608  13.141 -0.7060 -1.0050  0.8744
 5174TIP3    H236938   3.112   2.597  12.995  0.2639  0.3196  0.4934
 5175TIP3   OH236939   1.616   1.168  14.781  0.0115  0.0352  0.1464
 5175TIP3    H136940   1.707   1.197  14.774  0.6243 -1.5229  1.1811
 5175TIP3    H236941   1.581   1.215  14.857  0.2748 -0.1519  0.3842
 5176TIP3   OH236942   1.681   6.172   6.302  0.5150  0.8817 -0.1145
 5176TIP3    H136943   1.648   6.228   6.231  0.4554  1.1376  0.1151
 5176TIP3    H236944   1.638   6.205   6.381 -0.1844 -0.0436 -0.0981
 5177TIP3   OH236945   6.545   0.733   4.519 -0.0937  0.0515 -0.5155
 5177TIP3    H136946   6.474   0.743   4.583  0.9714 -0.4030  0.7876
 5177TIP3    H236947   6.566   0.822   4.492 -0.1586  0.2905  0.2123
 5178TIP3   OH236948   2.000   2.892  16.337  1.1337  0.1122  0.1400
 5178TIP3    H136949   2.095   2.890  16.351  1.0560 -1.1981  0.6390
 5178TIP3    H236950   1.964   2.865  16.421  0.2140  2.5677  0.5965
 5179TIP3   OH236951   3.923   1.398   4.071 -0.3113  0.4530  0.4178
 5179TIP3    H136952   3.989   1.342   4.031  0.7295  2.5628 -1.0196
 5179TIP3    H236953   3.911   1.363   4.160  2.9943  0.1672  0.8566
 5180TIP3   OH236954   0.657   5.037   4.959  0.3075  0.1085 -0.9487
 5180TIP3    H136955   0.641   4.974   5.029 -0.5942  0.0676 -1.1837
 5180TIP3    H236956   0.727   5.093   4.992 -2.4225  2.3705  1.5063
 5181TIP3   OH236957   1.114   2.879   5.703 -0.3176 -0.3795  1.0019
 5181TIP3    H136958   1.074   2.800   5.667 -2.0733 -0.0435  2.1164
 5181TIP3    H236959   1.040   2.935   5.726  0.8395  0.7893  2.0125
 5182TIP3   OH236960   5.312   4.001   5.451 -0.1969 -0.0151 -0.0576
 5182TIP3    H136961   5.396   4.045   5.466 -0.9896  2.0025 -1.2119
 5182TIP3    H236962   5.246   4.065   5.478 -1.4471 -1.9803  1.9568
 5183TIP3   OH236963   0.472   2.395   2.459 -0.6654  0.6358 -0.5284
 5183TIP3    H136964   0.397   2.445   2.492 -0.2364  1.2891 -0.5188
 5183TIP3    H236965   0.537   2.462   2.437 -0.2525  0.0988 -0.9516
 5184TIP3   OH236966   6.294   6.365  16.795  0.1405  0.3458  0.1089
 5184TIP3    H136967   6.372   6.316  16.820  0.8062  0.6953 -1.1965
 5184TIP3    H236968   6.228   6.339  16.858  1.3512  0.1555  1.3326
 5185TIP3   OH236969   0.769   5.651  14.740  0.0023 -0.3343 -0.5319
 5185TIP3    H136970   0.738   5.589  14.806  1.5369 -0.3896  0.1692
 5185TIP3    H236971   0.791   5.596  14.665 -1.2359 -0.3251 -0.9265
 5186TIP3   OH236972   6.344   0.682   3.055 -0.3513  0.7687  0.3693
 5186TIP3    H136973   6.389   0.706   2.974 -0.5682  0.2657  0.0960
 5186TIP3    H236974   6.275   0.749   3.064 -0.6863  0.5102 -0.1644
 5187TIP3   OH236975   4.824   2.430  14.499 -0.1442  0.3696 -0.1756
 5187TIP3    H136976   4.849   2.455  14.588 -0.6718 -0.6832  0.2862
 5187TIP3    H236977   4.747   2.484  14.480  0.3161  1.0266 -0.2445
 5188TIP3   OH236978   4.443   1.073  11.053 -0.4617  0.7975 -0.0918
 5188TIP3    H136979   4.352   1.054  11.030 -0.4605  1.5427 -0.7649
 5188TIP3    H236980   4.481   1.111  10.973  0.4078  0.5984  0.2149
 5189TIP3   OH236981   2.690   3.089  16.425 -0.0674  0.4562  0.0417
 5189TIP3    H136982   2.632   3.056  16.356 -2.1668  0.6226  1.6504
 5189TIP3    H236983   2.773   3.044  16.409 -1.2576 -1.5135 -1.0469
 5190TIP3   OH236984   5.984   1.690  11.702  0.3901 -0.4144  0.0416
 5190TIP3    H136985   5.940   1.711  11.783 -0.3484 -1.7971  0.0364
 5190TIP3    H236986   5.935   1.616  11.666  1.2183 -0.3924 -1.2225
 5191TIP3   OH236987   2.768   0.114  11.732  0.2797 -0.0564 -0.4255
 5191TIP3    H136988   2.859   0.138  11.718  0.0710  0.8701 -0.2593
 5191TIP3    H236989   2.766   0.018  11.724  1.2525 -0.0760 -0.4455
 5192TIP3   OH236990   0.442   6.667   3.382  0.3155  0.0624 -0.2140
 5192TIP3    H136991   0.465   6.707   3.465 -0.2029 -1.0728  0.4976
 5192TIP3    H236992   0.502   6.593   3.373  0.2257  0.0483 -0.7540
 5193TIP3   OH236993   0.746   0.817  16.797 -0.1795 -0.4646 -0.1390
 5193TIP3    H136994   0.650   0.819  16.801 -0.2179  0.2726 -1.1659
 5193TIP3    H236995   0.768   0.723  16.794 -0.8808 -0.6258 -0.3418
 5194TIP3   OH236996   0.175   0.700  13.883 -0.5070  0.4998  0.1809
 5194TIP3    H136997   0.099   0.751  13.909 -0.6834  0.5853 -0.4668
 5194TIP3    H236998   0.164   0.615  13.926  0.0326  1.1397  1.6469
 5195TIP3   OH236999   5.543   4.703  11.467 -0.5823  0.4700 -0.2144
 5195TIP3    H137000   5.555   4.728  11.375 -0.8154  1.4444  0.0040
 5195TIP3    H237001   5.456   4.736  11.489 -0.0595  1.3123  0.6831
 5196TIP3   OH237002   6.225   2.690   1.019 -0.3848  0.1656  0.4603
 5196TIP3    H137003   6.194   2.714   1.107 -2.6084  0.3139 -0.3108
 5196TIP3    H237004   6.220   2.594   1.017  0.1055  0.1313  0.6221
 5197TIP3   OH237005   0.157   5.986   5.343 -0.4728  0.3009 -0.7797
 5197TIP3    H137006   0.063   5.973   5.331 -0.3561 -0.7039 -0.6610
 5197TIP3    H237007   0.194   5.898   5.342  0.4133  0.6569 -0.3487
 5198TIP3   OH237008   1.506   2.173  12.914 -0.6265 -0.2914 -0.6518
 5198TIP3    H137009   1.432   2.226  12.886  0.5680  1.6179 -0.3756
 5198TIP3    H237010   1.561   2.166  12.836 -0.8813 -1.3692 -0.7504
 5199TIP3   OH237011   4.775   3.832  13.800 -0.1243 -0.4354 -0.3356
 5199TIP3    H137012   4.744   3.899  13.740 -0.3453 -0.0359  0.2166
 5199TIP3    H237013   4.713   3.760  13.791  0.2315 -0.6536 -1.0818
 5200TIP3   OH237014   1.503   2.851  16.792  0.2550 -0.1403  0.0755
 5200TIP3    H137015   1.510   2.762  16.759  4.9928 -0.8012  2.1150
 5200TIP3    H237016   1.523   2.844  16.885  1.3368  3.0814  0.2093
 5201TIP3   OH237017   4.922   5.732   3.832  0.3997 -0.4069 -0.1983
 5201TIP3    H137018   4.981   5.808   3.832 -0.4748  0.3001 -0.5973
 5201TIP3    H237019   4.835   5.770   3.821 -0.0711 -1.4722 -0.2655
 5202TIP3   OH237020   4.911   2.364  16.183  0.1904  0.1040 -0.1111
 5202TIP3    H137021   4.911   2.459  16.171 -2.4911 -0.1012 -3.0770
 5202TIP3    H237022   4.983   2.333  16.129 -0.1635  0.3798 -0.7564
 5203TIP3   OH237023   2.777   5.101   3.948  1.0916  0.4715 -0.8724
 5203TIP3    H137024   2.789   5.010   3.920  1.0656  0.6292 -1.4178
 5203TIP3    H237025   2.794   5.152   3.869  1.1432  0.9441 -0.5588
 5204TIP3   OH237026   0.487   3.721  11.426 -0.3036 -0.5341  0.3319
 5204TIP3    H137027   0.418   3.655  11.433 -1.4136  0.7462  2.8342
 5204TIP3    H237028   0.541   3.708  11.505  0.6903  0.2188 -0.2004
 5205TIP3   OH237029   5.667   3.749  13.099 -0.2312  0.6649  0.3020
 5205TIP3    H137030   5.695   3.813  13.165 -1.3726  2.7814 -1.1444
 5205TIP3    H237031   5.745   3.733  13.046  0.2310  0.3022  1.0657
 5206TIP3   OH237032   5.815   4.875   3.345 -0.5809 -0.3480  0.5492
 5206TIP3    H137033   5.719   4.875   3.346 -0.6877 -1.4594 -2.3933
 5206TIP3    H237034   5.838   4.968   3.335 -1.2721 -0.0221  1.6606
 5207TIP3   OH237035   2.048   6.603  16.251 -0.4153  0.1609 -0.3976
 5207TIP3    H137036   2.089   6.673  16.301 -1.2364  0.9291 -0.7725
 5207TIP3    H237037   1.955   6.625  16.250 -0.9492 -1.7515  0.7759
 5208TIP3   OH237038   5.629   0.277  15.367 -0.5965  0.1375 -0.1684
 5208TIP3    H137039   5.603   0.212  15.433  0.3705  0.1764  0.2676
 5208TIP3    H237040   5.550   0.292  15.316 -1.2162 -0.3084  0.6386
 5209TIP3   OH237041   1.059   5.679   3.263 -0.0143  0.0041  0.2548
 5209TIP3    H137042   1.143   5.712   3.229 -0.0213  0.0436  0.2772
 5209TIP3    H237043   1.081   5.594   3.302 -0.0053 -0.0404  0.1535
 5210TIP3   OH237044   4.093   0.121  14.219  0.1338  0.2990  0.8025
 5210TIP3    H137045   4.089   0.074  14.136  0.9606 -0.2927  1.0765
 5210TIP3    H237046   4.018   0.087  14.269 -3.0173  3.6846 -1.1324
 5211TIP3   OH237047   6.183   0.926  14.109 -0.6005  0.1546 -0.0180
 5211TIP3    H137048   6.262   0.952  14.156 -0.9296 -0.6638  1.0454
 5211TIP3    H237049   6.214   0.873  14.036 -0.1695 -0.5333  0.6522
 5212TIP3   OH237050   2.926   1.168   3.874  0.0887 -0.0558  0.5974
 5212TIP3    H137051   3.010   1.211   3.855  1.1101 -0.9175  2.8910
 5212TIP3    H237052   2.902   1.125   3.792  2.1345 -0.1661  0.0106
 5213TIP3   OH237053   6.649   1.764  13.889  0.1174  0.0642  0.2608
 5213TIP3    H137054   6.572   1.707  13.886  1.0528 -1.2070 -0.6222
 5213TIP3    H237055   6.635   1.827  13.818  0.1119 -0.4606 -0.2074
 5214TIP3   OH237056   0.790   4.941   0.035 -0.2022  0.1399  0.6145
 5214TIP3    H137057   0.722   4.985  -0.014 -1.5184 -1.0147  1.3337
 5214TIP3    H237058   0.779   4.848   0.014  1.9286  0.0194 -0.1901
 5215TIP3   OH237059   3.195   1.446  16.867  0.3183 -0.1346 -0.0713
 5215TIP3    H137060   3.277   1.466  16.912  1.5528  0.5468 -2.4507
 5215TIP3    H237061   3.172   1.527  16.820 -0.8107 -0.8287 -0.7785
 5216TIP3   OH237062   5.733   6.147  16.616 -0.3200 -0.5193 -0.3156
 5216TIP3    H137063   5.814   6.196  16.631  0.0667 -1.1332 -0.3709
 5216TIP3    H237064   5.754   6.090  16.543 -1.0993 -0.0271 -0.9315
 5217TIP3   OH237065   3.738   6.686  13.397  0.2325  0.3622  0.1710
 5217TIP3    H137066   3.807   6.738  13.355  0.5337 -0.1143  0.0693
 5217TIP3    H237067   3.752   6.597  13.364  1.1449 -0.2647  2.0999
 5218TIP3   OH237068   3.078   4.590  11.847  0.2572 -0.0831  0.3339
 5218TIP3    H137069   3.059   4.584  11.753 -1.8809  0.7543  0.6630
 5218TIP3    H237070   2.992   4.587  11.889  1.2376 -2.7002  2.4366
 5219TIP3   OH237071   3.943   6.040  17.195 -0.0227  0.2506 -0.5725
 5219TIP3    H137072   3.982   6.007  17.114  0.1125 -1.9904  0.3388
 5219TIP3    H237073   3.961   5.973  17.260 -2.3465  0.7622  0.7329
 5220TIP3   OH237074   5.553   1.264   2.801  0.1402  0.2547  0.0135
 5220TIP3    H137075   5.612   1.324   2.847 -0.2922  2.3012 -1.9008
 5220TIP3    H237076   5.589   1.259   2.713 -1.0195 -0.6773 -0.4329
 5221TIP3   OH237077   5.088   1.958   4.591 -0.0900  0.2587  0.5884
 5221TIP3    H137078   5.073   2.039   4.542  0.0342  0.5697  1.0467
 5221TIP3    H237079   5.100   1.988   4.681 -0.3500 -0.3053  0.8108
 5222TIP3   OH237080   4.655   3.512   5.063  0.0842  0.2382 -0.0052
 5222TIP3    H137081   4.667   3.434   5.009 -3.3573 -0.7799  0.4329
 5222TIP3    H237082   4.577   3.554   5.027  0.4797  2.1987  1.2674
 5223TIP3   OH237083   4.943   4.044   0.990 -0.1316 -0.6048 -0.0222
 5223TIP3    H137084   4.986   3.964   0.961  4.2919  1.9526 -1.5104
 5223TIP3    H237085   4.944   4.039   1.086 -0.8328 -2.6504 -0.0866
 5224TIP3   OH237086   4.766   5.447   3.170 -0.0824 -0.1392 -0.5668
 5224TIP3    H137087   4.734   5.520   3.117  1.0482  0.2664 -0.7277
 5224TIP3    H237088   4.825   5.488   3.234 -1.0588 -0.6771  0.7089
 5225TIP3   OH237089   1.893   1.844   5.034  0.4023  0.2762  0.8143
 5225TIP3    H137090   1.897   1.935   5.002 -0.4504  0.2350  0.5607
 5225TIP3    H237091   1.896   1.852   5.129 -1.7421  0.7326  0.8876
 5226TIP3   OH237092   3.274   1.904  14.294  0.3767  0.7726  0.4086
 5226TIP3    H137093   3.235   1.852  14.364  3.9306  0.1364  2.1577
 5226TIP3    H237094   3.246   1.994  14.311 -0.3698  0.3556  1.4494
 5227TIP3   OH237095   2.669   4.858  16.897 -0.2751  0.4237 -0.1635
 5227TIP3    H137096   2.749   4.902  16.867  0.6394 -0.2782  1.1453
 5227TIP3    H237097   2.684   4.842  16.990 -1.1472 -1.3977 -0.2900
 5228TIP3   OH237098   4.550   2.746   2.951 -0.5284 -0.3511  0.1415
 5228TIP3    H137099   4.592   2.744   2.865 -0.8984 -0.6840 -0.0362
 5228TIP3    H237100   4.464   2.786   2.934 -0.4883 -0.1526  0.4056
 5229TIP3   OH237101   1.684   3.562   3.055 -0.7159 -0.1414 -0.0217
 5229TIP3    H137102   1.673   3.498   2.984  0.6619  0.1274 -0.5056
 5229TIP3    H237103   1.617   3.628   3.037  0.5425  0.7091 -1.9977
 5230TIP3   OH237104   5.986   0.964  15.674 -0.3557  0.3872 -0.0200
 5230TIP3    H137105   5.951   0.896  15.617  1.3029 -1.5090  1.1076
 5230TIP3    H237106   5.988   1.042  15.618  0.9963 -1.3013 -2.5661
 5231TIP3   OH237107   5.370   0.768  12.806  0.0083 -0.4733 -0.2461
 5231TIP3    H137108   5.281   0.793  12.780 -0.3555 -1.6160 -0.1612
 5231TIP3    H237109   5.363   0.750  12.900  0.4317 -0.1643 -0.1509
 5232TIP3   OH237110   5.182   5.449  16.503  0.1668  0.1506  0.2393
 5232TIP3    H137111   5.211   5.463  16.593 -3.9891 -2.3024  2.2409
 5232TIP3    H237112   5.204   5.358  16.484  1.4399  0.7627 -1.5325
 5233TIP3   OH237113   0.932   2.051  12.880 -0.7445 -0.0422 -0.7929
 5233TIP3    H137114   0.910   2.054  12.787 -1.0204  2.1341 -0.7153
 5233TIP3    H237115   0.853   2.018  12.923 -0.4839 -1.4328 -1.3381
 5234TIP3   OH237116   1.352   2.250   1.605  0.1845 -0.2184  0.1048
 5234TIP3    H137117   1.279   2.223   1.661  0.5153  2.3198  1.9025
 5234TIP3    H237118   1.313   2.313   1.544  0.4751 -0.5105 -0.3943
 5235TIP3   OH237119   5.717   0.733   1.124 -0.6304 -0.6910  0.1546
 5235TIP3    H137120   5.693   0.818   1.088  0.3922 -0.7039 -0.5972
 5235TIP3    H237121   5.645   0.710   1.182 -1.0527  0.5530  0.1412
 5236TIP3   OH237122   3.604   3.339   1.197  0.1729 -0.0272 -0.6445
 5236TIP3    H137123   3.612   3.301   1.285  0.7588  4.0416  1.2619
 5236TIP3    H237124   3.510   3.344   1.182  0.0426 -2.9264 -1.4598
 5237TIP3   OH237125   0.564   2.455   2.940 -0.1574 -0.6281  0.1963
 5237TIP3    H137126   0.519   2.381   2.980 -0.4501 -0.4436  0.2099
 5237TIP3    H237127   0.512   2.475   2.862 -0.5575  0.0895  0.6320
 5238TIP3   OH237128   3.422   5.640   2.888  0.5872  0.6996  0.2069
 5238TIP3    H137129   3.356   5.572   2.876  0.7886  0.7227 -1.1669
 5238TIP3    H237130   3.398   5.683   2.971 -0.5735  0.1172  0.1860
 5239TIP3   OH237131   1.625   1.788  16.988  0.3822  0.4977 -0.1055
 5239TIP3    H137132   1.555   1.728  16.963  1.3743 -1.1158  0.7655
 5239TIP3    H237133   1.581   1.857  17.038 -0.6829 -0.0212 -0.3013
 5240TIP3   OH237134   6.010   0.458   4.847  0.4837 -0.1149 -0.3429
 5240TIP3    H137135   5.935   0.415   4.806  0.6847  1.0677 -2.0681
 5240TIP3    H237136   5.995   0.551   4.832  1.0670  0.3169  1.5152
 5241TIP3   OH237137   5.736   5.690   2.606  0.3669  0.1095 -0.5733
 5241TIP3    H137138   5.751   5.654   2.693  1.2008  3.1385  0.6692
 5241TIP3    H237139   5.804   5.757   2.596 -0.4676  0.7002 -3.0817
 5242TIP3   OH237140   6.478   2.554  15.664 -0.1569 -0.4267 -0.5219
 5242TIP3    H137141   6.566   2.517  15.671  0.1321  0.0027 -1.7624
 5242TIP3    H237142   6.444   2.521  15.581 -1.3421 -0.9211  0.1334
 5243TIP3   OH237143   1.758   4.193   2.629 -0.3705  0.2463  0.2278
 5243TIP3    H137144   1.680   4.181   2.574  0.0335  1.1282 -0.5602
 5243TIP3    H237145   1.827   4.218   2.567  0.7172 -1.1607  0.8184
 5244TIP3   OH237146   0.491   0.536  16.415  0.5919  0.5966  0.2795
 5244TIP3    H137147   0.469   0.534  16.321  0.6957 -0.7552  0.2668
 5244TIP3    H237148   0.497   0.444  16.440 -0.9192  0.9076  1.9673
 5245TIP3   OH237149   6.578   6.735   1.234 -0.0410 -0.0711 -0.1236
 5245TIP3    H137150   6.503   6.711   1.288  0.3502  0.9762  0.9415
 5245TIP3    H237151   6.554   6.707   1.145 -1.0869 -1.0071  0.4254
 5246TIP3   OH237152   6.417   1.802  16.373  0.0998  0.1029  0.1359
 5246TIP3    H137153   6.425   1.713  16.408  0.2981  0.3027  0.6071
 5246TIP3    H237154   6.507   1.833  16.363  0.0998 -0.3823 -1.7219
 5247TIP3   OH237155   5.235   6.110   5.081 -0.5770 -0.3785  0.2496
 5247TIP3    H137156   5.292   6.187   5.090  1.1828 -1.4224 -1.1692
 5247TIP3    H237157   5.242   6.065   5.165  0.3964 -0.2635  0.2469
 5248TIP3   OH237158   1.506   6.461   5.186 -0.7835  0.3479 -0.2497
 5248TIP3    H137159   1.539   6.379   5.224 -1.1562 -0.1738 -1.0016
 5248TIP3    H237160   1.416   6.467   5.219 -0.6945  0.5624 -0.0414
 5249TIP3   OH237161   0.426   4.539   1.592 -0.6573 -0.6028 -0.5799
 5249TIP3    H137162   0.368   4.488   1.648 -1.3287  1.6410  0.9143
 5249TIP3    H237163   0.368   4.604   1.551  0.1528 -0.9724 -2.4111
 5250TIP3   OH237164   4.105   3.440  13.198  0.7399 -0.4153  0.5856
 5250TIP3    H137165   4.114   3.430  13.293  0.4651 -0.6732  0.5830
 5250TIP3    H237166   4.107   3.351  13.163 -0.2791 -0.3874  0.4476
 5251TIP3   OH237167   6.231   6.054   4.999 -0.1864  0.0661 -0.1106
 5251TIP3    H137168   6.295   5.982   5.008 -1.5338 -0.9644  2.3796
 5251TIP3    H237169   6.146   6.011   5.004 -1.0692  1.6373 -0.9911
 5252TIP3   OH237170   2.200   1.288  14.309  0.2927  0.4761  0.2895
 5252TIP3    H137171   2.291   1.314  14.295  0.4135  0.2529  0.6429
 5252TIP3    H237172   2.190   1.283  14.404 -0.1266  0.6299  0.2564
 5253TIP3   OH237173   2.610   2.104   0.688 -0.0437  0.0702 -0.3867
 5253TIP3    H137174   2.553   2.027   0.688 -1.2253  0.9248 -0.7601
 5253TIP3    H237175   2.662   2.094   0.768  0.0874 -1.2870 -0.6067
 5254TIP3   OH237176   3.709   1.710   2.216  0.7729 -0.0581 -0.1008
 5254TIP3    H137177   3.644   1.758   2.267  0.5138 -1.2301  0.7151
 5254TIP3    H237178   3.784   1.702   2.275  2.1004  2.0996 -1.3464
 5255TIP3   OH237179   1.216   4.149  13.953 -0.0433  0.3031 -0.4414
 5255TIP3    H137180   1.232   4.056  13.971 -0.5471  0.4105  0.6091
 5255TIP3    H237181   1.162   4.149  13.874 -0.0459 -0.3010 -0.4433
 5256TIP3   OH237182   2.565   1.039   3.559 -0.2538  0.4393  0.7982
 5256TIP3    H137183   2.560   0.956   3.606 -2.0080 -1.0526 -1.7945
 5256TIP3    H237184   2.596   1.016   3.472  1.4597  2.8797  0.6606
 5257TIP3   OH237185   2.110   3.938  12.601 -0.1484  0.4490  0.1079
 5257TIP3    H137186   2.159   3.868  12.645 -1.4045 -0.9248 -0.6046
 5257TIP3    H237187   2.035   3.894  12.562 -0.4289  2.0442 -1.2554
 5258TIP3   OH237188   4.497   2.039  16.322  0.0327 -0.3708  0.4781
 5258TIP3    H137189   4.405   2.048  16.297 -0.2650  1.1085  1.9336
 5258TIP3    H237190   4.541   2.109  16.274  0.4415 -1.1405 -0.2932
 5259TIP3   OH237191   6.331   2.118   6.654  0.0887 -0.6135 -0.1273
 5259TIP3    H137192   6.264   2.107   6.587  0.7327  2.3835 -1.4139
 5259TIP3    H237193   6.282   2.133   6.735 -0.8535  0.9886 -0.9488
 5260TIP3   OH237194   3.436   6.424  12.575  0.0147  0.0821  0.2648
 5260TIP3    H137195   3.398   6.425  12.488  1.5489  1.1106 -0.4426
 5260TIP3    H237196   3.475   6.511  12.585  2.9838 -1.1782  0.5194
 5261TIP3   OH237197   1.982   5.999  13.112 -0.6319  0.4841 -0.2641
 5261TIP3    H137198   1.941   5.984  13.027  0.4007 -1.9414 -0.4086
 5261TIP3    H237199   2.018   6.087  13.106 -4.1699  2.0717 -0.7465
 5262TIP3   OH237200   4.303   5.903   0.664  0.3604  0.9923 -0.0353
 5262TIP3    H137201   4.224   5.923   0.613 -0.3068  0.0780  0.5966
 5262TIP3    H237202   4.362   5.975   0.645  0.2303  0.6026 -2.2474
 5263TIP3   OH237203   3.991   5.146   4.877  0.2551  0.4933 -0.3266
 5263TIP3    H137204   3.903   5.182   4.865 -0.9738 -1.3468  2.2501
 5263TIP3    H237205   4.044   5.190   4.811 -1.8423  4.2583  0.2232
 5264TIP3   OH237206   3.924   3.607   1.426  0.5929  0.5994  0.2783
 5264TIP3    H137207   3.977   3.668   1.477  2.3760 -1.3157  0.8347
 5264TIP3    H237208   3.906   3.653   1.345  3.0613  1.3927  0.1033
 5265TIP3   OH237209   4.301   4.289  17.082 -0.5749  0.4849  0.2305
 5265TIP3    H137210   4.356   4.226  17.129 -0.1141 -0.2050 -1.1870
 5265TIP3    H237211   4.243   4.325  17.149 -0.4619 -1.0277  1.1838
 5266TIP3   OH237212   3.416   2.073   5.745  0.0722  0.1726 -0.0328
 5266TIP3    H137213   3.356   2.047   5.815  0.3130  0.0886  0.1416
 5266TIP3    H237214   3.368   2.141   5.697  0.1879  0.7535  0.6519
 5267TIP3   OH237215   5.047   6.559  12.172 -0.0021 -0.2491 -0.0194
 5267TIP3    H137216   5.140   6.570  12.193 -0.4180 -0.0691  1.9269
 5267TIP3    H237217   5.040   6.468  12.141  0.7679 -0.3878  0.2004
 5268TIP3   OH237218   1.846   4.981   3.235  0.0327  0.1584 -0.2264
 5268TIP3    H137219   1.808   4.897   3.208  2.1758 -0.5371 -1.3211
 5268TIP3    H237220   1.795   5.007   3.311 -2.5236 -0.7139 -1.5118
 5269TIP3   OH237221   2.180   0.763   5.270 -0.4689  0.7991 -0.1218
 5269TIP3    H137222   2.110   0.708   5.234  0.0958 -0.9054  1.2430
 5269TIP3    H237223   2.147   0.852   5.261 -1.2444  0.3264 -2.8447
 5270TIP3   OH237224   3.667   0.150   1.493  0.1053  0.7681  0.1060
 5270TIP3    H137225   3.628   0.063   1.495  0.0517  0.6810 -2.0677
 5270TIP3    H237226   3.752   0.139   1.536  1.2106 -1.0192 -2.3208
 5271TIP3   OH237227   3.239   0.727   2.598  0.4898  0.3075 -0.5230
 5271TIP3    H137228   3.208   0.637   2.607 -0.0451  0.6281  1.5128
 5271TIP3    H237229   3.172   0.770   2.544 -0.6532  0.0524  0.6181
 5272TIP3   OH237230   2.821   6.679   1.542  0.2724  0.4417 -0.2077
 5272TIP3    H137231   2.829   6.602   1.598 -0.3417  0.5997  0.1054
 5272TIP3    H237232   2.908   6.690   1.504  0.9851  0.9136  1.4652
 5273TIP3   OH237233   0.627   5.513   1.345 -0.1804 -0.5874  0.0276
 5273TIP3    H137234   0.608   5.591   1.293 -1.4296 -0.4420  0.6595
 5273TIP3    H237235   0.541   5.477   1.366  0.3082 -1.0423  1.3768
 5274TIP3   OH237236   5.556   1.769   3.676 -0.1692 -0.7516 -0.2682
 5274TIP3    H137237   5.601   1.801   3.754  0.2739 -0.6448 -0.5611
 5274TIP3    H237238   5.599   1.685   3.657  0.8079 -0.0511 -1.2932
 5275TIP3   OH237239   0.157   1.319  16.662  0.2832  0.4773  0.6636
 5275TIP3    H137240   0.236   1.299  16.613  0.1410 -2.7031  1.4437
 5275TIP3    H237241   0.090   1.335  16.596  0.8368 -0.4030 -0.1350
 5276TIP3   OH237242   0.681   2.074   5.720 -0.2700 -0.6005  1.0693
 5276TIP3    H137243   0.761   2.106   5.761  0.7836 -0.2618 -1.1056
 5276TIP3    H237244   0.689   1.979   5.722  0.0663 -0.5726  1.1158
 5277TIP3   OH237245   2.883   6.359  16.486  0.0518  0.0670 -0.2322
 5277TIP3    H137246   2.838   6.356  16.402 -0.2553  0.9589 -0.1157
 5277TIP3    H237247   2.974   6.339  16.466  0.2577  1.6370 -1.0009
 5278TIP3   OH237248   2.956   3.707   3.983 -0.4540 -0.6167 -0.2255
 5278TIP3    H137249   2.919   3.619   3.978 -0.2700 -0.8036  1.3444
 5278TIP3    H237250   2.900   3.753   4.045 -1.3439  0.8104 -2.0025
 5279TIP3   OH237251   4.819   4.393  13.140  0.5463  0.0943  0.3833
 5279TIP3    H137252   4.807   4.401  13.046  0.5638 -1.5059  0.2130
 5279TIP3    H237253   4.906   4.429  13.157  1.3954 -1.4193 -0.5370
 5280TIP3   OH237254   1.122   6.160   3.448 -0.0537 -0.2702 -0.1999
 5280TIP3    H137255   1.192   6.094   3.440  1.2454  1.0157  0.1020
 5280TIP3    H237256   1.126   6.188   3.539 -0.6272  0.1859 -0.3126
 5281TIP3   OH237257   6.538   5.186   5.487 -0.3588  0.8429  0.3014
 5281TIP3    H137258   6.531   5.122   5.558  1.9993 -0.8110 -0.8325
 5281TIP3    H237259   6.631   5.205   5.481 -0.4398  0.7686 -2.4756
 5282TIP3   OH237260   0.177   6.603   2.555  0.4767 -0.0425  0.1575
 5282TIP3    H137261   0.254   6.655   2.531  0.2758  0.5483  0.7624
 5282TIP3    H237262   0.214   6.522   2.591  0.8577  0.5973  1.2670
 5283TIP3   OH237263   1.118   0.560  13.025  0.1332 -0.2706  0.3914
 5283TIP3    H137264   1.088   0.607  13.103  1.7227  1.7988 -0.1365
 5283TIP3    H237265   1.090   0.470  13.038  0.0411  0.0825  3.1680
 5284TIP3   OH237266   0.209   1.962  11.692  0.1916 -0.0119 -0.0613
 5284TIP3    H137267   0.287   2.007  11.724 -0.3297  1.5530 -0.9166
 5284TIP3    H237268   0.222   1.958  11.597 -0.4394 -0.4017 -0.1336
 5285TIP3   OH237269   2.889   4.901   5.224 -0.4503 -0.3949  0.2310
 5285TIP3    H137270   2.898   4.807   5.206 -1.6182 -0.5340  0.3411
 5285TIP3    H237271   2.855   4.905   5.313 -0.3045  0.1487  0.2635
 5286TIP3   OH237272   0.817   6.401   2.473 -0.2981  0.2825  0.0786
 5286TIP3    H137273   0.761   6.382   2.549 -2.9487 -1.0496 -2.0448
 5286TIP3    H237274   0.786   6.341   2.405  3.1928  0.0979 -1.5833
 5287TIP3   OH237275   6.387   1.695   4.722 -0.0146  0.2057 -0.0678
 5287TIP3    H137276   6.366   1.788   4.713 -0.6263  0.2279  1.4173
 5287TIP3    H237277   6.384   1.678   4.816  1.8200 -0.9401 -0.1625
 5288TIP3   OH237278   2.183   2.829  11.226  0.0089 -0.1260  0.4736
 5288TIP3    H137279   2.122   2.811  11.298 -1.5632 -2.4162 -1.3193
 5288TIP3    H237280   2.127   2.854  11.153  1.0093 -3.1759 -1.5030
 5289TIP3   OH237281   1.509   1.465   4.656  0.3759 -0.0711 -0.2104
 5289TIP3    H137282   1.533   1.437   4.568 -0.1579 -0.6173 -0.1934
 5289TIP3    H237283   1.465   1.549   4.644 -0.9535 -0.7860 -0.6404
 5290TIP3   OH237284   0.702   2.683  16.062 -0.6754 -0.4471  0.2113
 5290TIP3    H137285   0.780   2.702  16.010 -0.6810 -0.4628  0.1981
 5290TIP3    H237286   0.685   2.590  16.048 -0.6688 -0.4542  0.2518
 5291TIP3   OH237287   0.660   3.288  16.762  0.2063  0.2800 -0.1958
 5291TIP3    H137288   0.719   3.215  16.782 -0.1147  0.4114  1.4134
 5291TIP3    H237289   0.648   3.332  16.847 -2.2176  0.2417 -0.4648
 5292TIP3   OH237290   4.200   5.520   1.583  0.5711 -0.2358 -0.3448
 5292TIP3    H137291   4.186   5.497   1.491  0.1560 -0.7355 -0.1600
 5292TIP3    H237292   4.178   5.441   1.632 -1.8801  0.8046  0.3884
 5293TIP3   OH237293   0.084   4.287   4.669  0.0628  0.9243  0.2758
 5293TIP3    H137294   0.106   4.352   4.735 -1.0730  0.2521  1.3582
 5293TIP3    H237295   0.148   4.217   4.682 -0.5892  0.4764  1.1625
 5294TIP3   OH237296   4.584   3.901  15.334 -0.0468 -0.4546 -0.1181
 5294TIP3    H137297   4.655   3.906  15.398 -0.3464 -2.2600  0.4150
 5294TIP3    H237298   4.593   3.815  15.294 -1.6676 -0.5589 -0.3503
 5295TIP3   OH237299   3.996   0.713  16.660  0.1476 -0.1648 -0.1106
 5295TIP3    H137300   4.087   0.706  16.689 -0.0255  1.4252  0.9185
 5295TIP3    H237301   3.994   0.793  16.607 -0.7871  0.1866  0.4503
 5296TIP3   OH237302   4.769   0.361   5.350 -0.1299  0.2217 -0.8869
 5296TIP3    H137303   4.708   0.383   5.421  1.0300 -1.4169  0.7074
 5296TIP3    H237304   4.854   0.355   5.393  1.0921  1.7777 -2.9420
 5297TIP3   OH237305   0.759   2.492   0.146  0.0737 -0.2564  0.5805
 5297TIP3    H137306   0.824   2.472   0.214  3.2082  3.6925 -0.8214
 5297TIP3    H237307   0.793   2.450   0.067 -1.7966 -2.0966  0.6671
 5298TIP3   OH237308   1.768   1.627   6.073  0.0097 -0.0246  0.4707
 5298TIP3    H137309   1.784   1.641   6.166 -0.2747 -0.7221  0.6303
 5298TIP3    H237310   1.726   1.708   6.043 -1.6040 -0.5166  1.3610
 5299TIP3   OH237311   3.916   4.631   4.481 -0.2210 -0.3843 -0.2726
 5299TIP3    H137312   3.929   4.670   4.395  1.0752  0.3691  0.2486
 5299TIP3    H237313   3.850   4.686   4.523 -2.2709 -1.8333 -1.4192
 5300TIP3   OH237314   3.690   3.984   2.340 -0.1593 -0.0403  0.7576
 5300TIP3    H137315   3.769   3.988   2.393  0.1328 -0.1895  0.3390
 5300TIP3    H237316   3.671   4.075   2.318  0.0785 -0.0294  0.5959
 5301TIP3   OH237317   2.419   3.992  13.473 -0.1741  0.4752 -0.0654
 5301TIP3    H137318   2.371   4.015  13.393 -0.1266  1.4833  0.1899
 5301TIP3    H237319   2.352   3.989  13.541 -0.3197 -0.9990 -0.2248
 5302TIP3   OH237320   4.718   5.384  15.974  0.4067 -0.4974  0.4536
 5302TIP3    H137321   4.644   5.367  15.916  1.1334 -2.3077 -0.0269
 5302TIP3    H237322   4.795   5.375  15.918  1.1107 -1.7923  1.5471
 5303TIP3   OH237323   3.614   5.315   1.157 -0.0350  0.4889 -0.3344
 5303TIP3    H137324   3.608   5.300   1.252  1.6512  1.0926 -0.1011
 5303TIP3    H237325   3.523   5.327   1.129 -0.7096 -1.1794  0.9382
 5304TIP3   OH237326   5.951   3.416  10.957 -0.3302 -0.0302  0.3243
 5304TIP3    H137327   5.954   3.506  10.925  1.7087 -0.3081 -0.4300
 5304TIP3    H237328   5.980   3.363  10.883 -1.2630 -1.3213  0.8265
 5305TIP3   OH237329   5.539   1.501   5.843  0.6707 -0.1596  0.5302
 5305TIP3    H137330   5.449   1.527   5.823  0.0866 -2.8757 -0.7276
 5305TIP3    H237331   5.545   1.506   5.938 -1.1787 -0.9713  0.7222
 5306TIP3   OH237332   3.062   3.314   2.985  0.2729  0.0491  0.4288
 5306TIP3    H137333   2.998   3.381   3.007  0.6703  0.5751 -0.0067
 5306TIP3    H237334   3.039   3.287   2.896  0.2558 -0.2294  0.5163
 5307TIP3   OH237335   5.753   5.813   5.539 -0.4677 -0.3728  0.1959
 5307TIP3    H137336   5.687   5.852   5.596 -0.3120 -0.0947  0.1887
 5307TIP3    H237337   5.765   5.724   5.572  0.9176  0.3251  1.7250
 5308TIP3   OH237338   1.190   4.289  14.547  0.5266  0.0939  0.4428
 5308TIP3    H137339   1.162   4.378  14.528 -1.0852 -0.2457  1.1068
 5308TIP3    H237340   1.278   4.283  14.509  1.2546  2.3811  1.5722
 5309TIP3   OH237341   1.381   0.806  12.346 -0.1605  0.6684  0.0995
 5309TIP3    H137342   1.406   0.718  12.320  0.9259  0.6442  1.1353
 5309TIP3    H237343   1.286   0.809  12.334  0.0201  0.0216 -1.8015
 5310TIP3   OH237344   2.005   2.287  16.358 -0.1453  0.4996  0.6410
 5310TIP3    H137345   1.914   2.300  16.331  0.0689 -0.6538 -0.7809
 5310TIP3    H237346   2.001   2.267  16.451 -1.4078 -0.0426  0.4807
 5311TIP3   OH237347   2.121   3.557   2.480 -0.5633  0.0903  0.2072
 5311TIP3    H137348   2.134   3.463   2.472 -1.8564 -0.0955  0.1611
 5311TIP3    H237349   2.203   3.589   2.518  1.0032 -0.6291 -2.3570
 5312TIP3   OH237350   5.723   4.808  13.645  0.2408 -0.0523 -0.1636
 5312TIP3    H137351   5.788   4.776  13.708 -1.7323 -0.9479  1.6008
 5312TIP3    H237352   5.708   4.899  13.670  0.8294  0.1741 -0.6132
 5313TIP3   OH237353   4.077   5.628   2.139  0.4366 -0.0432  0.1880
 5313TIP3    H137354   4.072   5.535   2.161 -0.8701  0.4154  2.0714
 5313TIP3    H237355   4.017   5.671   2.201 -0.5195  1.8378 -1.9059
 5314TIP3   OH237356   3.352   3.674   2.640  0.3426 -0.2932  0.4086
 5314TIP3    H137357   3.307   3.618   2.578  1.3955 -0.8422  0.1302
 5314TIP3    H237358   3.321   3.763   2.619 -1.7175 -0.7665  1.1833
 5315TIP3   OH237359   0.345   6.253  14.173  0.8420 -0.0951 -0.0250
 5315TIP3    H137360   0.263   6.204  14.175  0.1709  1.0187  0.9906
 5315TIP3    H237361   0.398   6.215  14.243  0.8581 -0.2596 -0.1277
 5316TIP3   OH237362   2.634   3.090  13.219 -0.0276 -0.2207 -0.3006
 5316TIP3    H137363   2.589   3.134  13.291  0.6129  0.6067 -0.3928
 5316TIP3    H237364   2.727   3.107  13.234  0.1607 -0.6442 -0.9284
 5317TIP3   OH237365   1.728   5.010   0.283  0.3072 -0.1004  0.2956
 5317TIP3    H137366   1.780   5.084   0.315  0.4062  0.1549 -0.4217
 5317TIP3    H237367   1.666   4.992   0.353  1.3182 -0.3726  1.1490
 5318TIP3   OH237368   3.298   3.555   6.264 -0.1385 -0.2016  0.1777
 5318TIP3    H137369   3.323   3.466   6.238 -0.9968 -0.6468  0.8110
 5318TIP3    H237370   3.295   3.552   6.359 -0.4987  0.4107  0.1910
 5319TIP3   OH237371   5.164   2.328   2.517  0.3871  0.5667 -0.4393
 5319TIP3    H137372   5.094   2.263   2.524  1.9451 -1.0166  1.9771
 5319TIP3    H237373   5.164   2.373   2.601  3.0531 -0.4448  0.2313
 5320TIP3   OH237374   2.400   1.631   5.762  0.4509 -0.1130 -0.0028
 5320TIP3    H137375   2.371   1.543   5.786 -0.6686  0.2742  0.1229
 5320TIP3    H237376   2.461   1.656   5.831  1.4914 -1.1342 -0.5217
 5321TIP3   OH237377   6.423   5.830   3.830 -0.0832  0.1632  0.4493
 5321TIP3    H137378   6.407   5.818   3.736 -1.5848 -0.9851  0.8185
 5321TIP3    H237379   6.500   5.888   3.834 -1.4990  2.3552 -1.4787
 5322TIP3   OH237380   1.524   6.567   0.948 -0.2559 -0.1382 -0.3737
 5322TIP3    H137381   1.590   6.498   0.950  1.0010  1.0204  2.1025
 5322TIP3    H237382   1.446   6.527   0.987  0.2214 -0.3992  0.3222
 5323TIP3   OH237383   5.868   5.262  12.763 -0.0395  0.3796  0.0125
 5323TIP3    H137384   5.866   5.323  12.688  0.1128 -0.2601 -0.5183
 5323TIP3    H237385   5.817   5.187  12.734  0.3034 -0.0188  0.4313
 5324TIP3   OH237386   1.218   6.325  16.269  0.0479 -0.2228  0.4335
 5324TIP3    H137387   1.224   6.255  16.334 -0.6074  0.3394  1.1207
 5324TIP3    H237388   1.293   6.381  16.287  0.1211 -0.3161  0.4160
 5325TIP3   OH237389   5.014   0.804   1.155  0.0887  0.5773  0.6243
 5325TIP3    H137390   5.073   0.854   1.211  0.2483  0.6270  0.4140
 5325TIP3    H237391   5.017   0.715   1.190  1.7368  0.1382 -0.4957
 5326TIP3   OH237392   1.573   2.362  15.786 -0.0698  0.4292  0.1573
 5326TIP3    H137393   1.525   2.442  15.809 -0.0403  0.6927 -0.6594
 5326TIP3    H237394   1.572   2.309  15.866 -0.0191  1.2789  0.7364
 5327TIP3   OH237395   0.431   6.108   5.585  0.3864  0.4406  0.1644
 5327TIP3    H137396   0.389   6.155   5.514 -1.5700 -2.2471 -0.6370
 5327TIP3    H237397   0.374   6.123   5.661 -0.2182 -0.4706 -0.0822
 5328TIP3   OH237398   5.545   5.270  11.365 -0.7812  0.0069 -0.3101
 5328TIP3    H137399   5.580   5.281  11.276  1.6955  1.8372  0.7758
 5328TIP3    H237400   5.538   5.176  11.377  1.4592 -0.3911 -1.5442
 5329TIP3   OH237401   0.514   2.685   0.429 -0.4616  0.1439  0.2682
 5329TIP3    H137402   0.514   2.658   0.337  1.5902  4.6874 -1.3711
 5329TIP3    H237403   0.598   2.729   0.441 -1.4153  1.3571  3.7925
 5330TIP3   OH237404   4.555   5.458   4.358  0.1789 -0.1563 -0.6716
 5330TIP3    H137405   4.625   5.403   4.392 -1.6022 -2.3598 -0.3747
 5330TIP3    H237406   4.566   5.542   4.405  1.9133 -0.8049  0.1728
 5331TIP3   OH237407   6.066   0.012   0.246 -0.1125  0.4277  0.5764
 5331TIP3    H137408   6.026  -0.071   0.222 -0.4406  1.1234 -1.4764
 5331TIP3    H237409   6.146  -0.013   0.293 -0.0296 -1.0501 -0.2820
 5332TIP3   OH237410   4.401   2.088  14.406  0.1096 -0.3789 -0.4851
 5332TIP3    H137411   4.383   1.994  14.413  2.6069 -0.8659  0.7314
 5332TIP3    H237412   4.472   2.094  14.341 -0.9658  0.8696 -1.6229
 5333TIP3   OH237413   1.468   5.571  14.813 -0.2882 -0.3849 -0.8179
 5333TIP3    H137414   1.490   5.478  14.808  1.4140  0.0256 -2.1090
 5333TIP3    H237415   1.375   5.574  14.791  0.2371 -1.5977 -3.7743
 5334TIP3   OH237416   4.051   4.779  11.697 -0.3234  0.2102  0.0981
 5334TIP3    H137417   4.059   4.770  11.602  1.5594 -2.5860  0.3903
 5334TIP3    H237418   4.119   4.842  11.721 -0.2272  0.2737 -0.3324
 5335TIP3   OH237419   1.641   3.295  14.724 -0.1347  0.0087  0.4558
 5335TIP3    H137420   1.729   3.261  14.743  0.7304  1.0768 -1.2956
 5335TIP3    H237421   1.588   3.217  14.708  0.4179 -0.6636  1.7193
 5336TIP3   OH237422   0.319   1.176  13.403 -0.5171 -0.0759 -0.4648
 5336TIP3    H137423   0.387   1.215  13.348 -1.6136  2.4893 -0.1397
 5336TIP3    H237424   0.253   1.144  13.341 -0.4007  0.1486 -0.7073
 5337TIP3   OH237425   0.225   2.669  10.953 -0.2552 -0.1397  0.0033
 5337TIP3    H137426   0.275   2.749  10.935 -0.3002  0.3963  2.0834
 5337TIP3    H237427   0.270   2.629  11.028 -0.0503 -2.2602 -1.1744
 5338TIP3   OH237428   0.849   6.688  16.473  0.0947 -0.1428 -0.1057
 5338TIP3    H137429   0.909   6.614  16.476 -0.8202 -1.1365 -2.8089
 5338TIP3    H237430   0.854   6.719  16.382 -2.3286  0.6720 -0.0372
 5339TIP3   OH237431   3.571   5.046  14.822  0.2146  0.9508  0.1171
 5339TIP3    H137432   3.647   5.042  14.879  0.1518  0.8139  0.1923
 5339TIP3    H237433   3.515   4.974  14.851  0.6143  0.2698 -0.7416
 5340TIP3   OH237434   6.030   0.107  12.290  0.3265 -0.4727  0.1742
 5340TIP3    H137435   6.033   0.123  12.195  0.9471  1.5155  0.4882
 5340TIP3    H237436   5.937   0.117  12.313  0.2467 -0.4874 -0.1347
 5341TIP3   OH237437   4.543   6.406   1.174 -0.0711 -0.2160  0.1469
 5341TIP3    H137438   4.504   6.402   1.261  1.0336 -0.7619  0.6299
 5341TIP3    H237439   4.468   6.405   1.114 -0.7863 -2.0967  1.0079
 5342TIP3   OH237440   5.841   6.424   0.423 -0.2782  0.3808  0.0286
 5342TIP3    H137441   5.879   6.407   0.337  0.0754  0.7831  0.1000
 5342TIP3    H237442   5.904   6.483   0.466  0.7917 -1.6872  1.4878
 5343TIP3   OH237443   0.603   0.376   1.827 -0.4918  0.1623  1.0060
 5343TIP3    H137444   0.671   0.374   1.894 -1.3900 -0.0685  1.9315
 5343TIP3    H237445   0.619   0.458   1.780  1.4958 -0.7002  0.0250
 5344TIP3   OH237446   4.303   4.974  14.426  0.1923 -0.3837 -0.5093
 5344TIP3    H137447   4.214   4.994  14.398  0.0824 -0.7190 -0.4044
 5344TIP3    H237448   4.321   5.036  14.496  0.3003  0.1552 -1.0095
 5345TIP3   OH237449   5.106   3.797   0.195 -0.8004  0.0389  0.2753
 5345TIP3    H137450   5.183   3.799   0.253 -1.3932  1.2850  1.0745
 5345TIP3    H237451   5.131   3.849   0.119  0.0856 -1.8419 -0.8012
 5346TIP3   OH237452   3.979   0.566   0.916  0.6359 -0.2898 -0.1230
 5346TIP3    H137453   4.036   0.580   0.840 -0.7140  0.0941 -1.0880
 5346TIP3    H237454   4.024   0.612   0.988  2.5207 -1.6238 -0.3632
 5347TIP3   OH237455   3.764   1.391   4.385  0.1523  0.4301  0.4474
 5347TIP3    H137456   3.719   1.475   4.375  0.3978  0.4767 -0.3356
 5347TIP3    H237457   3.708   1.340   4.444 -1.9474 -0.2069 -1.9215
 5348TIP3   OH237458   3.487   3.436  14.983 -0.1180 -1.1368 -0.2861
 5348TIP3    H137459   3.393   3.446  14.967  0.2898  1.4536 -1.5838
 5348TIP3    H237460   3.522   3.404  14.899  0.5817  1.5896 -1.1181
 5349TIP3   OH237461   3.906   0.586   0.373 -0.2953 -0.5689 -0.3257
 5349TIP3    H137462   3.998   0.608   0.360 -0.3341  0.0084  0.2941
 5349TIP3    H237463   3.872   0.570   0.285  0.6652 -1.9291 -0.4706
 5350TIP3   OH237464   4.461   2.275   6.079  0.3558 -0.4521 -0.1118
 5350TIP3    H137465   4.466   2.180   6.076 -0.9271 -0.5235 -0.7355
 5350TIP3    H237466   4.404   2.294   6.154 -0.3251 -0.2314 -0.6785
 5351TIP3   OH237467   5.518   0.307  16.578  0.2331  0.6408  0.1683
 5351TIP3    H137468   5.611   0.294  16.560  0.1331  0.4294 -0.2033
 5351TIP3    H237469   5.516   0.363  16.656  0.6761  1.5305 -0.4393
 5352TIP3   OH237470   3.854   2.771   0.715 -0.1543 -0.0563  0.1782
 5352TIP3    H137471   3.945   2.761   0.742 -0.6128 -1.8666  1.2786
 5352TIP3    H237472   3.828   2.856   0.750  1.3851  0.9776 -1.0863
 5353TIP3   OH237473   2.471   4.033   3.796 -0.1316  0.0798  0.1817
 5353TIP3    H137474   2.492   4.118   3.758 -3.8383  0.0462 -2.5490
 5353TIP3    H237475   2.523   3.970   3.746  0.9683  0.5639  0.6981
 5354TIP3   OH237476   4.545   5.796  15.282 -0.5693 -0.1288 -0.5959
 5354TIP3    H137477   4.576   5.818  15.370  0.8428  0.2346 -1.1566
 5354TIP3    H237478   4.452   5.821  15.283 -0.5701 -0.0813  0.7627
 5355TIP3   OH237479   0.124   2.133   1.520 -0.3993 -0.5015 -0.5840
 5355TIP3    H137480   0.035   2.142   1.487 -0.8054 -2.0041  0.0286
 5355TIP3    H237481   0.157   2.223   1.527 -2.3146  0.1614  0.4389
 5356TIP3   OH237482   5.144   6.026  15.713 -0.0628  0.4730 -0.2093
 5356TIP3    H137483   5.232   6.035  15.676  0.1322 -0.3744  0.0136
 5356TIP3    H237484   5.158   5.992  15.801 -0.6442 -1.0668 -0.6699
 5357TIP3   OH237485   1.873   4.663   4.055  0.0155  0.2350  0.2831
 5357TIP3    H137486   1.961   4.690   4.029  0.1282 -0.2931  0.1132
 5357TIP3    H237487   1.880   4.645   4.149  0.8368 -2.6778 -0.2515
 5358TIP3   OH237488   2.592   2.916  11.840  0.3024  0.7487 -0.0140
 5358TIP3    H137489   2.585   2.963  11.757  1.3483  1.2548  0.1695
 5358TIP3    H237490   2.608   2.984  11.905 -0.9668  0.4022  0.6910
 5359TIP3   OH237491   0.739   4.740  15.825 -0.3623  0.3679  0.6844
 5359TIP3    H137492   0.668   4.782  15.777 -0.8786 -1.0974  0.0904
 5359TIP3    H237493   0.805   4.808  15.835 -1.1716  1.3141 -0.1767
 5360TIP3   OH237494   6.326   2.428   5.262 -0.5646 -0.2868  0.0512
 5360TIP3    H137495   6.390   2.484   5.307 -1.8828  3.4321 -2.2730
 5360TIP3    H237496   6.375   2.388   5.190 -0.5702  2.0478 -1.3450
 5361TIP3   OH237497   5.978   3.882  16.873 -0.4340  0.0295  0.2569
 5361TIP3    H137498   5.957   3.909  16.962  0.5764  0.1934  0.4580
 5361TIP3    H237499   5.945   3.792  16.866  2.1275 -1.1372  1.8225
 5362TIP3   OH237500   1.515   0.722  15.562  0.5217 -0.5246 -0.2365
 5362TIP3    H137501   1.478   0.811  15.565  0.9637 -0.3476  0.1218
 5362TIP3    H237502   1.546   0.712  15.472  1.5554  0.1394  0.0346
 5363TIP3   OH237503   2.053   2.205  14.912  0.3932  0.0948  0.1934
 5363TIP3    H137504   2.084   2.211  15.003  1.7020 -0.5012 -0.1885
 5363TIP3    H237505   1.984   2.270  14.906 -1.3626 -1.4334  2.2719
 5364TIP3   OH237506   0.844   1.631   1.479  0.6354 -0.0583  0.3509
 5364TIP3    H137507   0.811   1.677   1.402  0.8392 -1.7142 -0.7929
 5364TIP3    H237508   0.811   1.681   1.554  1.9194  2.6643 -0.7533
 5365TIP3   OH237509   5.937   1.646  10.664 -0.3241 -0.3470  0.2694
 5365TIP3    H137510   5.942   1.735  10.628 -1.6716 -0.5258 -0.4076
 5365TIP3    H237511   5.979   1.591  10.598  1.2465 -0.1402  1.0569
 5366TIP3   OH237512   2.684   4.826  15.446  0.2511  0.6564 -0.3119
 5366TIP3    H137513   2.747   4.898  15.449  0.1409  0.7397  0.1261
 5366TIP3    H237514   2.704   4.773  15.523 -1.3863  1.6878  0.8883
 5367TIP3   OH237515   5.424   4.323  16.377 -0.1211 -0.4056 -0.3597
 5367TIP3    H137516   5.497   4.266  16.400  2.1765  2.4625  0.0580
 5367TIP3    H237517   5.449   4.360  16.292 -0.7175  1.1195  0.0988
 5368TIP3   OH237518   1.243   0.823  15.710 -0.1094 -0.1937  0.4555
 5368TIP3    H137519   1.256   0.897  15.770  0.5439 -0.4540  0.6441
 5368TIP3    H237520   1.316   0.830  15.649 -1.4073  0.7750 -1.0661
 5369TIP3   OH237521   3.758   0.455  14.432 -0.1803 -0.0747  0.3123
 5369TIP3    H137522   3.703   0.436  14.508 -1.0289 -2.7096 -0.8524
 5369TIP3    H237523   3.709   0.521  14.383  0.3818  1.6728  1.9563
 5370TIP3   OH237524   6.488   5.127  12.288 -0.2326  0.8481 -0.4089
 5370TIP3    H137525   6.556   5.190  12.262  0.7554 -0.3626 -0.8429
 5370TIP3    H237526   6.483   5.066  12.214 -2.0621  1.0943 -0.5379
 5371TIP3   OH237527   6.599   5.226   5.893 -0.0429 -0.0315 -0.5652
 5371TIP3    H137528   6.586   5.240   5.987 -2.1431 -0.6277 -0.7209
 5371TIP3    H237529   6.671   5.285   5.870 -0.6505  1.4450  1.0774
 5372TIP3   OH237530   4.460   5.536   6.168  0.2284  0.0098  0.1752
 5372TIP3    H137531   4.465   5.632   6.164  0.6568 -0.0290 -0.4743
 5372TIP3    H237532   4.429   5.517   6.256 -1.1760  0.7949 -0.1286
 5373TIP3   OH237533   4.355   5.396   2.086 -0.1405  0.0738 -0.3540
 5373TIP3    H137534   4.282   5.431   2.137  0.5622 -0.9133  1.4204
 5373TIP3    H237535   4.316   5.326   2.034 -0.2491 -1.6145  1.8530
 5374TIP3   OH237536   2.278   0.923   4.964 -0.4074 -0.1232  0.6351
 5374TIP3    H137537   2.220   0.850   4.941  0.2590 -0.0378 -1.5308
 5374TIP3    H237538   2.222   1.001   4.956 -0.1335 -0.0574 -1.2950
 5375TIP3   OH237539   0.104   6.104   3.451  0.2800  0.7375  0.2045
 5375TIP3    H137540   0.142   6.179   3.498  0.8126  1.4605 -1.3192
 5375TIP3    H237541   0.059   6.143   3.376 -0.3506 -0.4050 -0.0368
 5376TIP3   OH237542   6.318   5.020  13.530  0.5073 -0.2143  0.2013
 5376TIP3    H137543   6.261   5.053  13.460  1.2769 -0.5047 -0.5870
 5376TIP3    H237544   6.406   5.050  13.505  0.6020  1.0996  1.9142
 5377TIP3   OH237545   3.776   0.190  15.092  0.3381  0.2779 -0.1406
 5377TIP3    H137546   3.809   0.269  15.049  0.5868  0.5735  0.5710
 5377TIP3    H237547   3.682   0.203  15.100  0.0257 -0.4925 -2.0276
 5378TIP3   OH237548   0.266   1.167  17.000  0.4716 -0.5032  0.2233
 5378TIP3    H137549   0.239   1.258  17.012  1.5460 -0.2696  1.0081
 5378TIP3    H237550   0.189   1.124  16.963 -0.5300  0.3953  1.1930
 5379TIP3   OH237551   5.949   4.962  15.947 -0.2450  0.1651 -0.6870
 5379TIP3    H137552   5.855   4.946  15.954 -0.1800 -0.6325 -1.4361
 5379TIP3    H237553   5.972   4.934  15.858  0.7451  0.1325 -0.4372
 5380TIP3   OH237554   5.396   3.341   6.002 -0.2043  0.3419  0.5691
 5380TIP3    H137555   5.352   3.306   6.080 -0.8148  0.0753  0.1172
 5380TIP3    H237556   5.399   3.436   6.017 -3.2258  0.7094 -0.4660
 5381TIP3   OH237557   4.258   4.717  16.595  0.2770 -0.2090 -0.6801
 5381TIP3    H137558   4.236   4.740  16.505  2.4403  0.6938 -1.0237
 5381TIP3    H237559   4.173   4.708  16.639 -0.7899  0.3977 -2.5246
 5382TIP3   OH237560   4.573   0.242   0.244  0.2722 -0.5586 -0.4412
 5382TIP3    H137561   4.594   0.153   0.272  0.7125  0.0433  1.2561
 5382TIP3    H237562   4.649   0.271   0.193  1.0042 -0.4830  0.6644
 5383TIP3   OH237563   3.800   6.327   5.618 -0.1672  0.2556  0.4117
 5383TIP3    H137564   3.841   6.256   5.668 -0.1858 -0.0577 -0.0141
 5383TIP3    H237565   3.736   6.284   5.562 -0.2207  0.6165  0.1882
 5384TIP3   OH237566   5.482   0.062  14.013 -0.5167  0.4982 -0.2954
 5384TIP3    H137567   5.573   0.034  14.023 -0.5222  0.1891 -1.0026
 5384TIP3    H237568   5.431  -0.011  14.048 -0.4839  1.3412  1.5804
 5385TIP3   OH237569   3.563   5.805   3.978 -0.9981 -0.3161  0.6330
 5385TIP3    H137570   3.532   5.736   4.037  0.4612  0.3116  2.2321
 5385TIP3    H237571   3.656   5.785   3.965  0.1927  2.5998  3.2367
 5386TIP3   OH237572   4.571   5.017  16.046  0.1371 -0.5051  0.0467
 5386TIP3    H137573   4.605   4.929  16.032 -0.8170 -0.9659  0.5090
 5386TIP3    H237574   4.512   5.032  15.971  1.1373  0.1906 -0.6237
 5387TIP3   OH237575   1.890   6.446  14.308 -0.7711  0.0109 -0.8898
 5387TIP3    H137576   1.912   6.457  14.400 -1.1391  0.1941 -0.8222
 5387TIP3    H237577   1.825   6.376  14.307 -1.7935  0.9321 -0.8629
 5388TIP3   OH237578   4.256   0.746   4.019  0.0913  0.3289  0.1511
 5388TIP3    H137579   4.164   0.725   4.032  0.2056  0.0969  0.5920
 5388TIP3    H237580   4.258   0.796   3.937 -0.3534 -0.1512 -0.1585
 5389TIP3   OH237581   2.509   1.329   4.849 -0.2106  0.0720  0.3661
 5389TIP3    H137582   2.598   1.340   4.885 -0.3201  0.2702  0.5784
 5389TIP3    H237583   2.523   1.284   4.766  0.0612 -0.2621  0.5853
 5390TIP3   OH237584   3.662   4.710  12.646 -0.2557  0.0363 -0.0183
 5390TIP3    H137585   3.711   4.672  12.572 -0.6753  1.4982 -1.0789
 5390TIP3    H237586   3.730   4.745  12.703  0.1010 -1.5264  0.5897
 5391TIP3   OH237587   6.190   4.191   0.562  0.0759  0.3173  0.0929
 5391TIP3    H137588   6.284   4.206   0.547  0.6800 -1.0967  1.9592
 5391TIP3    H237589   6.167   4.120   0.502  0.4180  0.1277  0.1828
 5392TIP3   OH237590   2.030   3.011   5.603  0.6994  0.5174 -0.5878
 5392TIP3    H137591   1.997   2.926   5.633  0.6783  0.9383  0.6399
 5392TIP3    H237592   2.125   3.000   5.599  0.6044  0.0128 -1.8465
 5393TIP3   OH237593   5.742   4.470   0.972  0.2944 -0.3370  0.0147
 5393TIP3    H137594   5.703   4.430   0.894  3.1114 -0.0975 -1.6611
 5393TIP3    H237595   5.801   4.402   1.007 -0.8987 -0.4213  1.9673
 5394TIP3   OH237596   5.338   1.095   0.345 -0.2105  0.2523 -0.0544
 5394TIP3    H137597   5.414   1.041   0.364 -2.0093 -2.4579 -0.0994
 5394TIP3    H237598   5.348   1.171   0.403  0.9466 -1.5548  2.2743
 5395TIP3   OH237599   1.198   0.676   0.596  0.0023 -0.3723  0.0086
 5395TIP3    H137600   1.171   0.766   0.575 -1.0606 -0.5554  0.5050
 5395TIP3    H237601   1.257   0.652   0.525  0.5547  0.8256  0.0384
 5396TIP3   OH237602   5.618   4.889   1.727  0.8937 -0.2077  0.2894
 5396TIP3    H137603   5.577   4.812   1.767 -1.4123  0.2396 -1.0094
 5396TIP3    H237604   5.698   4.855   1.686  1.3141 -1.3640  1.9738
 5397TIP3   OH237605   5.006   5.521   3.655 -0.9761 -0.0093  0.0016
 5397TIP3    H137606   4.964   5.593   3.607  1.1361  0.9028 -0.6066
 5397TIP3    H237607   5.100   5.535   3.642 -0.4476 -1.9833  1.2231
 5398TIP3   OH237608   5.889   3.529  16.522  0.4047 -0.0434 -0.1001
 5398TIP3    H137609   5.904   3.623  16.516  0.9997  0.3392  4.1042
 5398TIP3    H237610   5.974   3.493  16.545 -0.3666 -1.1656  1.1445
 5399TIP3   OH237611   4.472   4.138   3.032  0.2694  0.2547  0.6200
 5399TIP3    H137612   4.403   4.188   2.987  1.3671  0.9718 -0.3330
 5399TIP3    H237613   4.527   4.104   2.961  0.7199 -0.5802  1.3508
 5400TIP3   OH237614   5.349   1.723   4.035  0.5406  0.0678 -0.2623
 5400TIP3    H137615   5.334   1.695   4.125 -2.3132 -0.2907 -0.7288
 5400TIP3    H237616   5.424   1.672   4.006  0.2674 -1.3272  1.3080
 5401TIP3   OH237617   5.161   3.512   1.104  0.0759  0.1905 -0.3676
 5401TIP3    H137618   5.194   3.434   1.148 -1.4277  0.1488  0.7687
 5401TIP3    H237619   5.140   3.484   1.015 -2.0173 -1.1863  0.4845
 5402TIP3   OH237620   1.580   5.429  14.152 -0.3672 -0.2203  0.2905
 5402TIP3    H137621   1.665   5.421  14.109 -0.6613  0.1800 -0.3902
 5402TIP3    H237622   1.600   5.458  14.241  0.1807  0.4847 -0.0561
 5403TIP3   OH237623   4.766   4.354   2.967 -0.0323  0.1089  0.4159
 5403TIP3    H137624   4.671   4.357   2.954 -0.1144 -1.4351  0.4661
 5403TIP3    H237625   4.800   4.423   2.910 -1.1771  0.6612  0.3669
 5404TIP3   OH237626   6.273   0.804  17.182 -0.2413  0.5674 -0.1911
 5404TIP3    H137627   6.308   0.891  17.204 -0.4774  0.6600 -0.1819
 5404TIP3    H237628   6.296   0.792  17.090 -2.5567  1.7951 -1.0105
 5405TIP3   OH237629   4.193   0.148   0.842 -0.0243  0.3000  0.1482
 5405TIP3    H137630   4.208   0.210   0.913  1.1752 -0.0969  0.2648
 5405TIP3    H237631   4.239   0.186   0.767 -0.7958  0.4292 -0.2707
 5406TIP3   OH237632   4.098   4.026  12.973 -0.7161 -0.0142  0.0298
 5406TIP3    H137633   4.135   4.048  12.888 -0.9463 -0.7322 -0.2590
 5406TIP3    H237634   4.152   3.955  13.006 -1.6765 -0.9256 -0.3013
 5407TIP3   OH237635   4.045   6.185  16.177 -0.1850  0.3473  0.6628
 5407TIP3    H137636   4.017   6.259  16.230 -1.7084  1.2315 -1.2672
 5407TIP3    H237637   3.968   6.128  16.173  0.3039 -0.3028  0.4106
 5408TIP3   OH237638   5.290   0.603  11.614 -0.4535 -0.6061  0.0420
 5408TIP3    H137639   5.279   0.663  11.540 -1.6307 -0.0374  0.6555
 5408TIP3    H237640   5.371   0.556  11.595  0.3984  1.0462 -0.5396
 5409TIP3   OH237641   3.107   4.261   0.467  0.0114  0.1354  0.3969
 5409TIP3    H137642   3.110   4.351   0.434 -0.4491 -0.0611 -0.2075
 5409TIP3    H237643   3.041   4.218   0.412  1.6389 -1.0988 -0.7021
 5410TIP3   OH237644   3.047   3.683   4.793 -0.3082 -0.0570  0.0216
 5410TIP3    H137645   3.135   3.710   4.768 -0.0925 -0.7450  0.0340
 5410TIP3    H237646   3.007   3.653   4.711  0.4739 -2.5355  0.4664
 5411TIP3   OH237647   6.670   3.465   3.265 -0.2184 -0.1143  0.4584
 5411TIP3    H137648   6.708   3.479   3.352  0.7341 -0.7394  0.1531
 5411TIP3    H237649   6.599   3.402   3.280 -1.5575  1.4815  1.1202
 5412TIP3   OH237650   3.740   3.570  12.669 -0.4638 -0.0099 -0.1340
 5412TIP3    H137651   3.716   3.633  12.736 -2.0956  1.0071 -1.5914
 5412TIP3    H237652   3.831   3.592  12.647  0.3903 -0.8891  2.2128
 5413TIP3   OH237653   4.293   3.391   4.629  0.7671 -0.3633 -0.0324
 5413TIP3    H137654   4.240   3.461   4.591  1.3818 -1.0977 -2.4240
 5413TIP3    H237655   4.230   3.323   4.653  0.3581  0.1600  0.4175
 5414TIP3   OH237656   3.106   0.476   3.209  0.4078 -0.4915 -0.3338
 5414TIP3    H137657   3.198   0.456   3.193  0.5274 -1.4880  1.3423
 5414TIP3    H237658   3.103   0.499   3.301 -1.1406 -1.3028 -0.1484
 5415TIP3   OH237659   0.714   3.734   4.726 -0.2696 -0.1141  0.1375
 5415TIP3    H137660   0.703   3.784   4.807 -2.9274 -0.2814 -0.0225
 5415TIP3    H237661   0.624   3.714   4.697  0.6145 -2.7367 -1.2008
 5416TIP3   OH237662   6.118   1.672  13.293 -0.5396  0.4194  0.0377
 5416TIP3    H137663   6.161   1.591  13.267 -1.4717 -0.6830  1.7439
 5416TIP3    H237664   6.146   1.736  13.227  1.4923 -0.8758 -0.4648
 5417TIP3   OH237665   6.569   0.890   0.886  0.2609  0.1707  0.2507
 5417TIP3    H137666   6.480   0.898   0.919 -0.3120 -1.0120 -0.9062
 5417TIP3    H237667   6.564   0.923   0.796  0.8610 -0.4205 -0.0050
 5418TIP3   OH237668   5.582   5.525  16.035 -0.0537 -0.7898  0.2429
 5418TIP3    H137669   5.533   5.470  16.095 -0.6417 -3.0561 -2.1371
 5418TIP3    H237670   5.660   5.550  16.084 -1.2921 -1.0850  2.4826
 5419TIP3   OH237671   4.636   0.439  12.394 -0.3885 -0.1346  0.5726
 5419TIP3    H137672   4.688   0.420  12.316 -1.0893 -1.4231  0.4124
 5419TIP3    H237673   4.687   0.402  12.467 -0.0762  0.4623  0.6722
 5420TIP3   OH237674   4.034   1.788   5.167  0.2182 -0.3931  0.6139
 5420TIP3    H137675   3.997   1.842   5.097 -0.9401  1.3929  2.4754
 5420TIP3    H237676   4.121   1.824   5.181 -0.1156  0.2530  1.0720
 5421TIP3   OH237677   6.113   2.233   2.740 -0.3407 -0.1054  0.5958
 5421TIP3    H137678   6.020   2.247   2.759 -0.2336  1.5619  0.0744
 5421TIP3    H237679   6.126   2.275   2.655  0.8206 -0.6087  0.5173
 5422TIP3   OH237680   4.203   6.531  15.847  0.0905 -0.2066 -0.2440
 5422TIP3    H137681   4.216   6.486  15.930 -0.5985  0.4167  0.2189
 5422TIP3    H237682   4.198   6.461  15.782 -0.4541 -0.7716  0.3918
 5423TIP3   OH237683   6.654   4.246  13.865  0.2303 -0.0915 -0.1766
 5423TIP3    H137684   6.669   4.338  13.843  1.6534 -0.9481 -3.3227
 5423TIP3    H237685   6.740   4.214  13.891  0.2653 -1.0718 -1.4622
 5424TIP3   OH237686   0.816   6.544   2.988 -0.6937  0.4202 -0.1929
 5424TIP3    H137687   0.856   6.623   3.025 -0.2340 -0.4523  1.2179
 5424TIP3    H237688   0.869   6.525   2.910 -1.5346  2.1458 -1.2580
 5425TIP3   OH237689   5.320   3.683  12.487  0.0617  0.0774 -0.1191
 5425TIP3    H137690   5.309   3.776  12.502  2.1991  0.2889  0.4980
 5425TIP3    H237691   5.278   3.667  12.402  0.9960  1.9092 -0.9698
 5426TIP3   OH237692   5.402   0.338  17.179  0.0199  0.1447  0.0812
 5426TIP3    H137693   5.399   0.313  17.271  1.7865  1.6270  0.6029
 5426TIP3    H237694   5.311   0.362  17.158 -0.5311 -0.8378  1.2190
 5427TIP3   OH237695   0.046   0.934   0.614 -0.2809 -0.2268  0.0942
 5427TIP3    H137696   0.052   0.843   0.643 -1.9916  0.0215  1.3690
 5427TIP3    H237697  -0.046   0.957   0.627  0.0320  1.5708 -0.5951
 5428TIP3   OH237698   0.621   0.760  10.986 -0.4682  0.4242  0.0182
 5428TIP3    H137699   0.671   0.767  10.904  1.0596 -1.2847  0.7407
 5428TIP3    H237700   0.624   0.667  11.008 -0.8176  0.8516  2.0275
 5429TIP3   OH237701   6.300   0.630  15.511  0.1492 -0.0002  0.5282
 5429TIP3    H137702   6.205   0.616  15.511  0.0991  0.2330  1.4179
 5429TIP3    H237703   6.334   0.558  15.565  0.5273 -0.3154 -0.1145
 5430TIP3   OH237704   5.984   4.839   3.861 -1.2058 -0.0505 -0.1600
 5430TIP3    H137705   6.073   4.815   3.835 -0.9963 -0.1541  0.6110
 5430TIP3    H237706   5.929   4.816   3.786 -0.3602  1.7121 -1.4002
 5431TIP3   OH237707   3.813   4.244  15.267  0.5976  0.2866 -0.0285
 5431TIP3    H137708   3.853   4.267  15.183  0.9404  1.4698  0.4364
 5431TIP3    H237709   3.870   4.177  15.304  1.2797  0.8163 -0.0934
 5432TIP3   OH237710   5.870   6.292  10.756  0.6853 -0.2302 -0.4862
 5432TIP3    H137711   5.885   6.308  10.663  0.4987 -0.0566 -0.4855
 5432TIP3    H237712   5.792   6.342  10.777 -0.7221 -2.1666 -0.7848
 5433TIP3   OH237713   6.615   5.860   5.276 -0.7235 -0.3388 -0.1122
 5433TIP3    H137714   6.656   5.941   5.244 -0.9587 -0.8817 -1.9038
 5433TIP3    H237715   6.634   5.859   5.370  0.1883  1.2597 -0.2387
 5434TIP3   OH237716   0.315   6.430   1.908  0.1823 -0.0175 -0.0480
 5434TIP3    H137717   0.368   6.405   1.832  1.2549 -0.0725  0.7036
 5434TIP3    H237718   0.315   6.526   1.907 -3.2135  0.1761 -2.4266
 5435TIP3   OH237719   1.574   1.808   6.302  0.7134 -0.2104 -0.1887
 5435TIP3    H137720   1.502   1.747   6.287  3.2426 -3.1425 -1.4004
 5435TIP3    H237721   1.542   1.866   6.372 -2.3363 -2.0753  0.1434
 5436TIP3   OH237722   3.118   2.097  12.028 -0.0094  0.3766 -0.6060
 5436TIP3    H137723   3.168   2.170  11.991  1.7053 -0.1962  0.4636
 5436TIP3    H237724   3.152   2.019  11.985 -2.3413  0.1669 -2.2852
 5437TIP3   OH237725   1.915   0.110  11.949 -0.4566 -0.2835  0.1639
 5437TIP3    H137726   1.827   0.127  11.916  0.4723  0.9742 -1.8251
 5437TIP3    H237727   1.973   0.131  11.876  1.4444 -2.5910  0.8851
 5438TIP3   OH237728   1.307   2.786   1.033  0.4211  0.2257 -0.4028
 5438TIP3    H137729   1.382   2.844   1.019 -0.7533  1.8597 -0.2842
 5438TIP3    H237730   1.239   2.844   1.069 -0.5959 -1.3900  0.3755
 5439TIP3   OH237731   6.102   5.852  16.241  0.4961  0.3512  0.4922
 5439TIP3    H137732   6.119   5.759  16.233  2.5773  0.7736 -0.5082
 5439TIP3    H237733   6.187   5.894  16.231 -0.3922  2.3745  0.8218
 5440TIP3   OH237734   6.763   3.081   6.057  0.5973 -0.0487 -0.0268
 5440TIP3    H137735   6.799   3.070   5.969  2.4864 -0.5811  0.7476
 5440TIP3    H237736   6.801   3.163   6.088  0.1282  0.0226  0.3666
 5441TIP3   OH237737   4.164   0.348   1.988 -0.2086  0.5672  0.0763
 5441TIP3    H137738   4.071   0.360   2.002 -0.0720  0.4202  1.1416
 5441TIP3    H237739   4.170   0.296   1.908 -1.1227 -1.5500  1.3187
 5442TIP3   OH237740   1.544   4.803   4.247 -0.7389  0.3645  0.4605
 5442TIP3    H137741   1.555   4.863   4.173  1.5814 -0.4766  0.0667
 5442TIP3    H237742   1.462   4.756   4.228  0.8994 -1.4639 -2.8268
 5443TIP3   OH237743   0.287   1.208   2.207  0.3401 -0.1421 -0.4529
 5443TIP3    H137744   0.280   1.180   2.115 -1.9335  1.6233 -0.8991
 5443TIP3    H237745   0.260   1.299   2.207  0.1653 -0.1258  2.0208
 5444TIP3   OH237746   6.509   6.685  11.375 -0.1941  0.2158  0.1826
 5444TIP3    H137747   6.438   6.713  11.433 -0.4037  0.2142 -0.0718
 5444TIP3    H237748   6.465   6.642  11.302  0.1183 -0.7490  0.5416
 5445TIP3   OH237749   3.087   3.564  12.731 -0.2086 -0.2904  0.5098
 5445TIP3    H137750   3.116   3.498  12.794  0.4308 -1.0861 -0.5929
 5445TIP3    H237751   3.110   3.528  12.646 -1.1169  0.7430 -0.1982
 5446TIP3   OH237752   4.530   5.431   4.079 -0.1756 -0.1007  0.1481
 5446TIP3    H137753   4.534   5.517   4.037 -1.6116 -0.7519 -1.4129
 5446TIP3    H237754   4.531   5.451   4.173  0.6062  1.5396 -0.1705
 5447TIP3   OH237755   0.455   2.232  11.239  0.1687 -0.0074 -0.3221
 5447TIP3    H137756   0.467   2.255  11.147  1.4496 -0.4571 -0.2925
 5447TIP3    H237757   0.397   2.299  11.274  0.9364  1.0919 -1.0849
 5448TIP3   OH237758   0.200   0.229   3.293 -0.1910 -0.1733  0.2754
 5448TIP3    H137759   0.193   0.296   3.226 -2.9722 -0.1663  0.4349
 5448TIP3    H237760   0.280   0.181   3.272  1.1821  2.3296 -0.5926
 5449TIP3   OH237761   4.355   3.855   3.553 -0.5476 -0.2871  0.0084
 5449TIP3    H137762   4.333   3.932   3.500 -2.1535 -1.0479 -0.4683
 5449TIP3    H237763   4.446   3.835   3.528 -0.4845  0.7692 -0.6956
 5450TIP3   OH237764   3.013   2.413  11.819 -0.2748 -0.5135 -0.1572
 5450TIP3    H137765   2.989   2.421  11.911  0.6239  0.3549  0.0325
 5450TIP3    H237766   2.971   2.488  11.777 -0.1626 -0.5435 -0.3258
 5451TIP3   OH237767   2.024   6.012  14.331 -0.6099 -0.4696 -0.8680
 5451TIP3    H137768   2.107   6.012  14.380 -0.4309  2.6300 -0.9638
 5451TIP3    H237769   2.050   6.018  14.239 -0.9087  0.1253 -0.9208
 5452TIP3   OH237770   3.566   6.438   5.820  0.1863  0.5247  0.5096
 5452TIP3    H137771   3.570   6.380   5.896 -0.3668  0.5765  0.5807
 5452TIP3    H237772   3.610   6.389   5.751  0.5811  0.4263  0.8273
 5453TIP3   OH237773   6.703   4.950  10.648  0.5492 -0.1581  0.1668
 5453TIP3    H137774   6.739   4.982  10.730  0.6949 -1.7936  0.7914
 5453TIP3    H237775   6.624   4.902  10.674  0.3927 -0.3708 -0.6739
 5454TIP3   OH237776   2.859   2.335  14.549 -0.0173  0.2106 -0.1464
 5454TIP3    H137777   2.833   2.426  14.534  0.2272  0.5624  1.4115
 5454TIP3    H237778   2.790   2.299  14.604 -0.1110 -0.5575 -0.7617
 5455TIP3   OH237779   2.866   2.361  15.966  0.5353 -0.3234  0.5045
 5455TIP3    H137780   2.854   2.346  16.060  0.2776  0.6095  0.6340
 5455TIP3    H237781   2.777   2.368  15.932  0.6341  0.9804  0.4803
 5456TIP3   OH237782   5.549   3.120   1.750  0.0256  0.1851  0.0408
 5456TIP3    H137783   5.601   3.046   1.720 -1.4151 -1.2604  0.9701
 5456TIP3    H237784   5.463   3.106   1.712 -0.8875  0.1480  2.0169
 5457TIP3   OH237785   1.415   4.727   0.979 -0.2311  0.4289  0.2253
 5457TIP3    H137786   1.334   4.736   1.029 -0.9901 -1.7711 -0.4792
 5457TIP3    H237787   1.397   4.657   0.917  1.1426  2.1172 -2.2459
 5458TIP3   OH237788   2.944   6.577  13.485  0.2016  0.4101 -0.1981
 5458TIP3    H137789   3.036   6.551  13.491  0.0750  0.0221  0.0065
 5458TIP3    H237790   2.943   6.639  13.411  0.6806  0.6611  0.0001
 5459TIP3   OH237791   5.058   1.940   1.428  0.1472  0.3488  0.1577
 5459TIP3    H137792   5.085   1.913   1.340 -0.3974  0.3815 -0.0260
 5459TIP3    H237793   4.987   1.880   1.451 -0.3113  0.8952  0.2065
 5460TIP3   OH237794   5.181   6.041  11.621  0.8281  0.4746 -0.6835
 5460TIP3    H137795   5.256   5.985  11.643  0.8553  0.8011  0.1088
 5460TIP3    H237796   5.121   5.984  11.574  0.7687 -0.2714  0.2810
 5461TIP3   OH237797   4.691   2.755  16.679  0.4831  0.1325 -0.5034
 5461TIP3    H137798   4.770   2.703  16.698 -1.5369 -2.3154  1.8532
 5461TIP3    H237799   4.699   2.775  16.585  3.9112  0.1412 -0.3571
 5462TIP3   OH237800   2.470   6.456   3.200 -0.4137 -0.2749  0.3677
 5462TIP3    H137801   2.496   6.374   3.242 -1.8893  0.2824  2.5467
 5462TIP3    H237802   2.523   6.523   3.243 -1.2547  0.1958  0.7094
 5463TIP3   OH237803   4.589   6.632   2.148  0.4358 -0.5551  0.1582
 5463TIP3    H137804   4.502   6.612   2.112 -0.4050 -1.1825  2.3568
 5463TIP3    H237805   4.608   6.721   2.116 -0.9649 -0.4514 -0.4757
 5464TIP3   OH237806   0.265   0.125  14.005  0.5831  0.5750 -0.0277
 5464TIP3    H137807   0.338   0.116  13.943 -0.0384 -0.1145 -0.6877
 5464TIP3    H237808   0.307   0.128  14.091  1.5568  2.8394 -0.5092
 5465TIP3   OH237809   5.559   0.978  14.688 -0.1123 -0.2702  0.6140
 5465TIP3    H137810   5.509   0.900  14.664 -0.4979  0.1790 -0.0747
 5465TIP3    H237811   5.519   1.049  14.637  1.7155 -0.0300 -0.6029
 5466TIP3   OH237812   3.252   5.722  12.067  0.7916  0.2470  0.3772
 5466TIP3    H137813   3.326   5.736  12.008  2.5022 -3.0314  1.4630
 5466TIP3    H237814   3.204   5.649  12.028 -0.9685  1.2656  0.5453
 5467TIP3   OH237815   4.237   0.704  16.979 -0.0717  0.5791 -0.0354
 5467TIP3    H137816   4.184   0.725  17.056  1.1913 -3.2313  2.1066
 5467TIP3    H237817   4.182   0.646  16.927  1.2276 -2.0968  1.3961
 5468TIP3   OH237818   0.052   4.564  15.414 -0.5424 -0.0042 -0.3244
 5468TIP3    H137819   0.059   4.607  15.499  1.4176  0.9243 -0.8912
 5468TIP3    H237820   0.062   4.635  15.350 -0.7746 -0.8479 -1.3215
 5469TIP3   OH237821   2.249   3.230   3.119  0.1398  0.1829  0.0378
 5469TIP3    H137822   2.294   3.146   3.128 -0.0737  0.0844  0.1961
 5469TIP3    H237823   2.295   3.275   3.048 -0.9079 -0.8300 -1.3543
 5470TIP3   OH237824   2.109   5.222  12.145  0.3208  0.5356  0.1717
 5470TIP3    H137825   2.022   5.183  12.139 -0.3050  1.5756  1.7997
 5470TIP3    H237826   2.104   5.282  12.219  2.1233  1.4431 -0.3697
 5471TIP3   OH237827   1.829   1.390   2.327 -0.3255  0.0994 -0.4031
 5471TIP3    H137828   1.895   1.457   2.315 -1.0556  0.7274 -1.0171
 5471TIP3    H237829   1.841   1.360   2.417  0.1780  0.8679 -0.2067
 5472TIP3   OH237830   0.413   1.867  11.910 -0.7732  0.5037 -0.6379
 5472TIP3    H137831   0.432   1.961  11.909 -0.1019  0.3785 -0.3144
 5472TIP3    H237832   0.460   1.832  11.834  1.5559 -0.0195  0.9211
 5473TIP3   OH237833   3.901   5.095  16.390 -0.4961  0.1343  0.2035
 5473TIP3    H137834   3.864   5.007  16.396  1.4797 -0.7684 -0.3802
 5473TIP3    H237835   3.841   5.142  16.332 -0.7868 -1.2587 -0.6733
 5474TIP3   OH237836   1.340   3.729   4.008  0.2795  0.7022  0.2053
 5474TIP3    H137837   1.404   3.663   4.034  1.4697  1.3396 -0.9498
 5474TIP3    H237838   1.260   3.704   4.053  1.1047 -0.6372  1.0064
 5475TIP3   OH237839   1.617   2.875   5.586  0.0876  0.3523 -0.1901
 5475TIP3    H137840   1.697   2.928   5.591  0.8098 -0.6230 -1.0416
 5475TIP3    H237841   1.559   2.914   5.652  0.3102  2.6255 -1.2262
 5476TIP3   OH237842   3.009   5.108   6.055  0.4376  0.1139  0.3789
 5476TIP3    H137843   2.970   5.195   6.042  1.4989  0.4191 -0.9734
 5476TIP3    H237844   2.935   5.052   6.080 -0.5871  1.0193 -0.5137
 5477TIP3   OH237845   4.718   4.767   1.801 -0.1112 -0.4892  0.0486
 5477TIP3    H137846   4.669   4.841   1.764  0.6543 -0.2816 -0.5803
 5477TIP3    H237847   4.666   4.740   1.876 -0.0565  1.1444  0.7196
 5478TIP3   OH237848   5.897   0.848  15.376 -0.4380 -0.2397  0.5652
 5478TIP3    H137849   5.884   0.897  15.295 -1.1473  0.5876  1.1602
 5478TIP3    H237850   5.882   0.757  15.351 -1.8290  0.1226  0.0157
 5479TIP3   OH237851   0.350   2.878  13.502 -0.2523 -0.1840  0.7477
 5479TIP3    H137852   0.293   2.804  13.479 -0.1999  0.2421 -0.9376
 5479TIP3    H237853   0.399   2.849  13.578  1.8293 -3.0636 -1.4786
 5480TIP3   OH237854   6.690   4.815   1.683  0.1496 -0.2191 -0.5347
 5480TIP3    H137855   6.599   4.832   1.658  0.1279 -0.5723 -0.7013
 5480TIP3    H237856   6.689   4.725   1.716  0.0851  0.3945  1.2117
 5481TIP3   OH237857   0.761   0.454  13.967  0.0435 -0.6308  0.3203
 5481TIP3    H137858   0.815   0.393  14.018 -1.5838 -0.4340  2.4482
 5481TIP3    H237859   0.823   0.516  13.929  1.4613 -1.6576  0.8804
 5482TIP3   OH237860   5.113   3.139  10.666 -0.1566  0.3035 -0.4767
 5482TIP3    H137861   5.204   3.161  10.646  0.1852 -0.6650 -0.0154
 5482TIP3    H237862   5.082   3.089  10.590  0.2300 -0.8297  0.0982
 5483TIP3   OH237863   3.164   2.527   3.565 -0.5512  0.5385 -0.0549
 5483TIP3    H137864   3.169   2.455   3.628 -1.6751  1.2981  0.9307
 5483TIP3    H237865   3.251   2.529   3.524  0.1734 -0.0233  1.4057
 5484TIP3   OH237866   3.290   2.323   2.584  0.0114 -0.5925 -0.1385
 5484TIP3    H137867   3.312   2.399   2.638 -0.6006 -1.3017  1.1468
 5484TIP3    H237868   3.295   2.249   2.644  0.1682 -1.5292 -1.2682
 5485TIP3   OH237869   2.789   6.636   4.914  0.0785  0.4593 -0.1701
 5485TIP3    H137870   2.695   6.643   4.933 -0.4687  0.7753 -2.7197
 5485TIP3    H237871   2.827   6.606   4.997 -2.6473 -2.6450  0.1552
 5486TIP3   OH237872   2.003   1.430   0.410 -0.4582 -0.0771  0.0064
 5486TIP3    H137873   2.087   1.400   0.445  0.7644  3.3198  0.3364
 5486TIP3    H237874   1.967   1.485   0.480 -2.3851 -0.4643 -0.6303
 5487TIP3   OH237875   0.340   6.295  15.903 -0.0590 -0.0980  0.2707
 5487TIP3    H137876   0.266   6.236  15.916 -0.0349 -0.3991 -0.8563
 5487TIP3    H237877   0.305   6.382  15.921 -0.8065 -0.1983 -0.6050
 5488TIP3   OH237878   4.126   3.434   0.091 -0.6715 -0.2209 -0.3199
 5488TIP3    H137879   4.194   3.387   0.042 -0.1970  1.0748 -0.9386
 5488TIP3    H237880   4.159   3.523   0.099 -1.3859 -0.0608  1.1597
 5489TIP3   OH237881   2.318   5.552   3.186 -0.1507  0.0521  0.1850
 5489TIP3    H137882   2.338   5.460   3.174  0.5489 -0.0311  1.7851
 5489TIP3    H237883   2.391   5.586   3.239 -1.2680  1.1043  1.1135
 5490TIP3   OH237884   0.646   4.749  10.914  0.4491  0.0446  0.3526
 5490TIP3    H137885   0.674   4.676  10.969  2.0022  0.5242  0.2468
 5490TIP3    H237886   0.629   4.821  10.975  1.2469  0.2947  0.2859
 5491TIP3   OH237887   6.567   2.524   5.924  0.1647  0.4809 -0.9404
 5491TIP3    H137888   6.503   2.455   5.938  0.6217 -0.3400 -2.5563
 5491TIP3    H237889   6.627   2.517   5.998  0.0571 -0.7228 -0.9415
 5492TIP3   OH237890   0.107   6.094  14.225  0.0391 -0.1731  0.2350
 5492TIP3    H137891   0.017   6.121  14.243  0.0410 -0.5614  0.8663
 5492TIP3    H237892   0.137   6.054  14.307  1.0525  0.6778  0.3060
 5493TIP3   OH237893   1.477   4.638   2.765 -0.1793  0.5110  0.2144
 5493TIP3    H137894   1.389   4.674   2.758 -0.9600 -1.1176  1.0378
 5493TIP3    H237895   1.464   4.546   2.789  1.7433  0.2820  0.5961
 5494TIP3   OH237896   5.264   4.513   2.382 -0.7730  0.3265 -0.0563
 5494TIP3    H137897   5.261   4.607   2.401  0.1141  0.4384 -0.4007
 5494TIP3    H237898   5.346   4.483   2.422 -1.3645 -0.4337  0.5972
 5495TIP3   OH237899   3.178   2.318   1.842  0.0817  0.4071  0.2623
 5495TIP3    H137900   3.250   2.324   1.780  0.4960 -0.3851  0.6526
 5495TIP3    H237901   3.215   2.272   1.918 -0.7204  0.3485  0.6333
 5496TIP3   OH237902   4.044   2.986  15.430 -0.6470  0.2247 -0.6866
 5496TIP3    H137903   4.012   2.900  15.400 -1.5482 -0.3269  1.6808
 5496TIP3    H237904   3.965   3.035  15.451 -0.2276 -0.4700  3.3846
 5497TIP3   OH237905   6.084   4.331   0.239 -0.1548 -0.4485 -0.6003
 5497TIP3    H137906   6.110   4.393   0.306 -1.3292 -2.1592  1.5679
 5497TIP3    H237907   6.025   4.381   0.182  0.3496  0.8656 -0.0110
 5498TIP3   OH237908   0.977   4.240  13.183  0.0071  0.2103 -0.2910
 5498TIP3    H137909   1.062   4.213  13.217 -0.9069  0.0805  2.0128
 5498TIP3    H237910   0.951   4.169  13.124  0.7184 -0.5952  0.3480
 5499TIP3   OH237911   3.964   2.335  17.055 -0.1448  0.0864  0.0354
 5499TIP3    H137912   4.050   2.355  17.092 -0.1150 -2.0135  1.2717
 5499TIP3    H237913   3.914   2.303  17.130 -1.1155 -1.3362 -1.1920
 5500TIP3   OH237914   0.434   1.121   1.878 -0.5655 -0.1350  0.1250
 5500TIP3    H137915   0.507   1.067   1.909  0.0058  0.8718  0.5953
 5500TIP3    H237916   0.356   1.083   1.918 -0.3208 -1.2755 -0.4432
 5501TIP3   OH237917   3.617   1.514  11.331 -0.4364  0.2406 -0.1898
 5501TIP3    H137918   3.676   1.579  11.293 -0.8680 -0.1241 -1.5637
 5501TIP3    H237919   3.540   1.563  11.358  0.5754  0.7744  1.9313
 5502TIP3   OH237920   2.084   1.491  12.433  0.0177 -0.4085 -0.1070
 5502TIP3    H137921   2.026   1.416  12.449  0.5510 -1.0244 -0.9301
 5502TIP3    H237922   2.150   1.457  12.372  1.1524  0.3246  0.6764
 5503TIP3   OH237923   5.106   3.679   4.983 -0.4494  0.0966  0.1257
 5503TIP3    H137924   5.176   3.737   5.013 -0.2112 -0.9681  1.7629
 5503TIP3    H237925   5.026   3.719   5.017 -0.3132 -0.3560  1.0009
 5504TIP3   OH237926   0.973   2.840   1.604 -0.1690 -0.1941 -0.2551
 5504TIP3    H137927   0.895   2.794   1.575  0.0588 -1.1391  0.5495
 5504TIP3    H237928   1.016   2.868   1.523 -0.9316 -0.3505 -0.7254
 5505TIP3   OH237929   3.476   2.616  17.219 -0.5104 -0.5550 -0.5726
 5505TIP3    H137930   3.541   2.654  17.159 -0.7976  0.8087 -0.0435
 5505TIP3    H237931   3.464   2.526  17.187  1.1464 -0.6335 -1.0744
 5506TIP3   OH237932   3.297   2.881  16.933  0.2322  0.2632 -0.0589
 5506TIP3    H137933   3.321   2.791  16.956  0.0690  0.1677 -0.2646
 5506TIP3    H237934   3.207   2.876  16.901  0.3707  0.4299 -0.4907
 5507TIP3   OH237935   0.075   2.025  12.598  0.0040 -0.1165  0.4885
 5507TIP3    H137936   0.160   2.011  12.640 -0.2759  1.0301  1.4948
 5507TIP3    H237937   0.011   1.999  12.663 -0.4308  1.0130  0.5441
 5508TIP3   OH237938   4.397   4.560   4.346  0.8731 -0.0085  0.4522
 5508TIP3    H137939   4.340   4.515   4.409  0.4359 -0.5229 -0.2872
 5508TIP3    H237940   4.472   4.502   4.337 -0.1609 -1.1968 -1.2893
 5509TIP3   OH237941   4.614   2.928  15.342 -0.1962  0.5595  0.1628
 5509TIP3    H137942   4.700   2.959  15.370 -0.3354 -0.0392  1.2903
 5509TIP3    H237943   4.561   3.008  15.335  0.2346  0.8546  0.2219
 5510TIP3   OH237944   2.857   1.459   0.708  0.1687  0.2234  0.4042
 5510TIP3    H137945   2.782   1.439   0.764  0.4541  0.6668  0.9456
 5510TIP3    H237946   2.930   1.472   0.768  1.8467 -4.5101 -0.1501
 5511TIP3   OH237947   2.830   6.011   3.320  0.7231  0.8686  0.1437
 5511TIP3    H137948   2.817   5.998   3.226  1.9848 -0.1516  0.0803
 5511TIP3    H237949   2.800   6.100   3.337  1.3213  1.3956 -1.4031
 5512TIP3   OH237950   3.089   3.206  16.231 -0.0621 -0.5786  0.9636
 5512TIP3    H137951   3.096   3.161  16.146  0.1743 -2.0803  1.7488
 5512TIP3    H237952   3.063   3.295  16.208 -0.9257 -1.1933 -0.6495
 5513TIP3   OH237953   0.339   6.286  13.534 -0.1735  0.3534  0.5546
 5513TIP3    H137954   0.282   6.312  13.606 -0.8590 -0.7893  0.4400
 5513TIP3    H237955   0.319   6.194  13.518  0.8618  0.2443 -0.2780
 5514TIP3   OH237956   3.693   3.901   0.690  0.4948  0.1526  0.5736
 5514TIP3    H137957   3.613   3.879   0.738 -0.2066  0.0566 -0.5946
 5514TIP3    H237958   3.675   3.986   0.651  0.8941  0.0574  0.1704
 5515TIP3   OH237959   2.967   3.652  11.146 -0.0970 -0.7087  0.1040
 5515TIP3    H137960   2.919   3.613  11.073  0.0397 -1.4114  0.3779
 5515TIP3    H237961   2.934   3.605  11.223 -0.1189 -0.0926  0.4773
 5516TIP3   OH237962   5.069   6.363   0.030  0.0008 -0.1227 -0.2280
 5516TIP3    H137963   4.975   6.344   0.041 -0.0297  0.7289  1.2621
 5516TIP3    H237964   5.109   6.278   0.017 -1.1374 -0.3947 -2.3924
 5517TIP3   OH237965   0.869   3.871   1.946  0.6442 -0.3161  0.4618
 5517TIP3    H137966   0.926   3.797   1.967  0.0791 -1.0530 -0.4962
 5517TIP3    H237967   0.867   3.924   2.026  1.3201 -1.1679  1.0563
 5518TIP3   OH237968   5.729   0.253   3.781 -0.1414  0.6565 -0.4235
 5518TIP3    H137969   5.657   0.314   3.799  0.4602  1.2736 -0.0436
 5518TIP3    H237970   5.807   0.308   3.781  0.3359 -0.0127 -0.7961
 5519TIP3   OH237971   5.514   0.858  16.927  0.3873  0.1701  0.0182
 5519TIP3    H137972   5.608   0.840  16.930  0.5086  0.8839  0.7578
 5519TIP3    H237973   5.487   0.832  16.839  1.4944  1.0532 -0.5952
 5520TIP3   OH237974   0.329   6.470  11.238  0.0032  0.9403  0.1351
 5520TIP3    H137975   0.257   6.476  11.176  0.1028  0.9559  0.0201
 5520TIP3    H237976   0.348   6.376  11.244  0.6179  1.0059 -0.5846
 5521TIP3   OH237977   3.104   3.056  11.280  0.1629 -0.1162  0.3401
 5521TIP3    H137978   3.185   3.029  11.237 -0.5512 -2.7153  0.4831
 5521TIP3    H237979   3.050   3.093  11.210  1.6813  2.3696  0.3743
 5522TIP3   OH237980   2.297   0.776  12.389  0.1489  0.1728  0.7185
 5522TIP3    H137981   2.334   0.741  12.308  1.2619 -0.7589  1.5972
 5522TIP3    H237982   2.253   0.857  12.363 -0.4650 -0.6681 -0.9878
 5523TIP3   OH237983   6.213   2.863   2.031 -0.4601 -0.4357  0.2391
 5523TIP3    H137984   6.262   2.901   1.958 -3.0117 -0.0103 -1.4123
 5523TIP3    H237985   6.183   2.939   2.082 -1.9599 -0.4083 -0.6042
 5524TIP3   OH237986   6.304   4.332  14.446  0.0455 -0.1166 -0.2431
 5524TIP3    H137987   6.239   4.391  14.485  0.6084 -0.4152  1.2041
 5524TIP3    H237988   6.253   4.256  14.417 -0.2859 -0.2865  0.7497
 5525TIP3   OH237989   1.211   0.967  12.966  0.3507  0.1570 -0.3550
 5525TIP3    H137990   1.299   0.930  12.972  0.4287  0.3109 -0.5141
 5525TIP3    H237991   1.226   1.057  12.937  0.1569  0.2674 -0.1130
 5526TIP3   OH237992   1.635   3.514   2.760 -0.3748 -0.4040 -0.2722
 5526TIP3    H137993   1.714   3.487   2.712 -1.0939 -1.1716 -1.0482
 5526TIP3    H237994   1.599   3.585   2.708 -0.8481 -0.8608 -0.5750
 5527TIP3   OH237995   6.716   5.350  13.352 -0.5065 -0.8120 -0.6934
 5527TIP3    H137996   6.644   5.311  13.401 -1.2967  0.9390 -0.3864
 5527TIP3    H237997   6.709   5.311  13.265 -2.2098 -0.2458 -0.8467
 5528TIP3   OH237998   6.075   5.464   1.825 -0.6993  0.3516  0.3280
 5528TIP3    H137999   6.034   5.549   1.807 -0.8656  0.3493  0.6882
 5528TIP3    H238000   6.057   5.413   1.746 -1.3495  0.3702  0.4596
 5529TIP3   OH238001   4.343   2.171  13.445  0.8564 -0.3372 -0.1986
 5529TIP3    H138002   4.345   2.183  13.540 -0.1650 -0.2328 -0.1748
 5529TIP3    H238003   4.433   2.154  13.421  1.0228 -1.1149  0.8876
 5530TIP3   OH238004   6.408   2.918  12.558  0.0870  0.5189  0.8193
 5530TIP3    H138005   6.319   2.883  12.549  0.2475 -0.1902  1.7748
 5530TIP3    H238006   6.428   2.909  12.651  0.2793  2.9076  1.0652
 5531TIP3   OH238007   4.140   3.975   0.316  0.1862 -0.3180  0.0110
 5531TIP3    H138008   4.079   4.025   0.370  0.8500 -0.3804  0.8393
 5531TIP3    H238009   4.173   3.907   0.374  1.7913  0.3270 -0.0904
 5532TIP3   OH238010   1.974   6.712  13.033  0.2871 -0.1990 -0.2725
 5532TIP3    H138011   1.927   6.755  12.962 -0.1235  0.5381  0.4199
 5532TIP3    H238012   1.947   6.760  13.112  0.1109 -1.4757  0.4802
 5533TIP3   OH238013   1.636   3.652  17.007 -0.4642  0.4034  0.0526
 5533TIP3    H138014   1.656   3.674  17.098 -2.0821 -1.4272  0.9158
 5533TIP3    H238015   1.689   3.574  16.990  0.4432  1.1931 -0.8809
 5534TIP3   OH238016   5.924   3.100  14.440  0.7412 -0.0084 -0.5151
 5534TIP3    H138017   5.948   3.128  14.528 -0.8168 -0.9060  0.2278
 5534TIP3    H238018   5.869   3.172  14.407 -0.2459 -0.4988  0.0029
 5535TIP3   OH238019   3.715   5.978  12.034  0.1156 -0.0904  0.4868
 5535TIP3    H138020   3.798   6.009  11.999 -0.4758  1.4771  0.3910
 5535TIP3    H238021   3.739   5.934  12.116  0.9732  1.0959  0.9020
 5536TIP3   OH238022   0.253   6.441   6.227  0.2510 -0.5401  0.4046
 5536TIP3    H138023   0.327   6.442   6.288  0.4836 -1.0924  0.1356
 5536TIP3    H238024   0.242   6.349   6.203  0.7720 -0.2361 -1.1252
 5537TIP3   OH238025   2.021   4.972   3.506 -0.1159  0.6708  0.5718
 5537TIP3    H138026   1.935   5.012   3.496 -0.1419  0.6689  0.7822
 5537TIP3    H238027   2.003   4.881   3.531 -0.0758  1.3050  3.2299
 5538TIP3   OH238028   1.563   3.744  13.820 -0.0758  0.2178 -0.3498
 5538TIP3    H138029   1.505   3.684  13.867 -0.9110 -0.0799 -1.7143
 5538TIP3    H238030   1.606   3.689  13.754  0.5537  0.7678 -0.4125
 5539TIP3   OH238031   2.736   3.320  11.652  0.0005  0.2819 -0.1439
 5539TIP3    H138032   2.805   3.349  11.592 -0.5752  1.2884 -0.3334
 5539TIP3    H238033   2.781   3.262  11.714  1.7079  3.2615  1.6166
 5540TIP3   OH238034   4.906   6.687  11.139  0.2837 -0.2365  0.3357
 5540TIP3    H138035   4.848   6.715  11.069  0.1437 -1.1528  0.0753
 5540TIP3    H238036   4.902   6.591  11.138  1.1094 -0.2947  0.8913
 5541TIP3   OH238037   2.030   6.662  13.460 -0.0133  0.2802  0.4301
 5541TIP3    H138038   2.073   6.594  13.512  0.9015  0.5235  0.0160
 5541TIP3    H238039   1.968   6.702  13.520  0.9875  0.5252  1.3340
 5542TIP3   OH238040   3.197   2.623  12.049 -0.6870 -0.0210  0.0278
 5542TIP3    H138041   3.116   2.584  12.082  0.4037 -0.8472  1.8505
 5542TIP3    H238042   3.215   2.696  12.109 -0.2287  0.3613 -0.5602
 5543TIP3   OH238043   3.330   4.849  15.250  0.6884  0.0117  0.4507
 5543TIP3    H138044   3.387   4.813  15.182  0.0650  1.7191 -1.0644
 5543TIP3    H238045   3.283   4.920  15.206 -1.9379 -0.7178  1.9025
 5544TIP3   OH238046   1.665   3.351   4.091  0.0148 -0.1459  0.2415
 5544TIP3    H138047   1.702   3.343   4.179  0.1136 -1.5328  0.1031
 5544TIP3    H238048   1.716   3.290   4.038  0.5903  1.3787 -1.0155
 5545TIP3   OH238049   1.028   5.302  12.256  0.0057  0.5023 -0.1174
 5545TIP3    H138050   1.020   5.336  12.167 -0.6264  0.8375  0.0580
 5545TIP3    H238051   0.958   5.347  12.304 -0.6304 -0.7944  0.2046
 5546TIP3   OH238052   5.496   4.584  16.509  0.4482  0.2632 -0.1041
 5546TIP3    H138053   5.533   4.503  16.545  1.1556  0.4907 -0.3159
 5546TIP3    H238054   5.401   4.571  16.515  0.5505 -0.5930 -0.1572
 5547TIP3   OH238055   6.337   4.087  14.257  0.7033  0.4058 -0.0047
 5547TIP3    H138056   6.292   4.022  14.204 -1.4675  2.1624 -0.4759
 5547TIP3    H238057   6.430   4.070  14.243  0.1954 -1.7730 -1.0595
 5548TIP3   OH238058   6.527   1.310  14.520 -0.2326 -0.3710  0.1999
 5548TIP3    H138059   6.446   1.328  14.568 -0.1221 -1.5715  0.8695
 5548TIP3    H238060   6.582   1.387  14.537 -1.0368  0.2374  0.1326
 5549TIP3   OH238061   2.053   6.407  13.873  0.0285  0.1227 -0.1202
 5549TIP3    H138062   2.072   6.491  13.915  1.4533  0.9577 -2.2487
 5549TIP3    H238063   1.970   6.379  13.910  1.1742  0.7276  3.2090
 5550TIP3   OH238064   6.005   0.435  17.190 -0.3208  0.3846  0.3960
 5550TIP3    H138065   5.997   0.348  17.229  3.2350  0.3708  1.4046
 5550TIP3    H238066   6.025   0.492  17.264  1.4721  1.2835 -0.7274
 5551TIP3   OH238067   4.956   0.063   5.817  0.4818  0.0719 -0.1894
 5551TIP3    H138068   5.030   0.124   5.815 -0.3012  1.0999  0.6428
 5551TIP3    H238069   4.905   0.084   5.739  0.9346 -0.4634 -0.6296
 5552TIP3   OH238070   1.662   0.363   2.469 -0.1264 -0.6820  0.2664
 5552TIP3    H138071   1.755   0.355   2.449 -0.0017  0.5420  0.2946
 5552TIP3    H238072   1.618   0.351   2.384 -0.0035 -1.9251  0.3600
 5553TIP3   OH238073   6.551   4.521   4.860 -0.6157  0.4747  0.5631
 5553TIP3    H138074   6.501   4.589   4.903 -0.9654 -0.1406  1.1527
 5553TIP3    H238075   6.516   4.439   4.896  1.9938  0.0438  2.3675
 5554TIP3   OH238076   2.875   6.250   0.402  0.2505 -0.1367  0.9168
 5554TIP3    H138077   2.956   6.215   0.438  1.3741  0.1848 -1.1311
 5554TIP3    H238078   2.848   6.186   0.336  0.4580  1.1130 -0.4466
 5555TIP3   OH238079   0.782   4.745   4.401  0.3473  0.0364  0.5402
 5555TIP3    H138080   0.718   4.675   4.417  0.5134 -0.0824  0.6892
 5555TIP3    H238081   0.830   4.716   4.323 -2.0741  1.7525 -1.7438
 5556TIP3   OH238082   0.335   1.881   1.998  0.1807 -0.3021 -0.6579
 5556TIP3    H138083   0.252   1.856   1.957  0.9221 -0.8668 -1.8721
 5556TIP3    H238084   0.364   1.957   1.947  0.2901  0.0698 -0.0556
 5557TIP3   OH238085   6.642   5.230   4.993 -0.1153  0.5923  0.4966
 5557TIP3    H138086   6.573   5.176   5.032 -0.4229  0.7850  0.2247
 5557TIP3    H238087   6.641   5.310   5.045  2.9229 -1.0208  3.4874
 5558TIP3   OH238088   4.773   5.616   4.077  0.1071 -0.4221  0.0764
 5558TIP3    H138089   4.749   5.542   4.021  1.6748 -1.3357  0.5419
 5558TIP3    H238090   4.707   5.683   4.058 -0.6295 -1.4739 -1.2724
 5559TIP3   OH238091   4.854   0.600  14.898  0.8216  0.1981  0.1062
 5559TIP3    H138092   4.851   0.645  14.813  1.8658  1.9028  0.9028
 5559TIP3    H238093   4.763   0.583  14.920  0.2831  2.5914  0.0190
 5560TIP3   OH238094   2.434   1.257  11.863 -0.1167  0.1088  0.0926
 5560TIP3    H138095   2.484   1.337  11.848  0.9532 -0.7075 -0.8523
 5560TIP3    H238096   2.423   1.219  11.776 -2.2472  0.1557  0.2971
 5561TIP3   OH238097   4.702   1.154  16.699  0.6074 -0.9031 -0.2176
 5561TIP3    H138098   4.770   1.180  16.637  2.7760 -0.9391  1.9640
 5561TIP3    H238099   4.721   1.062  16.718 -1.1799 -1.4442 -0.8374
 5562TIP3   OH238100   6.034   5.602  11.521 -0.3610 -0.5302 -0.2796
 5562TIP3    H138101   6.029   5.512  11.555 -1.1228 -0.5681 -0.4813
 5562TIP3    H238102   6.079   5.650  11.590 -1.6308 -0.6750  0.6882
 5563TIP3   OH238103   2.068   1.876   0.573 -0.4143 -0.0727 -0.8343
 5563TIP3    H138104   2.017   1.880   0.654 -0.6876  0.3209 -1.0207
 5563TIP3    H238105   2.132   1.806   0.588 -0.3098  0.1533 -0.1921
 5564TIP3   OH238106   0.540   0.279   5.724  0.2474  0.4581  0.1748
 5564TIP3    H138107   0.585   0.278   5.639 -0.0578  0.7122  0.0064
 5564TIP3    H238108   0.595   0.334   5.780  0.8639 -0.3473  0.3791
 5565TIP3   OH238109   0.454   0.139  12.375  0.3313 -0.0509  0.2793
 5565TIP3    H138110   0.500   0.083  12.438  0.3972  1.1689  1.3543
 5565TIP3    H238111   0.509   0.136  12.297  2.2738  1.2858  1.4932
 5566TIP3   OH238112   6.211   5.203  12.328  0.1724  0.1832  0.0554
 5566TIP3    H138113   6.299   5.165  12.322  0.2263  0.4603 -1.2422
 5566TIP3    H238114   6.161   5.159  12.258 -1.5444 -1.9770  2.4541
 5567TIP3   OH238115   1.429   0.362   4.338  0.7072  0.8050  0.0892
 5567TIP3    H138116   1.370   0.320   4.275  0.7144  2.3061 -0.9917
 5567TIP3    H238117   1.408   0.321   4.422 -2.0224  1.3999 -0.2107
 5568TIP3   OH238118   3.430   2.559  12.323  0.1195 -0.5544  0.2000
 5568TIP3    H138119   3.414   2.642  12.368  0.8427 -0.5105  0.3778
 5568TIP3    H238120   3.373   2.563  12.246 -1.4976 -0.8267  1.3075
 5569TIP3   OH238121   2.950   5.740   5.095  0.2834  0.1519  0.1995
 5569TIP3    H138122   2.910   5.823   5.068 -0.2689  0.9227  3.0504
 5569TIP3    H238123   2.881   5.675   5.084 -0.5087  0.7685  1.3358
 5570TIP3   OH238124   1.709   5.019   5.402  0.3659 -0.3714  0.1875
 5570TIP3    H138125   1.634   4.960   5.391  0.2452  0.0817 -1.7893
 5570TIP3    H238126   1.779   4.962   5.435 -0.2351 -1.2772 -0.0477
 5571TIP3   OH238127   5.139   2.749   6.489  0.2856 -0.6045 -0.2158
 5571TIP3    H138128   5.121   2.656   6.485 -1.9720 -0.2892  1.2329
 5571TIP3    H238129   5.194   2.759   6.567  1.0484 -0.7647 -0.7204
 5572TIP3   OH238130   5.019   3.474   5.308 -0.3504  0.0908  0.5280
 5572TIP3    H138131   5.113   3.488   5.293 -0.1795 -0.9383  0.6092
 5572TIP3    H238132   5.012   3.453   5.401 -0.5992 -0.3914  0.3986
 5573TIP3   OH238133   4.428   3.449   4.877  0.2042 -0.2423 -0.1486
 5573TIP3    H138134   4.377   3.386   4.929 -0.3487  1.1156  1.0102
 5573TIP3    H238135   4.386   3.449   4.791  1.4425 -2.9069 -0.8573
 5574TIP3   OH238136   4.046   0.018   4.813  0.0149 -0.0471  0.0495
 5574TIP3    H138137   4.095   0.043   4.892 -0.8354 -0.5625  0.7566
 5574TIP3    H238138   4.002  -0.063   4.837  1.6379 -1.5751 -1.7359
 5575TIP3   OH238139   5.727   1.091  12.364  0.1509 -0.5170  0.3394
 5575TIP3    H138140   5.632   1.092  12.377  0.1478  1.7150  0.5112
 5575TIP3    H238141   5.742   1.156  12.295  1.5555 -0.9894  0.1725
 5576TIP3   OH238142   6.555   5.075  13.793  0.9678 -0.0694 -0.4422
 5576TIP3    H138143   6.469   5.036  13.804 -0.3084  2.2387 -1.5369
 5576TIP3    H238144   6.578   5.059  13.702  0.9802  0.6722 -0.5737
 5577TIP3   OH238145   5.910   1.683  14.767 -0.1918 -0.0351  0.3859
 5577TIP3    H138146   5.981   1.619  14.776 -1.7242 -1.4543  3.9609
 5577TIP3    H238147   5.953   1.768  14.777  1.1477 -0.8093  1.5642
 5578TIP3   OH238148   4.695   6.741  12.700  0.6997 -0.2046  0.4224
 5578TIP3    H138149   4.650   6.799  12.761 -0.0667 -1.1812  0.8129
 5578TIP3    H238150   4.689   6.786  12.616 -0.5820 -0.0619  0.5630
 5579TIP3   OH238151   0.412   5.032  12.190  0.6212  0.0167  0.0237
 5579TIP3    H138152   0.426   4.980  12.110 -0.1884  0.2711 -0.2897
 5579TIP3    H238153   0.482   5.003  12.249  0.4474 -1.1259 -0.2982
 5580TIP3   OH238154   2.862   6.347  17.237 -0.5227  0.3889 -0.0573
 5580TIP3    H138155   2.772   6.354  17.267 -1.1888 -0.3665 -1.7221
 5580TIP3    H238156   2.887   6.437  17.216 -0.3518  0.8006  1.7411
 5581TIP3   OH238157   4.542   0.726   1.435 -0.4214  0.0284 -0.6197
 5581TIP3    H138158   4.610   0.748   1.498 -2.9574 -1.0884  2.7829
 5581TIP3    H238159   4.560   0.635   1.411 -0.3970 -0.0994 -0.1293
 5582TIP3   OH238160   3.229   2.982   2.598 -1.2488 -0.3810 -0.5787
 5582TIP3    H138161   3.294   2.917   2.572 -1.4273 -1.1454  0.8125
 5582TIP3    H238162   3.160   2.932   2.640 -2.4010  0.5110 -1.3332
 5583TIP3   OH238163   3.513   3.213   0.988  0.9740 -0.2178  0.2295
 5583TIP3    H138164   3.446   3.144   0.988  0.4311  0.2584 -1.3177
 5583TIP3    H238165   3.554   3.207   1.074 -1.3478 -0.2547  1.4025
 5584TIP3   OH238166   1.244   4.952   4.012  0.1774 -0.4067  0.3996
 5584TIP3    H138167   1.227   5.018   3.945 -1.0922  0.5701  1.6131
 5584TIP3    H238168   1.312   4.896   3.974 -0.7730 -0.1406 -1.8329
 5585TIP3   OH238169   1.599   6.723  11.585  0.6098 -0.0091 -0.4115
 5585TIP3    H138170   1.504   6.739  11.588  0.2814 -1.7811  0.1274
 5585TIP3    H238171   1.634   6.774  11.658 -0.5217 -2.3760  1.9683
 5586TIP3   OH238172   3.881   4.781   1.172  0.2699 -0.1312 -0.3937
 5586TIP3    H138173   3.898   4.762   1.264 -1.2556 -1.7170 -0.3756
 5586TIP3    H238174   3.819   4.853   1.173 -0.6570 -0.9163 -0.1126
 5587TIP3   OH238175   0.991   6.279   0.656  0.3535 -0.4305  1.0346
 5587TIP3    H138176   0.931   6.343   0.692  1.7558  1.6515 -0.0990
 5587TIP3    H238177   1.070   6.287   0.709  0.2016 -2.0455  1.5618
 5588TIP3   OH238178   1.183   4.524   6.181  0.3349  0.0000  0.3204
 5588TIP3    H138179   1.156   4.507   6.091 -0.9855  2.2672  0.2085
 5588TIP3    H238180   1.272   4.560   6.173  0.3348 -0.0785 -0.0402
 5589TIP3   OH238181   6.031   1.787   6.488 -0.2835  0.2514  0.2939
 5589TIP3    H138182   6.054   1.740   6.408  0.6271 -0.6576  1.0672
 5589TIP3    H238183   5.979   1.862   6.458 -0.7405 -0.5845 -1.0585
 5590TIP3   OH238184   3.543   3.272  11.376  0.0633 -0.1119  0.0909
 5590TIP3    H138185   3.588   3.269  11.291  1.5309 -1.2811  0.8621
 5590TIP3    H238186   3.597   3.331  11.429  1.2042 -2.0851  1.2511
 5591TIP3   OH238187   4.075   3.821   3.357 -0.2487 -0.2883  0.2172
 5591TIP3    H138188   4.136   3.894   3.346  1.0073 -1.0666  1.6476
 5591TIP3    H238189   4.031   3.813   3.273  0.1643  1.5966 -0.2150
 5592TIP3   OH238190   0.332   2.869  14.920  0.3660 -0.5341 -0.4854
 5592TIP3    H138191   0.319   2.855  15.014  1.4449  0.7086 -0.1330
 5592TIP3    H238192   0.244   2.883  14.886  0.0323 -0.2437  0.4625
 5593TIP3   OH238193   6.670   6.021   0.526 -0.3043  0.1408  0.9221
 5593TIP3    H138194   6.620   5.967   0.465  1.9817 -0.7588 -0.3036
 5593TIP3    H238195   6.722   6.079   0.470  1.3646 -0.2426  1.9867
 5594TIP3   OH238196   3.295   3.478  15.722 -0.0888 -0.3334  0.8385
 5594TIP3    H138197   3.390   3.464  15.727  0.3972  2.5120  1.3023
 5594TIP3    H238198   3.280   3.505  15.632 -0.2502  0.2973  1.0471
 5595TIP3   OH238199   0.232   6.651  16.944  0.3304  0.2378  0.5724
 5595TIP3    H138200   0.225   6.733  16.896 -2.6547 -1.1762 -1.6933
 5595TIP3    H238201   0.162   6.656  17.009  0.1138 -0.5231  0.4005
 5596TIP3   OH238202   2.669   3.052   0.805 -0.1285  0.1741 -0.1345
 5596TIP3    H138203   2.634   3.004   0.880 -1.6842  4.1928  2.0392
 5596TIP3    H238204   2.764   3.054   0.819 -0.4226  1.2220  2.1398
 5597TIP3   OH238205   3.367   0.810   3.511 -0.1609  0.0179 -0.0922
 5597TIP3    H138206   3.391   0.812   3.604 -0.0409  1.1469 -0.1351
 5597TIP3    H238207   3.272   0.818   3.511 -0.3866 -1.9765 -0.0210
 5598TIP3   OH238208   5.311   5.765   3.321  0.4168 -0.1693 -0.3623
 5598TIP3    H138209   5.261   5.807   3.392 -0.4790 -0.0023 -1.0754
 5598TIP3    H238210   5.295   5.671   3.332  2.5834 -0.4335  1.3574
 5599TIP3   OH238211   0.714   5.954  13.690 -0.1398  0.0058  0.3752
 5599TIP3    H138212   0.637   6.006  13.709 -1.4584 -2.0741  1.0495
 5599TIP3    H238213   0.684   5.888  13.627  1.1544 -0.6233  0.3702
 5600TIP3   OH238214   5.336   5.187   0.638  0.3419 -0.2280  0.8890
 5600TIP3    H138215   5.248   5.149   0.641 -0.0519  0.3247 -1.6953
 5600TIP3    H238216   5.326   5.272   0.681 -1.2554  1.2055 -1.9934
 5601TIP3   OH238217   1.210   1.146  15.288  0.5784 -0.3382 -0.1481
 5601TIP3    H138218   1.182   1.064  15.248 -1.9460  0.2255  0.2757
 5601TIP3    H238219   1.146   1.161  15.358  0.9341  2.0246 -0.2586
 5602TIP3   OH238220   0.468   0.919  11.786  0.7353 -0.0394 -0.0992
 5602TIP3    H138221   0.374   0.912  11.797  0.9406  0.2235  2.4973
 5602TIP3    H238222   0.499   0.955  11.869  3.0543  0.5529 -1.1447
 5603TIP3   OH238223   5.030   4.786  11.053 -0.4945 -0.0264 -0.2069
 5603TIP3    H138224   5.032   4.840  11.132  0.4972 -0.4220  0.0561
 5603TIP3    H238225   4.946   4.807  11.012 -0.2663  1.5042  0.0253
 5604TIP3   OH238226   6.409   4.785   3.205 -0.4040  0.3696  0.1484
 5604TIP3    H138227   6.347   4.750   3.141  0.2010 -1.3923  0.4661
 5604TIP3    H238228   6.495   4.776   3.163 -0.2091  1.4809  0.2657
 5605TIP3   OH238229   4.190   0.856  15.770  0.4631  0.5655  0.2943
 5605TIP3    H138230   4.285   0.850  15.760  0.2890  1.0965 -2.4608
 5605TIP3    H238231   4.155   0.792  15.709 -1.0375 -0.9382  2.5591
 5606TIP3   OH238232   2.598   5.664  16.041  0.0236  0.3131 -0.4137
 5606TIP3    H138233   2.620   5.573  16.020  2.1526  0.3076  1.3852
 5606TIP3    H238234   2.558   5.698  15.962 -0.8675 -2.1737 -1.1442
 5607TIP3   OH238235   3.204   6.029   0.258  0.2719  0.1266  0.3515
 5607TIP3    H138236   3.245   6.035   0.172 -0.8507  1.7554 -0.1305
 5607TIP3    H238237   3.208   5.936   0.281  0.7190 -0.3217 -1.3909
 5608TIP3   OH238238   0.704   6.124  16.746 -0.2225  0.2922  0.2360
 5608TIP3    H138239   0.670   6.209  16.774 -1.8189 -0.9555  2.3173
 5608TIP3    H238240   0.642   6.060  16.780  1.4730 -1.8055 -0.3898
 5609TIP3   OH238241   3.652   3.262  11.119  0.0831  0.3960 -0.2064
 5609TIP3    H138242   3.586   3.295  11.059 -0.0718  1.4192  0.4974
 5609TIP3    H238243   3.730   3.315  11.101  0.3079  0.0972 -0.1211
 5610TIP3   OH238244   1.866   5.176   0.459  0.0469  0.4932 -0.1644
 5610TIP3    H138245   1.785   5.214   0.493 -0.4373 -0.4361 -0.2546
 5610TIP3    H238246   1.935   5.221   0.506 -0.5476  0.7788  0.4490
 5611TIP3   OH238247   4.827   3.221  12.882 -0.6372 -0.2678 -0.3806
 5611TIP3    H138248   4.909   3.189  12.919 -1.2597 -0.6132  0.7257
 5611TIP3    H238249   4.854   3.277  12.809  0.6404  0.6878  0.7827
 5612TIP3   OH238250   2.710   0.263   3.258 -0.1801 -0.3602  0.0172
 5612TIP3    H138251   2.645   0.217   3.206  0.4316 -0.6779 -0.4811
 5612TIP3    H238252   2.713   0.215   3.341  0.7766 -1.5182 -0.6639
 5613TIP3   OH238253   2.876   4.804  14.255 -0.0924 -0.0810  0.1698
 5613TIP3    H138254   2.871   4.887  14.209 -0.3386 -0.6303 -0.8177
 5613TIP3    H238255   2.969   4.783  14.257 -0.1439 -0.4604 -0.8457
 5614TIP3   OH238256   5.980   4.990   4.235  0.1973 -0.1684  0.1303
 5614TIP3    H138257   6.006   5.075   4.199  2.1852 -1.2621 -1.2883
 5614TIP3    H238258   6.063   4.944   4.248 -0.8474 -3.0618 -2.2785
 5615TIP3   OH238259   2.033   1.002   5.290 -0.0843 -0.0649  0.0999
 5615TIP3    H138260   2.024   1.058   5.368  1.3785  0.9900 -0.4430
 5615TIP3    H238261   2.029   1.064   5.217  1.9032 -0.6033 -0.5057
 5616TIP3   OH238262   5.781   2.733  11.501  0.3931 -0.5045 -0.4320
 5616TIP3    H138263   5.862   2.761  11.543  0.4612 -0.7033 -0.4314
 5616TIP3    H238264   5.799   2.742  11.407 -0.0950  0.9030 -0.4179
 5617TIP3   OH238265   2.283   5.032   3.503 -0.1473 -0.2311  0.1837
 5617TIP3    H138266   2.287   5.071   3.590 -1.1493  3.9694 -1.4151
 5617TIP3    H238267   2.189   5.032   3.481  0.1296 -0.6968 -1.0986
 5618TIP3   OH238268   1.494   4.035   0.142  0.4440  0.2112  0.0771
 5618TIP3    H138269   1.459   4.104   0.198 -1.4851 -0.8276  0.2336
 5618TIP3    H238270   1.563   3.994   0.195 -1.3751 -0.7973  1.8315
 5619TIP3   OH238271   1.459   0.331  11.009  0.1921  0.1784  0.3200
 5619TIP3    H138272   1.496   0.391  11.074  1.7410 -2.2350  1.8375
 5619TIP3    H238273   1.529   0.267  10.994 -1.6949 -1.8255 -0.4122
 5620TIP3   OH238274   2.590   6.503   4.694  0.3301 -0.2429 -0.1953
 5620TIP3    H138275   2.649   6.443   4.649  0.9888  0.4482 -0.2758
 5620TIP3    H238276   2.633   6.588   4.687 -1.1222  0.4520 -1.0537
 5621TIP3   OH238277   2.781   4.250  17.074 -0.2035  0.1498 -0.6878
 5621TIP3    H138278   2.834   4.170  17.067  2.4492  1.8585 -1.8520
 5621TIP3    H238279   2.721   4.233  17.147  1.6736 -2.1380  0.4701
 5622TIP3   OH238280   1.571   3.972   6.235  0.2646  0.1329  0.0871
 5622TIP3    H138281   1.638   4.034   6.208  0.0335  0.7531  0.9005
 5622TIP3    H238282   1.610   3.925   6.309  0.1158 -0.0970  0.0230
 5623TIP3   OH238283   3.109   6.315   5.923 -0.0897  0.7665  0.3357
 5623TIP3    H138284   3.033   6.356   5.965 -0.5839 -0.3728  0.5839
 5623TIP3    H238285   3.161   6.281   5.995 -1.7712 -2.6901  0.1379
 5624TIP3   OH238286   0.006   6.503   4.978  0.2418  0.1369 -0.1205
 5624TIP3    H138287  -0.070   6.540   4.932  1.3800  0.9059 -1.4681
 5624TIP3    H238288   0.081   6.525   4.922  1.3294 -1.6522  0.5441
 5625TIP3   OH238289   5.361   5.680   5.391  0.4304 -0.5528 -0.4342
 5625TIP3    H138290   5.425   5.694   5.322  1.4751  1.3763  0.8150
 5625TIP3    H238291   5.295   5.623   5.353  1.7515 -0.7637 -2.4965
 5626TIP3   OH238292   4.637   2.902  12.076 -0.5274 -0.8657  0.9561
 5626TIP3    H138293   4.699   2.968  12.107 -0.7941 -1.5988  3.2162
 5626TIP3    H238294   4.692   2.825  12.058 -0.2579 -0.2310 -1.4004
 5627TIP3   OH238295   6.076   5.473   0.940  0.2484  0.5376  0.2222
 5627TIP3    H138296   6.051   5.524   0.863  0.0852 -0.2338 -0.2336
 5627TIP3    H238297   6.126   5.535   0.994  0.5284  1.0283 -0.5838
 5628TIP3   OH238298   5.940   5.672  13.608  0.4616 -0.3393  0.1105
 5628TIP3    H138299   5.991   5.614  13.552  0.2743 -0.3860 -0.0135
 5628TIP3    H238300   6.004   5.708  13.669  0.6241 -0.4779  0.0252
 5629TIP3   OH238301   1.629   0.354  13.921 -0.1827 -0.5488  0.2800
 5629TIP3    H138302   1.625   0.396  14.007  2.6361 -0.9970  0.6979
 5629TIP3    H238303   1.650   0.263  13.939  0.1738 -0.7170 -0.8851
 5630TIP3   OH238304   0.006   6.085  13.562 -0.9796  0.4585 -0.4873
 5630TIP3    H138305  -0.028   6.001  13.592  1.0686  0.1554  1.2437
 5630TIP3    H238306  -0.053   6.112  13.492 -0.4878 -3.4350 -2.6358
 5631TIP3   OH238307   3.531   0.298   0.201  0.2101 -0.1205  0.4359
 5631TIP3    H138308   3.589   0.373   0.210 -0.8489  0.6791  0.8476
 5631TIP3    H238309   3.526   0.261   0.290  0.4808 -0.4949  0.2985
 5632TIP3   OH238310   0.506   5.296   3.264  0.5388 -0.1781  0.5835
 5632TIP3    H138311   0.584   5.313   3.212  0.1886 -0.8703 -0.1828
 5632TIP3    H238312   0.435   5.337   3.215  0.1790 -1.0027  0.3985
 5633TIP3   OH238313   4.856   1.504  14.527 -0.0973  0.2224  0.1696
 5633TIP3    H138314   4.883   1.547  14.608  0.2206  1.3311 -0.5152
 5633TIP3    H238315   4.764   1.529  14.516  0.2370  1.1960 -0.5085
 5634TIP3   OH238316   4.213   1.487   4.971 -0.2505 -0.5072  0.2858
 5634TIP3    H138317   4.193   1.475   5.064 -1.9189 -0.6326 -0.0509
 5634TIP3    H238318   4.230   1.580   4.962 -0.1742 -0.4778  0.7043
 5635TIP3   OH238319   1.452   4.295   6.167  0.1153 -0.4604  0.2733
 5635TIP3    H138320   1.494   4.381   6.171  0.3193 -0.5944  1.0713
 5635TIP3    H238321   1.525   4.233   6.164 -0.0308 -0.6300  0.2068
 5636TIP3   OH238322   1.160   4.503   0.061 -0.1803 -0.1109  0.5933
 5636TIP3    H138323   1.164   4.557   0.140  0.2866 -0.0766  0.5494
 5636TIP3    H238324   1.164   4.565  -0.012 -0.6921 -0.1375  0.5427
 5637TIP3   OH238325   1.023   3.036  13.736  0.1758  0.3367  0.4030
 5637TIP3    H138326   0.956   3.104  13.733  1.3484  1.5700  0.9004
 5637TIP3    H238327   1.095   3.071  13.684  0.3634 -1.0752 -0.3348
 5638TIP3   OH238328   1.407   0.973  15.510  0.1683  0.1003  0.2336
 5638TIP3    H138329   1.377   0.970  15.419 -0.9766  0.5704  0.5893
 5638TIP3    H238330   1.457   1.055  15.515  0.1781  0.1077  0.0497
 5639TIP3   OH238331   3.685   6.479  13.660  0.6647  0.5056  0.1245
 5639TIP3    H138332   3.625   6.538  13.614 -0.8847 -1.1710 -0.1106
 5639TIP3    H238333   3.667   6.393  13.623  1.4006 -0.4604  1.9018
 5640TIP3   OH238334   0.539   4.466  14.332 -1.2071  0.5876 -0.4161
 5640TIP3    H138335   0.468   4.529  14.350 -0.9567  1.0481 -1.0197
 5640TIP3    H238336   0.520   4.392  14.389 -1.2633  1.3986  0.6542
 5641TIP3   OH238337   0.627   4.986   2.092  0.0195  0.2509  0.2230
 5641TIP3    H138338   0.707   4.934   2.086  0.9007  1.1998  2.6333
 5641TIP3    H238339   0.646   5.066   2.043  0.5681  0.5124  0.8699
 5642TIP3   OH238340   2.078   5.812   5.469  0.3423  0.2097 -0.3120
 5642TIP3    H138341   2.035   5.887   5.427  1.3043 -0.3734 -2.4536
 5642TIP3    H238342   2.065   5.739   5.408 -0.2220 -1.3214  1.5309
 5643TIP3   OH238343   1.631   5.083  10.725  0.2109  0.6976  0.0663
 5643TIP3    H138344   1.552   5.087  10.671  0.4417  0.3409 -0.3080
 5643TIP3    H238345   1.599   5.065  10.813 -0.0135 -2.6681 -0.5741
 5644TIP3   OH238346   6.452   2.790   3.289  0.0606 -0.2918 -1.0777
 5644TIP3    H138347   6.450   2.875   3.246  0.3013  1.2469  1.7556
 5644TIP3    H238348   6.367   2.782   3.331  0.4181 -0.9952 -0.4586
 5645TIP3   OH238349   2.564   4.273   3.742 -0.0924 -0.4369  0.0196
 5645TIP3    H138350   2.565   4.339   3.673 -1.9541 -0.0719  0.2985
 5645TIP3    H238351   2.646   4.287   3.789  0.8693 -0.2064 -1.6227
 5646TIP3   OH238352   1.538   3.265   4.517  0.2436 -0.3485  0.2940
 5646TIP3    H138353   1.560   3.216   4.596 -0.3861 -0.1877  0.5813
 5646TIP3    H238354   1.580   3.350   4.530 -0.9369  0.1487  1.0881
 5647TIP3   OH238355   5.716   2.483   3.022  0.2627  0.1581 -0.3963
 5647TIP3    H138356   5.698   2.393   3.050  1.4579  0.6535  2.3160
 5647TIP3    H238357   5.638   2.532   3.048 -0.0319  0.0880 -1.1068
 5648TIP3   OH238358   1.145   2.060   4.352 -0.4208 -0.3209 -0.0127
 5648TIP3    H138359   1.101   2.055   4.437  0.7822 -0.0154  0.6551
 5648TIP3    H238360   1.234   2.029   4.370  0.2339  0.9813 -0.8677
 5649TIP3   OH238361   1.143   5.217  10.919  0.4589  0.1164  0.7459
 5649TIP3    H138362   1.191   5.136  10.933  0.7169 -0.0402 -0.7942
 5649TIP3    H238363   1.211   5.283  10.905  0.2713  0.1150 -0.3139
 5650TIP3   OH238364   5.183   1.540  11.146 -0.4750  0.8657 -0.1391
 5650TIP3    H138365   5.191   1.537  11.050  1.5369 -0.0082 -0.0050
 5650TIP3    H238366   5.194   1.632  11.168 -2.8999  1.3740 -0.8317
 5651TIP3   OH238367   2.084   3.888   3.168  0.0217  0.0337  0.6227
 5651TIP3    H138368   2.171   3.893   3.206 -0.2181 -1.0246  1.3528
 5651TIP3    H238369   2.042   3.815   3.213 -2.0759  1.9423  1.9623
 5652TIP3   OH238370   3.628   6.217  11.825  0.0631 -0.0243  0.1163
 5652TIP3    H138371   3.651   6.161  11.900 -0.5419 -0.3599  0.0513
 5652TIP3    H238372   3.562   6.167  11.777 -0.7729  0.9140  0.2713
 5653TIP3   OH238373   4.030   3.233  16.899 -0.1537  0.2337  0.4500
 5653TIP3    H138374   3.944   3.221  16.859  0.0899 -2.3308  0.5560
 5653TIP3    H238375   4.086   3.167  16.857  1.2135  0.3956  1.8994
 5654TIP3   OH238376   0.289   4.497   2.327  0.7118 -0.1771  0.0364
 5654TIP3    H138377   0.221   4.516   2.263 -0.6017 -1.4007  0.9925
 5654TIP3    H238378   0.314   4.406   2.310  0.5692 -0.4145  1.0353
 5655TIP3   OH238379   0.421   5.603  16.866 -0.6228  0.3496  0.0288
 5655TIP3    H138380   0.387   5.576  16.780 -1.9745 -0.3764  0.7449
 5655TIP3    H238381   0.431   5.520  16.914 -0.0012  0.7559  0.6096
 5656TIP3   OH238382   0.347   0.216   2.883 -0.3018  0.6732 -0.2499
 5656TIP3    H138383   0.315   0.160   2.954  0.1334 -0.1910 -0.7159
 5656TIP3    H238384   0.274   0.219   2.821 -0.0471 -0.0351 -0.5929
 5657TIP3   OH238385   2.566   1.585  12.100  0.1137 -0.1320 -0.6578
 5657TIP3    H138386   2.637   1.645  12.125 -0.0013  0.1345 -0.9677
 5657TIP3    H238387   2.582   1.507  12.153  1.7048 -0.7921 -2.0105
 5658TIP3   OH238388   1.928   2.948  14.748  0.1059 -0.0599  0.4378
 5658TIP3    H138389   1.841   2.947  14.708 -0.0082 -1.4906  0.6635
 5658TIP3    H238390   1.912   2.969  14.840  0.1625  1.1526  0.1848
 5659TIP3   OH238391   2.512   4.693   1.181 -0.4028  0.0746  0.2963
 5659TIP3    H138392   2.517   4.788   1.194  0.5679  0.1356 -0.3917
 5659TIP3    H238393   2.571   4.656   1.246 -1.4628 -0.1440  1.1743
 5660TIP3   OH238394   3.951   2.568   3.779 -0.6475  0.1027  0.0546
 5660TIP3    H138395   4.026   2.512   3.798 -0.7641  0.5180  2.0746
 5660TIP3    H238396   3.941   2.565   3.684  2.4759  0.7548 -0.3891
 5661TIP3   OH238397   1.262   2.587  13.784 -0.3881  0.0177  0.0275
 5661TIP3    H138398   1.228   2.598  13.695 -1.1844 -0.7770  0.2228
 5661TIP3    H238399   1.196   2.629  13.840 -0.6324 -0.7759  0.3449
 5662TIP3   OH238400   0.379   2.311  17.077 -0.3045  0.3765 -0.6830
 5662TIP3    H138401   0.474   2.305  17.066  0.0377  0.1943  1.8075
 5662TIP3    H238402   0.344   2.311  16.987  2.1044  2.2343 -1.7164
 5663TIP3   OH238403   1.647   2.320  16.769 -0.4332  0.9772 -0.7507
 5663TIP3    H138404   1.679   2.248  16.823 -0.5044  0.3748 -1.5026
 5663TIP3    H238405   1.678   2.399  16.813  1.9475  0.4374 -1.3150
 5664TIP3   OH238406   0.565   3.797  15.048 -0.2921  0.4030 -0.2736
 5664TIP3    H138407   0.555   3.850  14.969 -0.2274  1.2510  0.2612
 5664TIP3    H238408   0.512   3.719  15.032 -1.6008  1.3024 -0.5183
 5665TIP3   OH238409   1.363   4.374  13.074 -0.7096 -0.2693 -0.0706
 5665TIP3    H138410   1.401   4.287  13.086  2.1141  0.5997 -1.6596
 5665TIP3    H238411   1.321   4.370  12.988 -0.4812 -0.0443 -0.1942
 5666TIP3   OH238412   4.478   3.665   6.521  0.5085 -0.0463  0.0548
 5666TIP3    H138413   4.562   3.703   6.547  1.1484 -0.0233 -1.9114
 5666TIP3    H238414   4.451   3.613   6.597  2.2988 -0.0472  0.7339
 5667TIP3   OH238415   4.173   1.717  13.552 -0.0102  0.1179  0.1936
 5667TIP3    H138416   4.225   1.748  13.478  0.0387 -0.6024 -0.0800
 5667TIP3    H238417   4.115   1.650  13.515 -1.1346  0.8991  0.4904
 5668TIP3   OH238418   4.840   1.799   1.452 -0.6685  0.0956  0.7405
 5668TIP3    H138419   4.769   1.763   1.398 -0.2382 -0.4851  0.5494
 5668TIP3    H238420   4.900   1.725   1.465 -0.4545  0.3936  1.4968
 5669TIP3   OH238421   1.612   2.350  14.812 -0.2088 -1.0219 -0.1400
 5669TIP3    H138422   1.677   2.338  14.743 -0.6121 -0.6016 -0.6061
 5669TIP3    H238423   1.628   2.438  14.845  0.7612 -1.6470  1.1537
 5670TIP3   OH238424   0.600   4.135   2.509 -0.2434  0.2850  0.9023
 5670TIP3    H138425   0.689   4.148   2.474  0.0460 -0.4236  1.3595
 5670TIP3    H238426   0.613   4.124   2.603 -0.5515 -2.0914  0.7212
 5671TIP3   OH238427   6.758   4.042  14.456  0.2397 -0.1548  0.0285
 5671TIP3    H138428   6.832   4.089  14.493 -0.3731  1.5323 -0.7755
 5671TIP3    H238429   6.683   4.100  14.469 -1.1537 -2.1453  1.5389
 5672TIP3   OH238430   2.228   6.079   1.753  0.3442  0.3886  0.2914
 5672TIP3    H138431   2.289   6.009   1.729  1.4633  1.4911 -0.2040
 5672TIP3    H238432   2.282   6.158   1.756 -0.7584  1.1458  1.4672
 5673TIP3   OH238433   0.891   1.989  14.757 -0.1889  0.4840 -0.1942
 5673TIP3    H138434   0.929   1.908  14.724 -1.2535  0.0091 -0.2828
 5673TIP3    H238435   0.911   2.054  14.690 -1.3796 -0.2271 -1.2815
 5674TIP3   OH238436   0.321   1.987   3.824  0.1620  0.7883  0.0376
 5674TIP3    H138437   0.238   2.004   3.868 -0.0022 -1.0839  0.5298
 5674TIP3    H238438   0.365   1.923   3.880  0.8953 -0.0165 -1.4177
 5675TIP3   OH238439   6.514   5.485  12.983  0.3261  0.2268  0.1204
 5675TIP3    H138440   6.583   5.544  12.952 -0.7031  0.4266 -1.9266
 5675TIP3    H238441   6.557   5.433  13.052  2.8575 -0.3361 -1.7190
 5676TIP3   OH238442   4.039   6.731   4.506 -0.3342  0.3181 -0.1444
 5676TIP3    H138443   3.999   6.761   4.587  0.2657 -1.7807  1.0163
 5676TIP3    H238444   4.126   6.771   4.505 -0.4242  0.5176  0.1466
 5677TIP3   OH238445   3.746   5.451  13.108 -0.0720  0.1973 -0.1520
 5677TIP3    H138446   3.682   5.398  13.154 -1.4711  1.2177 -0.8462
 5677TIP3    H238447   3.696   5.526  13.075  2.0570  2.7825  2.0184
 5678TIP3   OH238448   6.539   2.191   6.502  0.5232 -0.4969  0.3299
 5678TIP3    H138449   6.474   2.164   6.567 -1.0936 -0.1024 -1.0447
 5678TIP3    H238450   6.495   2.176   6.417  1.6696  1.1495 -0.6096
 5679TIP3   OH238451   5.707   3.366  16.440 -0.1952 -0.3936 -0.0569
 5679TIP3    H138452   5.729   3.301  16.373  0.7443 -0.4387  0.2819
 5679TIP3    H238453   5.791   3.406  16.463 -0.5719 -0.0510  0.7587
 5680TIP3   OH238454   4.135   3.300   3.391  0.4744  0.2686 -0.3092
 5680TIP3    H138455   4.221   3.308   3.433  0.4683 -0.5845 -0.1245
 5680TIP3    H238456   4.098   3.388   3.395 -0.0296  0.0017  2.5569
 5681TIP3   OH238457   6.246   3.191   0.850 -0.1649  0.0003  0.2037
 5681TIP3    H138458   6.204   3.161   0.769  0.2356 -0.4442  0.1568
 5681TIP3    H238459   6.240   3.286   0.845 -0.8848 -0.0407  0.0511
 5682TIP3   OH238460   0.991   0.320  14.070  0.1576  0.1446  0.4460
 5682TIP3    H138461   1.053   0.249  14.084  0.9542  0.8643  0.6712
 5682TIP3    H238462   1.045   0.399  14.069 -0.6984  0.7413  0.1223
 5683TIP3   OH238463   5.162   1.448   5.422 -0.2840 -0.0233 -0.5821
 5683TIP3    H138464   5.127   1.450   5.510 -1.7061 -1.1489 -1.0847
 5683TIP3    H238465   5.232   1.383   5.425  0.7712  1.0829  0.0435
 5684TIP3   OH238466   3.220   0.013   5.362  0.8309  0.1758 -0.0319
 5684TIP3    H138467   3.206   0.089   5.418 -0.3802  0.3270 -0.5080
 5684TIP3    H238468   3.204  -0.062   5.420 -1.4379  0.3345 -0.3484
 5685TIP3   OH238469   2.057   0.953   3.996 -0.6754  0.2175 -0.1501
 5685TIP3    H138470   2.146   0.955   3.961 -1.2943 -0.9457 -1.9538
 5685TIP3    H238471   2.031   1.045   4.001  0.5251  0.5627  0.1961
 5686TIP3   OH238472   0.162   1.579   5.983  0.3398  0.5437 -0.0277
 5686TIP3    H138473   0.092   1.561   6.047 -2.9531  1.6007 -2.9734
 5686TIP3    H238474   0.204   1.659   6.015  0.4320 -0.2719  1.9978
 5687TIP3   OH238475   0.655   5.852  11.561  0.3922  0.2530  0.2361
 5687TIP3    H138476   0.728   5.814  11.512  0.4428  0.6081  0.0389
 5687TIP3    H238477   0.624   5.780  11.616 -0.6053 -0.5961 -1.3598
 5688TIP3   OH238478   5.307   6.392  13.180  0.5027 -0.0514  0.2700
 5688TIP3    H138479   5.369   6.370  13.111 -1.2361 -0.1487 -1.3413
 5688TIP3    H238480   5.260   6.311  13.198 -1.4613  0.7073 -1.0228
 5689TIP3   OH238481   0.245   1.957  15.937 -0.4245 -0.5169 -0.1292
 5689TIP3    H138482   0.161   1.952  15.983  0.3960 -1.4647  1.3350
 5689TIP3    H238483   0.302   2.004  15.998  0.2861 -0.4411 -0.8405
 5690TIP3   OH238484   3.832   5.952   5.188 -0.1977 -0.1238  0.1222
 5690TIP3    H138485   3.752   5.905   5.163  0.0004 -0.6915  0.5503
 5690TIP3    H238486   3.874   5.897   5.253  0.1527  0.5492  0.4823
 5691TIP3   OH238487   5.986   2.839  11.654 -0.0306 -0.3212  0.5828
 5691TIP3    H138488   6.012   2.930  11.644 -0.8695  0.0222  1.4308
 5691TIP3    H238489   6.063   2.795  11.690  0.4537 -0.0132 -0.0493
 5692TIP3   OH238490   0.943   3.423  13.663  0.5426 -0.2206  0.6166
 5692TIP3    H138491   1.037   3.402  13.665  0.7917  0.7729  0.1467
 5692TIP3    H238492   0.900   3.343  13.692  1.4620 -1.1643 -0.5340
 5693TIP3   OH238493   0.048   3.538  12.286 -0.3441  0.3409  0.0920
 5693TIP3    H138494   0.050   3.452  12.327  0.2314 -0.3852 -1.4118
 5693TIP3    H238495  -0.030   3.580  12.323  0.5938  0.0939  2.5557
 5694TIP3   OH238496   4.369   5.679  14.219 -0.5964  0.4743 -0.2641
 5694TIP3    H138497   4.369   5.723  14.304  0.0461 -1.0187  0.5335
 5694TIP3    H238498   4.298   5.722  14.170 -1.5851  0.7458  1.3488
 5695TIP3   OH238499   3.248   6.430   6.322 -0.1599 -0.1974 -0.2002
 5695TIP3    H138500   3.165   6.386   6.340  0.6681 -1.6947  0.1194
 5695TIP3    H238501   3.261   6.419   6.227 -0.0211 -0.5547 -0.1436
 5696TIP3   OH238502   1.980   0.852   2.467 -0.0359 -0.7673 -0.3495
 5696TIP3    H138503   2.050   0.853   2.401 -0.0505 -1.1896 -0.3736
 5696TIP3    H238504   1.904   0.889   2.422  0.6532  1.4961  0.2318
 5697TIP3   OH238505   1.212   4.223  13.397  0.4948 -0.0376 -0.4985
 5697TIP3    H138506   1.169   4.300  13.432  0.8620  0.2097 -0.5854
 5697TIP3    H238507   1.292   4.256  13.357  0.3370 -0.3808 -1.1140
 5698TIP3   OH238508   1.964   1.902   1.314 -0.0600 -0.0983 -0.4384
 5698TIP3    H138509   1.911   1.855   1.249  0.5487  1.5318 -2.1976
 5698TIP3    H238510   1.899   1.947   1.369 -0.5854  0.8918 -1.8066
 5699TIP3   OH238511   1.798   4.775  12.955  0.5728  0.8707  0.2716
 5699TIP3    H138512   1.775   4.727  13.035 -3.4023  1.4574 -0.2895
 5699TIP3    H238513   1.816   4.864  12.985 -1.7342  1.3018  0.5843
 5700TIP3   OH238514   0.031   4.580   4.815 -0.5072 -0.0203  0.5844
 5700TIP3    H138515  -0.057   4.545   4.825 -0.5387  0.0190  0.4494
 5700TIP3    H238516   0.071   4.570   4.902 -0.2039 -1.2242  0.3269
 5701TIP3   OH238517   2.159   4.071  16.004 -0.0876  0.2207 -0.0743
 5701TIP3    H138518   2.244   4.071  16.047 -0.6278  1.0321  1.0426
 5701TIP3    H238519   2.146   4.161  15.975 -0.6853  0.1782  0.0356
 5702TIP3   OH238520   1.034   6.217  10.733 -0.4441 -0.1368 -0.7291
 5702TIP3    H138521   1.088   6.153  10.780  1.6571  1.4937 -0.7961
 5702TIP3    H238522   0.956   6.168  10.708  0.3572 -2.2315  0.6098
 5703TIP3   OH238523   0.272   2.226  11.976 -0.0203 -0.4019 -0.9360
 5703TIP3    H138524   0.248   2.175  12.053  0.0994 -0.0200 -0.6399
 5703TIP3    H238525   0.228   2.310  11.989  0.2933 -0.2105 -1.1055
 5704TIP3   OH238526   1.540   2.783  14.692  0.0825  0.2862  0.1388
 5704TIP3    H138527   1.529   2.717  14.761 -0.9468  0.2295 -0.0661
 5704TIP3    H238528   1.630   2.814  14.704  0.5532 -1.0613  0.3095
 5705TIP3   OH238529   3.682   5.598  10.837 -0.6483  0.2935 -0.1510
 5705TIP3    H138530   3.614   5.651  10.795  1.6021  2.0417 -1.9101
 5705TIP3    H238531   3.656   5.508  10.819 -0.4440  0.8840 -4.6667
 5706TIP3   OH238532   3.390   1.131  14.927 -0.8317  0.4602 -0.6676
 5706TIP3    H138533   3.381   1.089  15.013  1.8845  0.0523 -0.4940
 5706TIP3    H238534   3.430   1.064  14.872 -0.6866  1.3683 -1.7005
 5707TIP3   OH238535   2.525   4.927  11.896 -0.5587  0.4889  0.4446
 5707TIP3    H138536   2.490   4.968  11.817 -1.0563  1.3052  1.0796
 5707TIP3    H238537   2.604   4.881  11.866 -2.0193 -1.2526 -0.9856
 5708TIP3   OH238538   0.412   5.111  12.998 -0.1970  0.0193  0.7965
 5708TIP3    H138539   0.475   5.071  12.937  1.1707 -0.0092  2.1501
 5708TIP3    H238540   0.357   5.038  13.027 -1.4864  0.1909 -1.0475
 5709TIP3   OH238541   6.700   1.874  16.391  0.5539  0.1563 -0.3694
 5709TIP3    H138542   6.743   1.791  16.369  0.4225 -0.7047  2.2735
 5709TIP3    H238543   6.771   1.938  16.394  1.3472 -0.7538  1.5780
 5710TIP3   OH238544   1.257   6.096   3.699 -0.6322 -0.1257  0.0809
 5710TIP3    H138545   1.206   6.049   3.766  1.1905 -2.0142  0.2466
 5710TIP3    H238546   1.309   6.159   3.748  0.9770 -1.7553  0.5908
 5711TIP3   OH238547   1.267   5.899   3.507 -0.4523  0.5027 -0.2505
 5711TIP3    H138548   1.175   5.874   3.520 -0.4968  0.2916 -0.9265
 5711TIP3    H238549   1.287   5.956   3.581 -0.9414  0.0422  0.2485
 5712TIP3   OH238550   2.160   5.293  13.149  0.0741  0.0191  0.2598
 5712TIP3    H138551   2.181   5.342  13.070  0.3872 -0.1473  0.2355
 5712TIP3    H238552   2.088   5.342  13.190  0.5570  0.6529  0.3743
 5713TIP3   OH238553   1.384   6.016   1.256 -0.3727  0.1594 -0.8350
 5713TIP3    H138554   1.403   5.980   1.169  0.8945 -0.5258 -0.3014
 5713TIP3    H238555   1.427   6.101   1.257  3.5917 -1.6377  0.5852
 5714TIP3   OH238556   2.130   0.847  14.647  0.0962 -1.3220 -0.2154
 5714TIP3    H138557   2.188   0.811  14.579 -0.7729 -0.2617 -1.5653
 5714TIP3    H238558   2.060   0.783  14.655 -0.6244 -0.7305 -1.4890
 5715TIP3   OH238559   2.654   5.939  16.137 -0.0954  0.3964 -0.4564
 5715TIP3    H138560   2.597   5.979  16.203 -0.5174  0.1550 -0.6668
 5715TIP3    H238561   2.648   5.845  16.154  3.1343  0.4683  1.8792
 5716TIP3   OH238562   2.541   0.286   3.708 -0.6746 -0.0591 -0.2249
 5716TIP3    H138563   2.550   0.346   3.781  0.7876 -0.3105 -0.1695
 5716TIP3    H238564   2.481   0.218   3.739 -1.6974  0.9247 -0.0113
 5717TIP3   OH238565   5.140   2.176  11.337 -0.1073 -0.0313  0.4924
 5717TIP3    H138566   5.188   2.237  11.281 -0.8852  1.3104  1.2404
 5717TIP3    H238567   5.060   2.156  11.288 -0.9879  1.4708  1.2334
 5718TIP3   OH238568   1.145   5.027   1.034  0.2256 -0.1394  0.6257
 5718TIP3    H138569   1.116   5.109   0.993  0.7543 -0.0482  0.4283
 5718TIP3    H238570   1.198   5.055   1.109  0.1536 -0.3008  0.7363
 5719TIP3   OH238571   6.065   3.730   0.183 -0.4725 -0.0860  0.0589
 5719TIP3    H138572   6.126   3.744   0.255  0.3817 -0.3343 -0.6033
 5719TIP3    H238573   6.085   3.798   0.120 -1.1372  0.0557 -0.0070
 5720TIP3   OH238574   4.629   3.533   0.271  0.2255  0.1937  0.5959
 5720TIP3    H138575   4.576   3.542   0.350  0.2789  1.7361  0.4847
 5720TIP3    H238576   4.576   3.478   0.213 -1.5385  2.0689  0.3046
 5721TIP3   OH238577   4.850   1.556   3.915 -0.2836  0.2952 -0.4024
 5721TIP3    H138578   4.910   1.487   3.890  0.0227 -0.5525  2.3959
 5721TIP3    H238579   4.864   1.625   3.849  3.0347 -0.2460 -0.4368
 5722TIP3   OH238580   0.345   3.211  12.822 -0.0284  0.3376  0.2532
 5722TIP3    H138581   0.406   3.180  12.755 -0.5153  0.0347 -0.0606
 5722TIP3    H238582   0.272   3.248  12.772 -0.5862 -0.2524  0.6059
 5723TIP3   OH238583   5.884   6.139  15.275 -0.5215 -0.1209  0.5714
 5723TIP3    H138584   5.908   6.223  15.235 -1.2553  0.1534  0.7046
 5723TIP3    H238585   5.942   6.076  15.232 -1.2080  0.1780 -0.8859
 5724TIP3   OH238586   3.978   1.948   6.134  0.3791 -0.4414 -0.4552
 5724TIP3    H138587   3.892   1.926   6.099 -0.9891  3.5390 -0.0484
 5724TIP3    H238588   3.974   1.925   6.226  0.5412 -2.0300 -0.8035
 5725TIP3   OH238589   2.799   0.425  13.618  0.2944  0.3724 -0.4822
 5725TIP3    H138590   2.827   0.444  13.708 -2.4551  0.5181  0.4656
 5725TIP3    H238591   2.704   0.414  13.625  0.2166 -1.4922 -3.0943
 5726TIP3   OH238592   5.914   1.589  12.345 -0.2390 -0.2055  0.1766
 5726TIP3    H138593   5.914   1.519  12.410  1.2234  1.8190  2.5519
 5726TIP3    H238594   5.853   1.654  12.379 -1.3647 -0.1167 -1.8291
 5727TIP3   OH238595   5.764   3.844  14.951 -0.6252  0.4608  0.1347
 5727TIP3    H138596   5.699   3.779  14.926 -0.3708  0.1343  0.3040
 5727TIP3    H238597   5.771   3.834  15.046  0.9107 -0.7051 -0.0652
 5728TIP3   OH238598   6.299   3.995   3.454  0.0515  0.4529  0.2526
 5728TIP3    H138599   6.369   3.974   3.516  0.1037  2.0047  0.7678
 5728TIP3    H238600   6.231   4.035   3.507  0.2936  2.2429 -0.7158
 5729TIP3   OH238601   0.357   6.048   1.038  0.4251  0.6736  0.2656
 5729TIP3    H138602   0.413   6.124   1.027  0.7247  0.4991  0.5655
 5729TIP3    H238603   0.304   6.045   0.958  2.1813 -0.2772 -0.9289
 5730TIP3   OH238604   6.151   6.196  11.326  0.3917 -0.2334  0.0571
 5730TIP3    H138605   6.071   6.183  11.276  0.3323  0.2618  0.0126
 5730TIP3    H238606   6.216   6.141  11.283 -0.0192 -0.9613  0.3403
 5731TIP3   OH238607   2.836   6.380   3.299 -0.3595 -0.1928  0.1263
 5731TIP3    H138608   2.757   6.328   3.283  0.8635 -2.0528 -0.1035
 5731TIP3    H238609   2.861   6.357   3.389  0.3390 -0.2021 -0.0706
 5732TIP3   OH238610   1.752   5.308   1.538  0.3886 -0.5818  0.7145
 5732TIP3    H138611   1.708   5.225   1.554  0.0144 -0.7652 -1.0170
 5732TIP3    H238612   1.823   5.311   1.602  0.3382 -2.1899  0.8808
 5733TIP3   OH238613   5.870   3.448  17.059 -0.0431  0.1579  0.3045
 5733TIP3    H138614   5.851   3.477  17.148 -1.8031 -1.1086  0.4005
 5733TIP3    H238615   5.905   3.359  17.069 -1.8226 -0.6543 -0.3009
 5734TIP3   OH238616   4.791   0.862  15.122  0.0027  0.1761  0.3362
 5734TIP3    H138617   4.723   0.914  15.080  0.0896 -0.1054 -0.1618
 5734TIP3    H238618   4.760   0.771  15.115  0.2358  0.0846  0.4672
 5735TIP3   OH238619   2.868   4.287   1.672  0.0384  0.6384 -0.4046
 5735TIP3    H138620   2.840   4.377   1.657  1.7580  0.9531 -2.1363
 5735TIP3    H238621   2.906   4.287   1.759 -1.7771  1.0733  0.4299
 5736TIP3   OH238622   0.157   6.636   3.330  0.2272  0.5815  0.3814
 5736TIP3    H138623   0.252   6.645   3.341  0.1047  0.5538  1.5985
 5736TIP3    H238624   0.135   6.696   3.258  1.4241 -0.8604 -1.2730
 5737TIP3   OH238625   1.714   4.106   0.986  0.2239 -0.7227 -0.0953
 5737TIP3    H138626   1.789   4.150   1.025 -0.9874 -0.9537  2.7192
 5737TIP3    H238627   1.675   4.171   0.927  0.8182  0.5221  0.8540
 5738TIP3   OH238628   5.658   3.098   0.731 -0.7231 -0.1493  0.1331
 5738TIP3    H138629   5.570   3.065   0.751 -1.3045  1.5759  0.5332
 5738TIP3    H238630   5.713   3.063   0.802 -0.8297 -2.0768 -0.6583
 5739TIP3   OH238631   1.405   4.165   2.679 -0.5777  0.4093  0.1922
 5739TIP3    H138632   1.381   4.086   2.728  1.7191 -1.0106 -0.7921
 5739TIP3    H238633   1.443   4.132   2.598  0.9764  2.5121 -0.0113
 5740TIP3   OH238634   4.193   4.222   6.159 -0.2482  0.4367  0.7615
 5740TIP3    H138635   4.237   4.307   6.165 -0.3304  0.4150  1.8684
 5740TIP3    H238636   4.162   4.205   6.248 -1.9099  0.1306  0.1455
 5741TIP3   OH238637   0.128   5.601  16.192  0.1150 -0.8286  0.0012
 5741TIP3    H138638   0.152   5.551  16.114  1.5425 -0.4970  0.2078
 5741TIP3    H238639   0.041   5.636  16.171  1.7787  2.0950 -2.8918
 5742TIP3   OH238640   0.117   0.398  15.285  0.4926  0.7641 -0.2149
 5742TIP3    H138641   0.161   0.471  15.329  1.7171  0.7865 -1.4188
 5742TIP3    H238642   0.057   0.440  15.224  0.4126  0.7438 -0.1506
 5743TIP3   OH238643   6.743   5.062  16.325 -0.6650 -0.1877 -0.2660
 5743TIP3    H138644   6.830   5.030  16.301  0.0687  1.4875  0.0034
 5743TIP3    H238645   6.732   5.034  16.416 -0.0366  0.2981 -0.0310
 5744TIP3   OH238646   1.922   3.561  15.194  0.6089 -0.8766 -0.3928
 5744TIP3    H138647   1.893   3.645  15.229 -0.3980 -1.1349 -0.5782
 5744TIP3    H238648   1.948   3.579  15.104 -0.4181 -0.9071 -0.7076
 5745TIP3   OH238649   6.302   5.484   1.964 -0.1121  0.2858  0.5316
 5745TIP3    H138650   6.223   5.464   1.914 -0.2027 -1.2708  1.2215
 5745TIP3    H238651   6.272   5.540   2.035 -0.3137  0.9233 -0.0418
 5746TIP3   OH238652   6.431   1.519  15.552 -0.3504  0.1613  0.7053
 5746TIP3    H138653   6.434   1.444  15.492  0.9095  0.3585  0.4931
 5746TIP3    H238654   6.510   1.510  15.605  0.2788  1.7850  0.1024
 5747TIP3   OH238655   0.241   0.430   3.111 -0.1519 -0.1452 -0.5817
 5747TIP3    H138656   0.254   0.460   3.021 -0.2782  0.9333 -0.2661
 5747TIP3    H238657   0.317   0.464   3.159 -2.9292  4.9909  0.9997
 5748TIP3   OH238658   5.844   0.495   2.446  0.5089 -0.1508  0.0908
 5748TIP3    H138659   5.833   0.559   2.516  0.4284 -1.4823  1.3238
 5748TIP3    H238660   5.865   0.548   2.369  0.8795  1.3239  1.1624
 5749TIP3   OH238661   1.856   6.173  15.317  0.4319 -0.2391 -0.5928
 5749TIP3    H138662   1.855   6.231  15.240  2.2709  0.2233 -0.3133
 5749TIP3    H238663   1.892   6.091  15.284  1.6243  0.0918 -0.1809
 5750TIP3   OH238664   1.219   2.061  17.135 -0.0749  0.1865  0.6597
 5750TIP3    H138665   1.271   2.122  17.189 -0.0393 -1.3397  2.4655
 5750TIP3    H238666   1.262   2.062  17.050  1.8791  0.3098  1.5842
 5751TIP3   OH238667   2.107   5.499   2.430  0.0345  0.3768  0.8083
 5751TIP3    H138668   2.104   5.569   2.495 -0.8006 -1.0223  2.3538
 5751TIP3    H238669   2.016   5.485   2.405  0.0997 -0.7008  1.1352
 5752TIP3   OH238670   2.185   1.636   4.043  0.1387 -0.1296  0.1529
 5752TIP3    H138671   2.168   1.550   4.081 -0.1702  0.3380  1.1146
 5752TIP3    H238672   2.099   1.667   4.017  0.5213 -1.1650 -2.6210
 5753TIP3   OH238673   4.917   4.438  11.736  0.1003  1.0217  0.0306
 5753TIP3    H138674   4.913   4.368  11.671  0.8043  0.2056  0.8423
 5753TIP3    H238675   5.000   4.482  11.719  0.6528  0.3244  0.8361
 5754TIP3   OH238676   4.891   1.309   0.179  0.1595 -1.0075  0.4687
 5754TIP3    H138677   4.873   1.359   0.259  0.2544 -1.9232  1.0699
 5754TIP3    H238678   4.892   1.218   0.207 -1.0397 -1.4456 -0.7983
 5755TIP3   OH238679   5.794   6.330  14.167 -0.5106  0.0002 -0.4373
 5755TIP3    H138680   5.702   6.310  14.151 -0.1381 -1.0613 -1.3698
 5755TIP3    H238681   5.808   6.414  14.123 -0.7714 -0.3693 -1.2408
 5756TIP3   OH238682   5.884   2.160   3.759  0.3501 -0.0724  0.9321
 5756TIP3    H138683   5.790   2.142   3.768  0.3933 -0.2979  0.9457
 5756TIP3    H238684   5.925   2.074   3.769  0.3416 -0.5611 -2.1863
 5757TIP3   OH238685   2.496   0.466   3.905 -0.2093  0.2780  0.3647
 5757TIP3    H138686   2.451   0.384   3.928  0.9138 -0.6250 -0.4883
 5757TIP3    H238687   2.500   0.515   3.987 -0.6435 -0.6572  0.9709
 5758TIP3   OH238688   2.074   2.151  15.642 -0.4691 -0.6215  0.1406
 5758TIP3    H138689   2.077   2.242  15.670 -0.5036 -0.5630 -0.0419
 5758TIP3    H238690   2.161   2.134  15.606 -0.9858 -0.1506 -1.3896
 5759TIP3   OH238691   6.333   2.352   4.025 -0.6376  0.2723  0.5823
 5759TIP3    H138692   6.397   2.294   4.066  0.7486  1.3410  0.0164
 5759TIP3    H238693   6.258   2.350   4.084 -0.4635 -1.7075  0.8165
 5760TIP3   OH238694   0.333   3.576   5.439 -0.2154 -0.6554  0.2765
 5760TIP3    H138695   0.296   3.496   5.401 -0.5291 -0.8821  1.0541
 5760TIP3    H238696   0.322   3.642   5.370  0.1339 -1.2920 -0.4098
 5761TIP3   OH238697   5.722   4.855  15.834  0.2089  0.6421 -0.2862
 5761TIP3    H138698   5.665   4.869  15.758 -0.9500  1.2832  0.6649
 5761TIP3    H238699   5.730   4.760  15.841 -2.2149  0.4442  0.5864
 5762TIP3   OH238700   4.277   0.968   5.134 -0.0192  0.6137  0.1363
 5762TIP3    H138701   4.195   1.006   5.166 -0.6025  0.0387 -0.6566
 5762TIP3    H238702   4.320   1.041   5.088 -1.4537  0.1940 -1.9777
 5763TIP3   OH238703   2.044   3.809   2.448  0.2634  0.1216  0.0752
 5763TIP3    H138704   2.055   3.714   2.442 -2.2590 -0.2183 -0.4750
 5763TIP3    H238705   2.001   3.833   2.366  2.1382  2.0225 -0.4438
 5764TIP3   OH238706   6.758   3.432  14.000 -0.0387 -0.1254 -0.7087
 5764TIP3    H138707   6.783   3.521  14.026  2.1728 -1.5126  2.6561
 5764TIP3    H238708   6.666   3.424  14.024 -0.2768  1.1929 -1.0881
 5765TIP3   OH238709   4.222   4.227  13.134  0.0082  0.2113 -0.1632
 5765TIP3    H138710   4.200   4.142  13.095 -0.5337  0.8563 -1.3088
 5765TIP3    H238711   4.315   4.220  13.156  0.3910 -0.1400 -1.7503
 5766TIP3   OH238712   1.643   6.590   2.218  0.4531 -0.1613 -0.5543
 5766TIP3    H138713   1.712   6.552   2.271 -0.2682 -1.7711 -0.7004
 5766TIP3    H238714   1.653   6.684   2.229  0.0782 -0.3973  2.7674
 5767TIP3   OH238715   0.269   5.538   1.584 -0.1046 -0.4636  0.5146
 5767TIP3    H138716   0.304   5.531   1.495 -0.6025 -1.8920  0.4146
 5767TIP3    H238717   0.344   5.565   1.637  0.0523  1.0487 -0.4158
 5768TIP3   OH238718   0.664   0.949   4.755 -0.3421  0.2657 -0.0368
 5768TIP3    H138719   0.723   0.902   4.815 -1.9101  1.1956  2.3979
 5768TIP3    H238720   0.637   0.882   4.691  1.8004 -0.6442 -0.0683
 5769TIP3   OH238721   3.105   4.742   2.871 -0.1783 -0.1223 -0.6478
 5769TIP3    H138722   3.067   4.829   2.883  1.2959  0.4910 -0.2281
 5769TIP3    H238723   3.183   4.757   2.818  0.4118 -1.1176 -0.0970
 5770TIP3   OH238724   1.132   2.354  14.783 -0.0801  0.0027 -0.1436
 5770TIP3    H138725   1.158   2.397  14.702  0.1215  1.7733  0.8054
 5770TIP3    H238726   1.201   2.288  14.798  0.4102  0.3290 -0.8937
 5771TIP3   OH238727   4.860   4.808   2.514  0.1112 -0.1543 -0.3647
 5771TIP3    H138728   4.917   4.880   2.489  0.3043  1.0833  3.1235
 5771TIP3    H238729   4.920   4.743   2.552 -0.5033 -0.0607  0.7853
 5772TIP3   OH238730   2.940   3.149   2.779  0.0069  0.4486 -0.3380
 5772TIP3    H138731   2.894   3.183   2.702  0.6717 -0.6916 -1.2945
 5772TIP3    H238732   2.871   3.117   2.837 -0.4661 -1.5584 -1.8941
 5773TIP3   OH238733   4.456   4.795  13.189  0.1091 -0.0395 -0.5993
 5773TIP3    H138734   4.538   4.750  13.207 -1.0179 -1.4927  1.1971
 5773TIP3    H238735   4.444   4.855  13.263  0.2239  1.2493 -1.5766
 5774TIP3   OH238736   5.981   4.498   6.171 -0.0268 -0.1950 -0.0049
 5774TIP3    H138737   6.060   4.445   6.179  1.6639  2.2891  0.8549
 5774TIP3    H238738   5.914   4.450   6.220  1.4495 -1.4356  0.8582
 5775TIP3   OH238739   6.405   0.760   0.186 -0.0538 -0.1851 -0.0399
 5775TIP3    H138740   6.413   0.669   0.215  0.5106 -0.4382 -0.9684
 5775TIP3    H238741   6.369   0.754   0.097  0.2164  0.4892 -0.1988
 5776TIP3   OH238742   3.404   4.160   5.758 -0.0509  0.1802  0.4096
 5776TIP3    H138743   3.436   4.229   5.817  2.2631 -0.1357 -0.3665
 5776TIP3    H238744   3.349   4.104   5.813 -1.4295  2.2080  1.2226
 5777TIP3   OH238745   6.285   4.202   4.245 -0.0524  0.4373  0.1406
 5777TIP3    H138746   6.298   4.161   4.160 -0.4476 -0.6256  0.5726
 5777TIP3    H238747   6.197   4.239   4.241 -0.6581 -0.9035  0.5767
 5778TIP3   OH238748   5.224   3.677  12.226 -0.2352  0.4898 -0.6086
 5778TIP3    H138749   5.206   3.699  12.135 -1.6653 -0.2944 -0.5451
 5778TIP3    H238750   5.254   3.587  12.224 -0.3691  0.4362 -0.2935
 5779TIP3   OH238751   1.877   2.921   0.530  0.4934 -0.1033 -0.2928
 5779TIP3    H138752   1.962   2.966   0.526 -0.3109  1.4605 -0.5381
 5779TIP3    H238753   1.815   2.990   0.552 -0.7906 -1.1270 -0.6143
 5780TIP3   OH238754   2.388   6.644   2.431  0.4544  0.5727  0.0882
 5780TIP3    H138755   2.319   6.643   2.498  1.5471  1.6276  1.2956
 5780TIP3    H238756   2.400   6.552   2.407  0.5599  0.0701  1.9182
 5781TIP3   OH238757   5.395   5.569  15.361 -0.8954 -0.1118  0.4343
 5781TIP3    H138758   5.416   5.501  15.296 -2.4835 -0.2025 -0.0198
 5781TIP3    H238759   5.479   5.612  15.378 -0.1214 -1.2470 -0.3473
 5782TIP3   OH238760   6.011   6.602   4.563  0.0970  0.2923 -0.4302
 5782TIP3    H138761   6.030   6.524   4.616 -2.5778  0.3727  0.8159
 5782TIP3    H238762   6.022   6.573   4.472  1.1983 -0.9220  0.0646
 5783TIP3   OH238763   4.708   0.768   5.389  0.2103  0.3851  0.2743
 5783TIP3    H138764   4.704   0.837   5.455  0.2712 -0.4739  1.2012
 5783TIP3    H238765   4.630   0.781   5.335  0.3666  1.3348  0.2731
 5784TIP3   OH238766   1.474   1.133  11.553  0.0114 -0.0124  0.0136
 5784TIP3    H138767   1.520   1.053  11.580  2.0727  1.6546  1.7637
 5784TIP3    H238768   1.450   1.175  11.635  0.8003  2.1642 -0.8122
 5785TIP3   OH238769   0.760   6.518   4.748 -0.1466  0.1859 -0.6017
 5785TIP3    H138770   0.806   6.557   4.822 -1.1132 -1.2063  0.7758
 5785TIP3    H238771   0.695   6.585   4.723 -0.1650  0.4536  0.1402
 5786TIP3   OH238772   3.961   0.024  15.327  0.0303 -0.0908  0.0925
 5786TIP3    H138773   3.896  -0.025  15.276  0.2914 -0.5885  0.2226
 5786TIP3    H238774   4.012  -0.044  15.370  0.7231  0.2895 -0.1176
 5787TIP3   OH238775   6.070   1.177   3.810 -0.9884 -0.1351 -0.4738
 5787TIP3    H138776   6.134   1.127   3.860  1.6452  2.7652 -0.5900
 5787TIP3    H238777   5.991   1.177   3.864  0.3072 -0.8292  1.5119
 5788TIP3   OH238778   3.572   1.371  14.145  0.4916  0.1418 -0.3098
 5788TIP3    H138779   3.540   1.297  14.094  1.7149  0.8137 -2.1473
 5788TIP3    H238780   3.650   1.337  14.190  1.4742  0.4475 -1.7151
 5789TIP3   OH238781   3.659   2.932  16.316  0.5904 -0.2735 -0.4163
 5789TIP3    H138782   3.754   2.942  16.310  0.6776  0.7747  1.8789
 5789TIP3    H238783   3.629   2.938  16.225  2.6040  0.4260 -1.0942
 5790TIP3   OH238784   4.621   4.336   3.252  0.3564  0.0095  0.4862
 5790TIP3    H138785   4.570   4.277   3.197  3.0076 -2.0182  0.0032
 5790TIP3    H238786   4.626   4.291   3.337  3.1631 -1.0761 -0.1524
 5791TIP3   OH238787   2.358   2.854  14.675  0.0895 -0.0954  0.3957
 5791TIP3    H138788   2.379   2.784  14.736 -1.6379 -2.6863 -1.7477
 5791TIP3    H238789   2.418   2.841  14.601 -1.9159 -1.0768 -1.1663
 5792TIP3   OH238790   5.700   2.184  15.210  0.5970  0.2995 -0.3752
 5792TIP3    H138791   5.652   2.102  15.218 -0.5019  1.0602  1.2390
 5792TIP3    H238792   5.761   2.184  15.284  0.8932  0.7495 -0.6128
 5793TIP3   OH238793   6.723   5.037   3.495 -1.0139 -0.0198  0.8541
 5793TIP3    H138794   6.785   4.970   3.523  0.9907  0.9675 -0.9583
 5793TIP3    H238795   6.744   5.114   3.547 -1.0148  0.1942  0.5436
 5794TIP3   OH238796   6.687   5.282  14.843 -0.4095  0.3640 -0.4647
 5794TIP3    H138797   6.721   5.368  14.819  0.3268  0.6484  1.3943
 5794TIP3    H238798   6.593   5.296  14.855 -0.2360  1.0298  0.2192
 5795TIP3   OH238799   0.027   0.876   3.098 -0.3428  0.0216 -0.1348
 5795TIP3    H138800  -0.025   0.957   3.104  1.8823  1.5199  0.3367
 5795TIP3    H238801   0.088   0.893   3.026 -0.9694 -1.9795 -1.1769
 5796TIP3   OH238802   3.601   6.087  12.814 -0.3795 -0.3644  0.2269
 5796TIP3    H138803   3.544   6.086  12.890 -1.1973  0.3797 -0.3595
 5796TIP3    H238804   3.544   6.111  12.741  0.8903  1.5698 -0.2019
 5797TIP3   OH238805   5.360   3.130  10.540  0.4951  0.1889  0.8711
 5797TIP3    H138806   5.420   3.057  10.521  0.2522  0.2466 -0.1980
 5797TIP3    H238807   5.339   3.166  10.454 -0.4171  0.7020  1.2953
 5798TIP3   OH238808   3.061   1.725   4.191 -0.6831 -0.1571 -0.1300
 5798TIP3    H138809   3.050   1.630   4.189 -2.5703  0.0410 -0.3927
 5798TIP3    H238810   3.128   1.742   4.125 -0.4015 -1.2914 -0.1650
 5799TIP3   OH238811   0.420   3.032   1.353 -0.4036  0.0575 -0.0385
 5799TIP3    H138812   0.413   3.094   1.425  1.0623 -0.0087  0.1804
 5799TIP3    H238813   0.345   3.053   1.297 -0.1778  1.7519  0.2392
 5800TIP3   OH238814   5.847   5.272  11.378 -0.1328 -0.1035  0.0706
 5800TIP3    H138815   5.768   5.284  11.431 -0.3145  2.0232 -0.5760
 5800TIP3    H238816   5.837   5.334  11.307 -0.2714 -3.3545 -3.0109
 5801TIP3   OH238817   2.547   3.037  14.082 -0.1960 -0.8984  0.1268
 5801TIP3    H138818   2.630   2.998  14.111  0.0668 -0.6806 -0.3276
 5801TIP3    H238819   2.568   3.128  14.064 -1.4138  0.3700  4.0090
 5802TIP3   OH238820   0.169   4.962   5.237 -0.3680 -0.1799  0.3790
 5802TIP3    H138821   0.251   4.988   5.278  0.5327 -0.6995 -1.0158
 5802TIP3    H238822   0.107   4.953   5.310  1.0151 -0.5734  1.5455
 5803TIP3   OH238823   3.135   2.892   4.669  0.4810  0.1179 -0.0237
 5803TIP3    H138824   3.068   2.873   4.603  0.8450 -2.2760  0.2130
 5803TIP3    H238825   3.121   2.826   4.737  1.3311  1.3433  1.3940
 5804TIP3   OH238826   5.866   2.129   5.268  0.1906  0.2763  0.1076
 5804TIP3    H138827   5.889   2.126   5.361  0.8752 -0.1742 -0.0659
 5804TIP3    H238828   5.943   2.170   5.226  0.3967 -0.6107 -0.4064
 5805TIP3   OH238829   3.076   3.357   1.623 -0.3775  0.1191  0.9232
 5805TIP3    H138830   3.118   3.312   1.549 -1.6092  2.6966 -1.5674
 5805TIP3    H238831   3.148   3.386   1.678  1.0973  2.0552 -1.7765
 5806TIP3   OH238832   4.836   2.856   5.593  0.6252  0.1800 -0.1534
 5806TIP3    H138833   4.866   2.784   5.649  0.5117 -1.0301 -1.5907
 5806TIP3    H238834   4.853   2.825   5.504  1.0923  2.1737 -0.8066
 5807TIP3   OH238835   0.624   2.121  11.500  0.3645 -0.1454  0.3239
 5807TIP3    H138836   0.552   2.184  11.494  1.0529  0.5677 -1.1451
 5807TIP3    H238837   0.683   2.159  11.565  0.4652  0.4385 -0.0919
 5808TIP3   OH238838   4.969   0.642  10.422  0.0417 -0.0050 -0.0081
 5808TIP3    H138839   4.957   0.558  10.467  0.5969 -0.9435 -1.5068
 5808TIP3    H238840   4.972   0.707  10.492 -0.5868 -1.2123  1.1879
 5809TIP3   OH238841   4.494   6.269   5.468  0.2436 -0.1965  0.2246
 5809TIP3    H138842   4.515   6.357   5.499  1.6109 -0.0829 -0.9368
 5809TIP3    H238843   4.574   6.219   5.484 -0.0225 -0.8491 -0.4588
 5810TIP3   OH238844   0.578   3.086   2.851  0.0090  0.2704  0.2296
 5810TIP3    H138845   0.615   3.160   2.804  2.9985 -0.6802  0.8213
 5810TIP3    H238846   0.571   3.116   2.942  0.9668 -0.0354  0.4193
 5811TIP3   OH238847   4.170   1.240   4.517  0.2685  0.4823 -0.2535
 5811TIP3    H138848   4.150   1.252   4.610  1.1779  0.8639 -0.0951
 5811TIP3    H238849   4.262   1.216   4.515 -0.5038 -3.0326 -0.8291
 5812TIP3   OH238850   5.312   1.668  11.491 -0.5099 -0.5353 -0.0628
 5812TIP3    H138851   5.396   1.706  11.465 -0.1668 -1.2057  0.0369
 5812TIP3    H238852   5.247   1.715  11.440 -0.4047  2.1988  2.0964
 5813TIP3   OH238853   3.601   0.025  15.843  0.1851  0.1812  0.7148
 5813TIP3    H138854   3.688   0.022  15.884  0.5851 -1.4649 -0.1850
 5813TIP3    H238855   3.586  -0.064  15.810 -0.0552  1.3394 -2.7720
 5814TIP3   OH238856   6.605   4.726   2.963  0.1314  0.2189  0.0537
 5814TIP3    H138857   6.578   4.817   2.953  1.4634  0.5439 -0.7827
 5814TIP3    H238858   6.697   4.725   2.938 -0.0730 -1.5072 -0.7707
 5815TIP3   OH238859   0.268   4.066   3.883 -0.0285  0.9081 -0.0299
 5815TIP3    H138860   0.243   4.131   3.818 -1.6880 -1.4906 -1.9680
 5815TIP3    H238861   0.353   4.033   3.853  1.5001  2.9715  1.7106
 5816TIP3   OH238862   2.175   0.942   2.857 -0.1290  0.4086  0.1762
 5816TIP3    H138863   2.117   0.924   2.931 -0.8295 -1.9331 -0.8788
 5816TIP3    H238864   2.120   0.931   2.779  1.4998 -1.1132 -0.8300
 5817TIP3   OH238865   1.932   3.893   2.191 -0.9082 -0.3387  0.6687
 5817TIP3    H138866   1.887   3.975   2.171  1.2207  1.2871  2.1068
 5817TIP3    H238867   2.014   3.897   2.142  1.2000  0.5286  3.8803
 5818TIP3   OH238868   4.386   6.581   1.931  0.4393  0.5422  0.6875
 5818TIP3    H138869   4.398   6.490   1.903  0.3614  0.5867  0.5126
 5818TIP3    H238870   4.407   6.633   1.854 -1.0426  0.6220  0.3060
 5819TIP3   OH238871   6.004   0.687   1.055  0.0438 -0.4602 -0.7316
 5819TIP3    H138872   5.935   0.745   1.087 -0.7023 -1.6412 -0.1227
 5819TIP3    H238873   6.032   0.726   0.972 -0.0632  1.0343 -0.0783
 5820TIP3   OH238874   3.172   0.604   0.963  0.5030  0.2697  0.3544
 5820TIP3    H138875   3.115   0.527   0.965 -0.7812  1.2023  2.1239
 5820TIP3    H238876   3.261   0.568   0.963 -0.0575 -1.2231  2.1034
 5821TIP3   OH238877   1.688   6.523   1.307 -0.0740 -0.8091  0.1303
 5821TIP3    H138878   1.670   6.463   1.379 -0.0801 -0.4379  0.4440
 5821TIP3    H238879   1.780   6.548   1.318  0.5647 -2.3980 -1.2382
 5822TIP3   OH238880   2.293   4.250  12.240  0.8577  0.1023  0.3321
 5822TIP3    H138881   2.282   4.213  12.152  0.1957  0.4256  0.2753
 5822TIP3    H238882   2.300   4.344  12.226  3.9876 -0.0265  0.3422
 5823TIP3   OH238883   1.385   5.017   6.472  0.3829  0.0623 -0.4987
 5823TIP3    H138884   1.317   5.051   6.530  0.9211  0.5880 -0.1649
 5823TIP3    H238885   1.462   5.009   6.527  0.6570 -0.3188 -0.9273
 5824TIP3   OH238886   6.351   3.917   5.462  0.1855  0.3398  0.1308
 5824TIP3    H138887   6.440   3.905   5.427  0.7023 -1.2329  1.7861
 5824TIP3    H238888   6.355   4.001   5.508  1.3718 -0.4685  1.6024
 5825TIP3   OH238889   3.845   3.199  14.861 -0.1653 -0.4439 -0.2147
 5825TIP3    H138890   3.873   3.214  14.771 -1.5469 -1.4679 -0.8442
 5825TIP3    H238891   3.894   3.121  14.889  1.6896  0.9500  0.6183
 5826TIP3   OH238892   2.839   4.671  16.718  0.4207  0.6947  0.3254
 5826TIP3    H138893   2.858   4.577  16.718  1.7319  0.9230 -1.0023
 5826TIP3    H238894   2.925   4.713  16.713 -0.2293  1.8958 -1.8905
 5827TIP3   OH238895   6.139   2.758   4.912 -0.4778 -0.2901  0.1579
 5827TIP3    H138896   6.156   2.791   4.824 -1.8476 -1.5385 -0.6179
 5827TIP3    H238897   6.131   2.837   4.965 -0.7417  0.5378 -1.0612
 5828TIP3   OH238898   6.492   0.262  14.501  0.3155 -0.2634 -0.5544
 5828TIP3    H138899   6.581   0.270  14.468  0.8013 -0.3893  0.6502
 5828TIP3    H238900   6.496   0.189  14.564 -0.1247  1.0430  1.0617
 5829TIP3   OH238901   6.346   3.291   6.197  0.4866 -0.5613  0.0105
 5829TIP3    H138902   6.252   3.292   6.215  0.6945 -1.9087  1.2898
 5829TIP3    H238903   6.379   3.373   6.234 -0.0571 -0.4779  0.3162
 5830TIP3   OH238904   5.325   0.781  11.806  0.8588  0.1447 -0.4942
 5830TIP3    H138905   5.300   0.715  11.741 -2.3786  0.2186  0.4673
 5830TIP3    H238906   5.328   0.733  11.889  2.6126  0.4950 -0.3156
 5831TIP3   OH238907   3.364   5.435  11.847  0.7657 -0.8772  0.0440
 5831TIP3    H138908   3.319   5.370  11.794  0.7579  1.3341 -2.9205
 5831TIP3    H238909   3.436   5.387  11.888  0.3372 -2.8808 -1.4013
 5832TIP3   OH238910   4.707   0.608  16.991 -0.1439 -0.8459 -0.1138
 5832TIP3    H138911   4.672   0.686  17.035  0.8610 -0.0504 -0.6953
 5832TIP3    H238912   4.631   0.549  16.985 -0.9618  0.1338  0.2048
 5833TIP3   OH238913   3.377   2.041  11.749 -0.4187 -0.1623  0.3618
 5833TIP3    H138914   3.324   1.977  11.796 -0.3018 -0.0326  0.6763
 5833TIP3    H238915   3.459   1.996  11.731 -0.4632 -0.2125  0.2893
 5834TIP3   OH238916   4.967   0.382   5.889  0.2030 -0.1351  0.1806
 5834TIP3    H138917   5.003   0.388   5.978 -0.2140 -1.0366  0.4259
 5834TIP3    H238918   5.038   0.344   5.837  0.5344  0.6265  0.0694
 5835TIP3   OH238919   2.170   1.030  12.973 -0.5719  0.5953 -0.2871
 5835TIP3    H138920   2.241   0.985  13.019 -0.3418  0.4495 -0.7815
 5835TIP3    H238921   2.099   0.965  12.971 -0.2531  0.2505 -0.9671
 5836TIP3   OH238922   2.911   2.310   4.811 -0.7674 -0.2609  0.2071
 5836TIP3    H138923   3.002   2.314   4.841 -1.4791  0.2262  2.4599
 5836TIP3    H238924   2.903   2.383   4.750 -0.2869  1.3878  2.0170
 5837TIP3   OH238925   1.303   3.980  12.927 -0.2616 -0.4404 -0.0895
 5837TIP3    H138926   1.347   3.899  12.951 -0.7533 -1.2509 -1.7535
 5837TIP3    H238927   1.321   3.990  12.833  0.1270  1.6093  0.1392
 5838TIP3   OH238928   1.599   5.699   4.211  0.2555  0.5519  0.4563
 5838TIP3    H138929   1.687   5.664   4.198 -0.2219 -0.0427 -1.5914
 5838TIP3    H238930   1.540   5.629   4.183 -0.8427  1.5039  0.2637
 5839TIP3   OH238931   4.170   2.101  17.191  0.2814  0.5200  0.4258
 5839TIP3    H138932   4.256   2.088  17.153  1.6361  2.7059  2.4919
 5839TIP3    H238933   4.165   2.195  17.208 -3.8880  1.1599 -2.5869
 5840TIP3   OH238934   1.099   6.204  13.964 -0.4142 -0.6514  0.5503
 5840TIP3    H138935   1.030   6.221  13.900  0.9042 -2.2692 -1.4585
 5840TIP3    H238936   1.180   6.227  13.918  0.4792  0.2348  2.4724
 5841TIP3   OH238937   4.366   0.207   1.782  0.0920 -0.0480  0.1836
 5841TIP3    H138938   4.364   0.154   1.702 -1.6360 -0.9109  0.7321
 5841TIP3    H238939   4.323   0.152   1.848 -0.5232  1.4951  1.1306
 5842TIP3   OH238940   3.450   2.452  12.994  0.0060  0.2580 -0.4735
 5842TIP3    H138941   3.501   2.463  13.074 -1.1215 -0.5101  0.3791
 5842TIP3    H238942   3.507   2.485  12.925  1.8854 -1.0925  0.3538
 5843TIP3   OH238943   5.115   0.037   2.433 -0.4539  0.0141  0.6874
 5843TIP3    H138944   5.023   0.065   2.442 -0.1995  0.8159  0.9000
 5843TIP3    H238945   5.160   0.082   2.505  0.1903  0.0288  0.2781
 5844TIP3   OH238946   3.923   0.964   0.444  0.0097 -0.0969 -0.2930
 5844TIP3    H138947   3.968   0.899   0.390  0.1569 -1.1823  1.0539
 5844TIP3    H238948   3.994   1.009   0.490 -0.0595  1.4532 -1.6340
 5845TIP3   OH238949   2.878   4.327  14.683  0.6042  0.1131  0.0430
 5845TIP3    H138950   2.866   4.409  14.636 -0.1110 -0.1270 -0.2003
 5845TIP3    H238951   2.973   4.322  14.698  0.6226  1.1227  0.3300
 5846TIP3   OH238952   2.906   2.824  14.526 -1.0322 -0.3699 -0.4917
 5846TIP3    H138953   2.939   2.904  14.567 -0.3843 -0.8365 -0.0675
 5846TIP3    H238954   2.983   2.787  14.483 -1.3026 -0.8078 -0.6005
 5847TIP3   OH238955   6.060   4.036   5.584 -0.1848  0.0634  0.5324
 5847TIP3    H138956   6.122   3.970   5.614 -0.8299 -0.6277  0.3817
 5847TIP3    H238957   6.020   3.998   5.506  1.3600  1.7765 -1.1694
 5848TIP3   OH238958   3.784   0.633  14.769 -0.4930  0.3196 -0.1830
 5848TIP3    H138959   3.784   0.543  14.736 -0.0086  0.2065  0.1090
 5848TIP3    H238960   3.691   0.657  14.775 -0.6750 -0.5477  0.7539
 5849TIP3   OH238961   1.789   2.686  11.803  0.2751  0.4151 -0.1693
 5849TIP3    H138962   1.814   2.681  11.896  1.6122  1.1239 -0.4575
 5849TIP3    H238963   1.799   2.778  11.781  3.3235 -0.1546 -1.8322
 5850TIP3   OH238964   6.120   2.005  16.648 -0.4400  0.8584 -0.2551
 5850TIP3    H138965   6.150   2.030  16.561  0.1466  0.9617 -0.0229
 5850TIP3    H238966   6.196   1.966  16.691 -0.6136  1.1749  0.3602
 5851TIP3   OH238967   0.070   1.358  11.382 -0.1726  0.1647  0.7282
 5851TIP3    H138968   0.160   1.359  11.415  0.1255  1.2325 -0.0674
 5851TIP3    H238969   0.016   1.357  11.461  0.5268 -0.9333  1.2143
 5852TIP3   OH238970   0.179   1.885  10.680  0.1391  0.0579 -0.4782
 5852TIP3    H138971   0.094   1.899  10.723 -1.1555 -0.3081 -2.7453
 5852TIP3    H238972   0.159   1.888  10.586  2.8324  1.0204 -1.1100
 5853TIP3   OH238973   0.752   2.405  12.216 -0.1029  0.3347  0.1143
 5853TIP3    H138974   0.826   2.465  12.226  0.5310 -0.4415  0.1671
 5853TIP3    H238975   0.791   2.318  12.221 -0.9504 -0.0847 -0.3913
 5854TIP3   OH238976   4.491   1.702   0.708  0.0609  0.3570 -0.2340
 5854TIP3    H138977   4.462   1.624   0.661 -0.8587 -0.8606  2.1510
 5854TIP3    H238978   4.586   1.701   0.700 -0.0299 -0.1778 -1.4426
 5855TIP3   OH238979   2.876   3.994   3.236 -1.1459  0.3852 -0.2290
 5855TIP3    H138980   2.863   3.921   3.296 -0.5576  0.0007 -0.5583
 5855TIP3    H238981   2.968   3.989   3.212 -1.7363 -0.5503 -2.5391
 5856TIP3   OH238982   1.237   6.587   3.292  0.1820  0.5190 -0.1957
 5856TIP3    H138983   1.209   6.608   3.203  0.9508  0.8539 -0.3707
 5856TIP3    H238984   1.213   6.665   3.343 -0.0832  0.4060 -0.1465
 5857TIP3   OH238985   2.393   6.504  15.601  0.2406  0.1051 -0.5270
 5857TIP3    H138986   2.350   6.429  15.641  0.1654 -0.6056 -1.9015
 5857TIP3    H238987   2.474   6.514  15.651 -0.9836  0.8422  1.4298
 5858TIP3   OH238988   5.510   3.846   4.896 -0.2232 -0.0049  0.0314
 5858TIP3    H138989   5.504   3.751   4.906  1.0173 -0.4067 -2.2946
 5858TIP3    H238990   5.594   3.869   4.937 -0.0796 -0.0582 -0.2320
 5859TIP3   OH238991   1.183   3.757  13.402 -0.6236  0.2756  0.3099
 5859TIP3    H138992   1.246   3.688  13.381 -0.7088  0.6333 -1.1956
 5859TIP3    H238993   1.097   3.715  13.396 -0.6666  0.4624 -0.4392
 5860TIP3   OH238994   5.574   6.424   5.853 -0.0279  0.2598 -0.2492
 5860TIP3    H138995   5.597   6.333   5.872  0.9639  0.2114 -1.4914
 5860TIP3    H238996   5.603   6.473   5.929 -0.2938 -0.4242  0.3009
 5861TIP3   OH238997   6.276   4.626  13.428 -0.1305 -0.4441 -0.2517
 5861TIP3    H138998   6.219   4.692  13.390 -0.3833 -0.6618 -0.2588
 5861TIP3    H238999   6.227   4.544  13.418  1.4778 -1.2061 -3.1565
 5862TIP3   OH239000   2.991   5.083  15.139 -0.3398  1.0364  0.1602
 5862TIP3    H139001   2.927   5.013  15.129 -0.2919  1.1421 -1.1115
 5862TIP3    H239002   3.026   5.096  15.051  1.5652  0.8738  0.8439
 5863TIP3   OH239003   3.835   4.322   4.006 -0.2178  0.0728 -0.3588
 5863TIP3    H139004   3.876   4.268   3.938 -0.0971 -0.5844  0.2196
 5863TIP3    H239005   3.897   4.319   4.079 -1.3764 -1.1763  0.6471
 5864TIP3   OH239006   3.746   1.982   5.136  0.4192  0.4241  0.1573
 5864TIP3    H139007   3.793   1.910   5.178  0.9950 -0.1352 -1.3957
 5864TIP3    H239008   3.808   2.055   5.137  0.9299  0.0211 -0.8709
 5865TIP3   OH239009   0.618   4.785  14.004 -0.1288 -0.1621 -0.2054
 5865TIP3    H139010   0.607   4.694  13.979  0.3592 -0.1962 -0.2914
 5865TIP3    H239011   0.556   4.833  13.948 -2.1269 -0.6614  1.4479
 5866TIP3   OH239012   3.171   2.699   3.826 -0.2053 -0.0242 -0.0217
 5866TIP3    H139013   3.114   2.775   3.822 -0.4399 -0.2324 -2.5130
 5866TIP3    H239014   3.169   2.662   3.737  1.4937 -1.7516  0.5601
 5867TIP3   OH239015   5.618   2.871   1.658 -0.2644 -0.3207 -0.9100
 5867TIP3    H139016   5.607   2.814   1.734  0.3410  0.5827 -0.1139
 5867TIP3    H239017   5.710   2.859   1.632 -0.3539 -0.3088 -1.2321
 5868TIP3   OH239018   0.851   2.902  16.262  0.8100 -0.0897 -0.3681
 5868TIP3    H139019   0.901   2.914  16.343 -0.4239 -2.0243  0.7481
 5868TIP3    H239020   0.858   2.986  16.217  0.6523  1.4240  2.2387
 5869TIP3   OH239021   2.980   3.874   0.027 -0.1300 -0.0046 -0.3206
 5869TIP3    H139022   2.912   3.875  -0.041  2.7832 -2.5184 -3.6899
 5869TIP3    H239023   3.034   3.950   0.007  1.0462 -1.0573 -1.2537
 5870TIP3   OH239024   6.420   1.175   3.612 -0.1223 -0.1515 -0.0290
 5870TIP3    H139025   6.489   1.192   3.548  0.2182 -0.2890  0.2922
 5870TIP3    H239026   6.455   1.104   3.666 -0.9123 -0.8632 -0.4338
 5871TIP3   OH239027   2.011   1.676  15.878 -0.0438  0.0078  0.3168
 5871TIP3    H139028   2.018   1.748  15.815 -0.3429 -0.8168 -0.6960
 5871TIP3    H239029   1.931   1.695  15.927  0.0408  0.5097  0.2714
 5872TIP3   OH239030   4.463   3.293   0.567 -0.3572  0.0332 -0.1769
 5872TIP3    H139031   4.386   3.332   0.524 -1.9804 -2.6717  0.0209
 5872TIP3    H239032   4.453   3.198   0.552  2.2732 -0.5189  1.0048
 5873TIP3   OH239033   0.280   1.806   4.084  0.4303 -0.1640 -0.2562
 5873TIP3    H139034   0.261   1.860   4.161  0.1265 -0.1420 -0.3488
 5873TIP3    H239035   0.236   1.722   4.102 -1.3071  0.4855 -1.2785
 5874TIP3   OH239036   6.244   3.735  13.134 -0.1087 -0.3263 -0.2245
 5874TIP3    H139037   6.265   3.648  13.170 -1.1640 -0.2483  0.6019
 5874TIP3    H239038   6.313   3.792  13.168  0.5676 -0.8131 -0.7348
 5875TIP3   OH239039   3.731   4.403   6.167 -0.3096 -0.3039 -0.0749
 5875TIP3    H139040   3.709   4.355   6.247  1.2484 -0.8371  0.0657
 5875TIP3    H239041   3.785   4.342   6.117  0.0870  0.6156 -0.7996
 5876TIP3   OH239042   4.200   2.675   1.147 -0.3278 -0.0310  0.3683
 5876TIP3    H139043   4.295   2.667   1.158 -0.4650  0.2219  2.1118
 5876TIP3    H239044   4.186   2.766   1.121 -0.1140  0.0122  0.4052
 5877TIP3   OH239045   1.333   0.821  16.113  0.4511 -0.2507  0.2983
 5877TIP3    H139046   1.291   0.905  16.091 -0.4611  0.1950  3.2722
 5877TIP3    H239047   1.384   0.799  16.035 -1.8196  1.4139 -1.8405
 5878TIP3   OH239048   3.853   6.538  11.864 -0.1319  0.1874 -0.3018
 5878TIP3    H139049   3.834   6.543  11.770  1.7091  2.5937 -0.6493
 5878TIP3    H239050   3.935   6.489  11.869  0.8269  1.7431 -0.1900
 5879TIP3   OH239051   6.475   2.569  15.134  0.2953  0.4919  0.4336
 5879TIP3    H139052   6.497   2.501  15.198  1.8098 -0.1619 -0.7141
 5879TIP3    H239053   6.395   2.538  15.093  1.3609 -1.0382 -0.5899
 5880TIP3   OH239054   1.864   6.015   2.136 -0.6721 -0.7475 -0.2818
 5880TIP3    H139055   1.958   6.000   2.143 -0.5891 -0.1397 -0.0089
 5880TIP3    H239056   1.844   6.004   2.043 -0.3230 -0.8379 -0.3468
 5881TIP3   OH239057   5.002   2.372  11.913  0.1522  0.5262  0.5347
 5881TIP3    H139058   5.006   2.303  11.847  0.0604  1.1652 -0.1514
 5881TIP3    H239059   4.926   2.351  11.967  2.2381 -2.0784  2.8168
 5882TIP3   OH239060   2.684   6.415  13.508  0.0081 -0.3029  0.3096
 5882TIP3    H139061   2.620   6.413  13.579  0.6750 -1.5127  0.8950
 5882TIP3    H239062   2.762   6.455  13.546  0.8608 -2.2510  0.7276
 5883TIP3   OH239063   4.775   5.992   2.927  0.4156  0.2849  0.7832
 5883TIP3    H139064   4.855   6.044   2.936 -0.9169  2.9375 -1.4422
 5883TIP3    H239065   4.761   5.984   2.833 -1.5846 -0.7271  1.1032
 5884TIP3   OH239066   4.835   3.920   4.601 -0.3175  0.0539  0.4910
 5884TIP3    H139067   4.835   3.993   4.539  0.7179 -1.0933 -0.9075
 5884TIP3    H239068   4.772   3.858   4.565 -1.2186  0.2064  1.6950
 5885TIP3   OH239069   0.901   1.696   3.024 -0.4044  0.1568 -0.3333
 5885TIP3    H139070   0.944   1.713   2.940 -0.9961  1.6987 -0.3713
 5885TIP3    H239071   0.920   1.775   3.076  0.2624 -0.9289  1.1324
 5886TIP3   OH239072   6.539   0.555  16.416  0.0951  0.1732 -0.3686
 5886TIP3    H139073   6.546   0.472  16.463 -0.2249  0.7040  0.6450
 5886TIP3    H239074   6.615   0.555  16.357 -0.9409 -1.6771 -1.8241
 5887TIP3   OH239075   6.610   3.281  16.745  0.4723  0.3117 -0.3195
 5887TIP3    H139076   6.653   3.221  16.684  1.6954  0.1863  0.6065
 5887TIP3    H239077   6.678   3.345  16.767  0.4719 -0.3303  1.7899
 5888TIP3   OH239078   1.768   1.308  11.235  0.6618  0.2460  0.6025
 5888TIP3    H139079   1.766   1.351  11.149  1.7157 -0.4879  0.1904
 5888TIP3    H239080   1.676   1.295  11.257  0.3471  1.6205  0.1939
 5889TIP3   OH239081   3.560   2.626  13.773  0.2362 -0.4893  0.0574
 5889TIP3    H139082   3.637   2.671  13.739 -0.4811  0.2591 -0.5986
 5889TIP3    H239083   3.540   2.671  13.856  0.8671 -1.0993  0.5552
 5890TIP3   OH239084   2.806   4.736   1.910  0.0901  0.5984  0.3071
 5890TIP3    H139085   2.787   4.697   1.995  2.6706 -0.8223  0.3027
 5890TIP3    H239086   2.775   4.827   1.918 -3.9041 -0.6342  1.1161
 5891TIP3   OH239087   6.533   1.419  15.893  0.3113  0.1305  0.0939
 5891TIP3    H139088   6.563   1.447  15.806 -0.4457  0.6063 -0.0236
 5891TIP3    H239089   6.440   1.401  15.882  0.4040 -0.7038  0.6004
 5892TIP3   OH239090   4.673   2.376  15.583 -0.0815 -0.1660  0.0373
 5892TIP3    H139091   4.687   2.434  15.508 -0.1664 -1.3224 -0.9101
 5892TIP3    H239092   4.582   2.391  15.608 -0.1280  0.0559 -0.2500
 5893TIP3   OH239093   6.630   5.058  14.199 -0.1353 -0.0629 -0.3687
 5893TIP3    H139094   6.689   4.988  14.171  0.3581 -0.1949  0.9713
 5893TIP3    H239095   6.549   5.042  14.149  0.0962 -1.3719 -0.3456
 5894TIP3   OH239096   1.973   2.941  15.615 -0.7775 -0.4078 -0.0561
 5894TIP3    H139097   2.015   3.020  15.581 -0.1660 -1.1926 -1.1945
 5894TIP3    H239098   1.902   2.973  15.669 -1.2246  0.9271 -1.3648
 5895TIP3   OH239099   0.908   4.277   1.708  0.4295  0.4263  0.2980
 5895TIP3    H139100   0.999   4.288   1.680  0.7652 -2.6684 -0.2177
 5895TIP3    H239101   0.858   4.283   1.627  0.1352  2.0410  0.5709
 5896TIP3   OH239102   0.447   3.361   1.318  0.1990 -0.1422 -0.3787
 5896TIP3    H139103   0.508   3.420   1.274  1.0555  0.3193  1.3318
 5896TIP3    H239104   0.415   3.303   1.249  2.3150 -0.1841 -1.3905
 5897TIP3   OH239105   4.665   3.061   5.177  0.2442  0.7070 -0.4572
 5897TIP3    H139106   4.715   3.098   5.251 -1.7155  0.0605  1.2841
 5897TIP3    H239107   4.698   3.108   5.101  2.2164  1.5761  0.8308
 5898TIP3   OH239108   5.454   4.112  13.947  0.1668 -0.0006 -0.1893
 5898TIP3    H139109   5.518   4.176  13.977 -1.9463  2.1441  0.1104
 5898TIP3    H239110   5.414   4.153  13.871 -1.2429 -0.9731 -0.0074
 5899TIP3   OH239111   3.407   2.824  11.588  0.2099 -0.3807  0.1415
 5899TIP3    H139112   3.320   2.801  11.557  0.7209 -0.1884 -1.5228
 5899TIP3    H239113   3.443   2.880  11.519  1.4199  0.0739  1.0960
 5900TIP3   OH239114   4.862   5.922   5.236 -0.1033  0.2052 -0.3821
 5900TIP3    H139115   4.910   5.941   5.155 -0.3378 -1.8600 -1.0715
 5900TIP3    H239116   4.892   5.835   5.261 -1.0713  0.2434  0.9945
 5901TIP3   OH239117   2.027   1.705   3.080 -0.0576 -0.1231 -0.0767
 5901TIP3    H139118   1.976   1.652   3.018  0.2487  1.7493 -2.0320
 5901TIP3    H239119   1.968   1.776   3.104  1.2823  1.7431 -1.9177
 5902TIP3   OH239120   4.116   0.849  13.868  0.1512 -0.1128  0.0831
 5902TIP3    H139121   4.119   0.762  13.908 -1.7270 -0.7099 -0.9724
 5902TIP3    H239122   4.026   0.879  13.882 -0.4976 -0.1751 -3.2665
 5903TIP3   OH239123   2.674   6.613  14.592  0.3188 -0.1935 -0.2938
 5903TIP3    H139124   2.767   6.601  14.572  0.5352  2.4389 -1.2830
 5903TIP3    H239125   2.629   6.593  14.510  0.2334  0.6186 -0.4510
 5904TIP3   OH239126   2.684   6.671   2.599 -0.0360 -0.6998 -0.3499
 5904TIP3    H139127   2.666   6.665   2.692  0.1351  1.4947 -0.1242
 5904TIP3    H239128   2.611   6.723   2.564  1.1726  0.5966 -0.9968
 5905TIP3   OH239129   1.407   1.995   4.649  0.1140  0.1956  0.3320
 5905TIP3    H139130   1.421   1.913   4.601 -2.1228  0.4798 -0.9586
 5905TIP3    H239131   1.415   2.063   4.582 -2.0966  0.6724  0.4820
 5906TIP3   OH239132   2.928   5.036   0.598 -0.1580 -0.3380 -0.0284
 5906TIP3    H139133   3.023   5.040   0.610 -0.1450 -1.1235  0.2308
 5906TIP3    H239134   2.894   5.016   0.686 -0.5952  0.2892 -0.0485
 5907TIP3   OH239135   0.550   2.243  15.836  0.4396  0.2701 -0.0533
 5907TIP3    H139136   0.630   2.285  15.805  1.1268 -1.0372 -0.1252
 5907TIP3    H239137   0.580   2.162  15.879 -0.9447 -1.5166 -2.2171
 5908TIP3   OH239138   3.934   5.130   3.011 -0.2145  0.1660  0.2815
 5908TIP3    H139139   4.027   5.147   3.030  0.1923 -0.5180 -0.9689
 5908TIP3    H239140   3.919   5.173   2.927 -0.7343 -0.6284 -0.0409
 5909TIP3   OH239141   0.162   0.509   6.571  0.1570 -0.1345  0.2360
 5909TIP3    H139142   0.235   0.539   6.517  0.4807  1.0276  1.2589
 5909TIP3    H239143   0.131   0.430   6.528  0.1174  0.9606 -1.8982
 5910TIP3   OH239144   6.374   4.458   3.088 -0.0554 -0.0128 -0.1427
 5910TIP3    H139145   6.320   4.385   3.059 -0.4649  0.7869 -1.4810
 5910TIP3    H239146   6.314   4.534   3.086  0.7657  0.6438 -0.3442
 5911TIP3   OH239147   4.649   0.066   2.558 -0.1296  0.4787  0.3212
 5911TIP3    H139148   4.555   0.082   2.564 -0.1130  0.4188  0.7710
 5911TIP3    H239149   4.656  -0.019   2.514 -0.2483  1.0380 -0.8139
 5912TIP3   OH239150   0.748   3.292  15.611 -0.0525  0.5130  0.2450
 5912TIP3    H139151   0.769   3.305  15.519  0.9750 -0.1096  0.3778
 5912TIP3    H239152   0.798   3.360  15.656 -0.9163  1.1154  0.3224
 5913TIP3   OH239153   1.052   6.365  15.584 -0.3286  0.5664  0.5784
 5913TIP3    H139154   1.106   6.444  15.586  0.6838 -0.1043  0.4744
 5913TIP3    H239155   1.087   6.310  15.654  1.0730 -1.0892 -1.3163
 5914TIP3   OH239156   0.129   4.450  16.036  0.6237  0.7547  0.6497
 5914TIP3    H139157   0.179   4.443  16.117  1.5070 -2.9942 -0.0327
 5914TIP3    H239158   0.040   4.424  16.060 -0.0032  2.9877  0.9745
 5915TIP3   OH239159   4.137   0.608   1.145  0.1393  0.0269 -0.7816
 5915TIP3    H139160   4.081   0.653   1.208 -1.0393 -2.7134  0.2850
 5915TIP3    H239161   4.209   0.669   1.128 -1.5609  2.4340  0.1616
 5916TIP3   OH239162   6.045   3.289  12.572 -0.3033 -0.3601 -0.0313
 5916TIP3    H139163   5.996   3.229  12.628 -1.1448  0.0784 -0.2813
 5916TIP3    H239164   6.045   3.372  12.620 -1.0795  0.0356 -0.6918
 5917TIP3   OH239165   1.417   4.656   5.294 -0.2575 -0.2628  0.6368
 5917TIP3    H139166   1.422   4.581   5.353  0.8279  0.2500  1.2267
 5917TIP3    H239167   1.474   4.631   5.220 -1.3967 -0.7896 -0.0904
 5918TIP3   OH239168   1.286   4.564   0.611 -0.8506  0.5515  0.2672
 5918TIP3    H139169   1.297   4.469   0.608 -1.6436  0.4130  1.1711
 5918TIP3    H239170   1.286   4.585   0.705 -1.4585  1.3327  0.1016
 5919TIP3   OH239171   3.262   0.927   0.837  0.2070 -0.6898 -0.1488
 5919TIP3    H139172   3.185   0.873   0.818  0.1985 -0.7980  0.1777
 5919TIP3    H239173   3.336   0.868   0.823  0.2658 -0.4055 -1.0786
 5920TIP3   OH239174   2.789   4.278   5.310 -0.7601  0.0734  0.3144
 5920TIP3    H139175   2.879   4.280   5.343 -1.3601  0.4237  2.0362
 5920TIP3    H239176   2.792   4.329   5.229  0.3418  1.2708  1.0630
 5921TIP3   OH239177   3.349   2.032   0.855  0.0452 -0.3757  0.2224
 5921TIP3    H139178   3.379   2.109   0.805  0.9008 -2.0612 -2.0523
 5921TIP3    H239179   3.430   1.991   0.885 -0.4118 -0.3334  1.5624
 5922TIP3   OH239180   5.344   3.439  14.196  0.1390 -0.1934 -0.0742
 5922TIP3    H139181   5.300   3.388  14.265 -0.6910  1.5665  0.7530
 5922TIP3    H239182   5.423   3.389  14.177  0.4115 -0.7577  2.1805
 5923TIP3   OH239183   2.164   3.435   5.747 -0.3860  0.5447  0.3170
 5923TIP3    H139184   2.223   3.456   5.674 -0.8931  0.1000 -0.2250
 5923TIP3    H239185   2.093   3.386   5.707 -2.1006  2.6094  0.6473
 5924TIP3   OH239186   4.425   2.696  11.090 -0.1932  0.1846 -0.3223
 5924TIP3    H139187   4.356   2.755  11.120 -0.5461  0.1554 -1.0365
 5924TIP3    H239188   4.380   2.636  11.030  0.1108 -0.9555  0.5507
 5925TIP3   OH239189   1.797   3.648   6.197  0.0719  0.3000  0.7016
 5925TIP3    H139190   1.731   3.671   6.132  0.1770 -0.0814  0.4624
 5925TIP3    H239191   1.841   3.731   6.217  1.9186  0.0209 -1.7506
 5926TIP3   OH239192   3.119   3.600   1.934  0.2294 -0.4547 -0.0057
 5926TIP3    H139193   3.206   3.639   1.932  0.6478 -1.2735 -2.7684
 5926TIP3    H239194   3.073   3.641   1.861 -0.7894 -1.8945 -0.2145
 5927TIP3   OH239195   4.694   5.411   3.649 -0.2456 -0.2043  0.0301
 5927TIP3    H139196   4.739   5.333   3.617 -1.3453 -1.8763  2.2571
 5927TIP3    H239197   4.676   5.463   3.571  1.7882 -1.4767 -1.3624
 5928TIP3   OH239198   4.782   2.114  13.377 -0.4860  0.8022  0.6659
 5928TIP3    H139199   4.849   2.102  13.310  1.8061  0.3762  2.9062
 5928TIP3    H239200   4.750   2.026  13.396 -0.1641  0.7689  1.0624
 5929TIP3   OH239201   0.478   6.789  11.535 -0.3387  0.2389  0.5650
 5929TIP3    H139202   0.447   6.879  11.527  0.1779  0.3072 -1.4391
 5929TIP3    H239203   0.418   6.738  11.481  1.0035 -0.1233 -0.6783
 5930TIP3   OH239204   6.640   6.342  12.579 -0.3578 -0.4563  0.3740
 5930TIP3    H139205   6.714   6.333  12.518  0.0645  0.9455  0.6396
 5930TIP3    H239206   6.571   6.288  12.540 -0.5021  1.2827 -2.0138
 5931TIP3   OH239207   0.122   1.642   4.323  0.1921  0.4210  0.4002
 5931TIP3    H139208   0.166   1.696   4.389  2.0604 -0.3389 -0.1554
 5931TIP3    H239209   0.185   1.573   4.302 -0.5081  0.3812 -1.8764
 5932TIP3   OH239210   4.739   0.493  15.580 -0.6687  0.5397 -0.4939
 5932TIP3    H139211   4.789   0.414  15.559  1.0536  1.6344 -0.7553
 5932TIP3    H239212   4.735   0.542  15.498  1.2524  2.2504  0.3430
 5933TIP3   OH239213   6.347   2.386  16.585 -0.1909  0.0494  0.5259
 5933TIP3    H139214   6.320   2.407  16.674 -0.5691 -1.0429  0.6814
 5933TIP3    H239215   6.410   2.455  16.562 -0.0511  0.3122  1.6434
 5934TIP3   OH239216   4.887   4.938  12.246  0.3496 -0.1873  0.7212
 5934TIP3    H139217   4.974   4.972  12.263  0.3391 -0.2318  0.8638
 5934TIP3    H239218   4.828   5.012  12.260  0.4362  0.0510 -0.1649
 5935TIP3   OH239219   0.496   5.903  15.485  0.1949 -0.1002  0.0945
 5935TIP3    H139220   0.513   5.994  15.460  0.5348 -0.1671  0.0754
 5935TIP3    H239221   0.583   5.864  15.495  0.0607 -0.8277 -1.3480
 5936TIP3   OH239222   3.739   5.949  14.876 -0.3250 -0.4767 -0.2493
 5936TIP3    H139223   3.654   5.988  14.853  0.1642  0.7599 -0.0655
 5936TIP3    H239224   3.759   5.986  14.962  0.4726 -0.6303 -0.3606
 5937TIP3   OH239225   5.248   3.158  11.373 -0.3907 -0.1376 -0.0250
 5937TIP3    H139226   5.251   3.205  11.457  1.6638  0.1341 -0.1950
 5937TIP3    H239227   5.201   3.077  11.393 -2.1894  1.0523  0.7628
 5938TIP3   OH239228   6.012   2.265  11.261  0.8710  0.3993  0.0350
 5938TIP3    H139229   6.053   2.200  11.205  0.1255  1.1744 -1.4799
 5938TIP3    H239230   6.082   2.294  11.320  0.8949 -2.6366  1.6651
 5939TIP3   OH239231   0.845   6.243   3.048  0.1473  0.1202 -0.2664
 5939TIP3    H139232   0.788   6.313   3.016 -1.5449 -1.2506 -0.3548
 5939TIP3    H239233   0.921   6.290   3.085 -1.7812  2.1279  1.4303
 5940TIP3   OH239234   4.035   4.510  13.532  0.1462  0.3787 -0.0020
 5940TIP3    H139235   3.944   4.519  13.504  0.1472 -0.6171 -0.3470
 5940TIP3    H239236   4.045   4.575  13.602 -0.9944  0.0998  0.4289
 5941TIP3   OH239237   5.707   1.855   6.046 -0.1243 -0.0396 -0.2342
 5941TIP3    H139238   5.686   1.893   6.131 -2.8123  0.7599 -1.1622
 5941TIP3    H239239   5.798   1.882   6.029  0.3633  0.0183  2.2067
 5942TIP3   OH239240   1.054   4.250   0.061 -0.4502 -0.2596 -0.2015
 5942TIP3    H139241   1.092   4.337   0.070  1.5890 -1.1035 -0.2098
 5942TIP3    H239242   0.990   4.259  -0.010  0.8518  0.8814 -1.2892
 5943TIP3   OH239243   0.391   5.706  10.947 -0.0547  0.2648 -0.0339
 5943TIP3    H139244   0.446   5.630  10.964 -0.3538 -0.5364 -2.3134
 5943TIP3    H239245   0.379   5.707  10.852 -1.4653  2.1790  0.0936
 5944TIP3   OH239246   0.308   5.578   0.678  0.1971  0.1889  0.1036
 5944TIP3    H139247   0.341   5.497   0.717  3.0757  1.5106  0.6710
 5944TIP3    H239248   0.243   5.610   0.741 -0.3595 -1.2363  0.2792
 5945TIP3   OH239249   5.263   4.326  10.600  0.2057  0.1568  0.2694
 5945TIP3    H139250   5.216   4.273  10.536 -0.4607  1.1553 -0.0895
 5945TIP3    H239251   5.194   4.369  10.651  0.7252  1.2759  0.0418
 5946TIP3   OH239252   4.490   6.343   1.893  0.1624  0.2652  0.2789
 5946TIP3    H139253   4.522   6.296   1.969 -0.9755  1.5222  1.6058
 5946TIP3    H239254   4.547   6.316   1.821  0.2184 -2.2571  1.1772
 5947TIP3   OH239255   0.431   5.470   6.220 -0.2319  0.1689  0.6558
 5947TIP3    H139256   0.490   5.517   6.161  1.0332 -1.4805  0.5224
 5947TIP3    H239257   0.487   5.444   6.294 -1.1216 -0.2696  1.1946
 5948TIP3   OH239258   1.716   3.129   2.970 -0.5650  0.6193  0.0113
 5948TIP3    H139259   1.807   3.131   3.002 -0.5328  0.4506 -0.0642
 5948TIP3    H239260   1.677   3.055   3.017 -1.0304  1.4759  1.0054
 5949TIP3   OH239261   5.025   0.352  13.426 -0.1753  0.5357 -0.6244
 5949TIP3    H139262   4.996   0.261  13.423  0.1573  0.4171 -0.3249
 5949TIP3    H239263   5.084   0.357  13.502 -1.6364  1.4437  0.4967
 5950TIP3   OH239264   1.828   0.087   1.731 -0.7079 -0.7492  0.2729
 5950TIP3    H139265   1.788   0.056   1.650 -0.3248  0.4286 -0.3808
 5950TIP3    H239266   1.910   0.129   1.703 -0.7108 -0.0702  1.2375
 5951TIP3   OH239267   0.541   4.154   0.752  0.1840  0.7003  0.3249
 5951TIP3    H139268   0.527   4.176   0.845 -0.2781  0.6001  0.2824
 5951TIP3    H239269   0.456   4.119   0.723  0.3651  0.6140 -0.1026
 5952TIP3   OH239270   6.613   4.318  16.950  0.5738 -0.2081 -0.6688
 5952TIP3    H139271   6.660   4.330  17.032  0.9614  0.6463 -1.0082
 5952TIP3    H239272   6.523   4.298  16.976  0.5850  0.5310 -0.0430
 5953TIP3   OH239273   0.715   0.482  14.824 -0.0288  0.2968 -0.0698
 5953TIP3    H139274   0.775   0.418  14.860  0.5660 -0.3697 -2.1331
 5953TIP3    H239275   0.629   0.459  14.861 -0.0684 -2.4896 -1.6539
 5954TIP3   OH239276   1.530   3.725   0.341 -0.4257 -0.1219  0.2744
 5954TIP3    H139277   1.472   3.781   0.392  0.4250  0.2812  0.8149
 5954TIP3    H239278   1.607   3.779   0.323 -1.0875  0.0824 -2.2882
 5955TIP3   OH239279   0.244   1.963   2.312 -0.0901  0.1423 -0.0730
 5955TIP3    H139280   0.205   1.930   2.393  4.1893 -2.3092  1.2854
 5955TIP3    H239281   0.172   1.960   2.248 -2.2510 -3.5198  2.1942
 5956TIP3   OH239282   0.161   3.872   3.236 -0.0351  0.3531 -0.5549
 5956TIP3    H139283   0.084   3.880   3.293  0.2009 -1.6860  0.1680
 5956TIP3    H239284   0.126   3.840   3.153 -0.2024  1.7978 -1.0668
 5957TIP3   OH239285   0.040   3.734  14.693  0.4617 -0.7144  0.2857
 5957TIP3    H139286  -0.028   3.752  14.628 -1.1655 -2.2740  1.4606
 5957TIP3    H239287   0.105   3.682  14.647  0.3133 -0.1563 -0.5734
 5958TIP3   OH239288   0.111   2.397   3.004  0.1774 -0.0408 -0.0824
 5958TIP3    H139289   0.027   2.442   2.993 -0.0847 -0.5441 -0.1744
 5958TIP3    H239290   0.163   2.425   2.929  0.4305  0.9958  0.4609
 5959TIP3   OH239291   5.167   0.250   5.773 -0.0165 -0.1216  0.0824
 5959TIP3    H139292   5.229   0.316   5.804 -0.1605  0.6562 -1.2051
 5959TIP3    H239293   5.218   0.193   5.716 -0.5327  0.7877 -1.3454
 5960TIP3   OH239294   6.451   1.939   1.836 -0.5821  0.0564  0.6123
 5960TIP3    H139295   6.449   1.960   1.929 -1.8951 -1.5418  0.9913
 5960TIP3    H239296   6.513   1.867   1.829 -0.2322  0.3945  0.1870
 5961TIP3   OH239297   3.103   6.572   3.336  0.6649 -0.9022  0.4687
 5961TIP3    H139298   3.156   6.493   3.330  0.6201 -0.8549 -0.8506
 5961TIP3    H239299   3.145   6.635   3.277 -1.0850 -1.0337 -1.0407
 5962TIP3   OH239300   5.304   5.455   0.724 -0.4151 -0.3646  0.1972
 5962TIP3    H139301   5.335   5.545   0.722  0.2133 -0.5779  0.0811
 5962TIP3    H239302   5.292   5.435   0.817  1.3433 -0.7862  0.3633
 5963TIP3   OH239303   5.731   4.845  16.521 -0.2458  0.1763 -0.1664
 5963TIP3    H139304   5.679   4.843  16.601 -0.9116  1.4245 -0.5347
 5963TIP3    H239305   5.693   4.776  16.466 -2.6787  2.1064 -1.0740
 5964TIP3   OH239306   5.925   0.117  12.623 -0.1298  0.2606 -0.0976
 5964TIP3    H139307   5.989   0.057  12.583 -1.0935 -0.6242 -0.3619
 5964TIP3    H239308   5.845   0.064  12.631 -1.3508  1.8230 -1.3785
 5965TIP3   OH239309   3.359   5.889   3.834  0.0716 -0.0766  0.8020
 5965TIP3    H139310   3.443   5.858   3.866  0.8653 -0.0479 -1.1639
 5965TIP3    H239311   3.328   5.948   3.902  0.4694 -1.9017  2.6892
 5966TIP3   OH239312   4.676   2.344   5.904 -0.5167  0.2530 -0.0473
 5966TIP3    H139313   4.741   2.275   5.894  0.8228  1.6610 -2.1486
 5966TIP3    H239314   4.638   2.330   5.990  2.1998 -0.9841  1.0656
 5967TIP3   OH239315   3.431   4.056   5.032 -0.3558  0.0764 -0.4809
 5967TIP3    H139316   3.469   3.970   5.016  0.6007  0.4944 -0.5401
 5967TIP3    H239317   3.343   4.038   5.066  1.7780 -1.2712  5.7278
 5968TIP3   OH239318   1.861   6.782   0.363  0.0976 -0.1820  0.3188
 5968TIP3    H139319   1.909   6.833   0.429  0.3013 -1.3253  1.0834
 5968TIP3    H239320   1.870   6.833   0.283  2.1548 -0.0818  0.5495
 5969TIP3   OH239321   4.719   1.993   1.615 -0.4260 -0.0043 -0.7520
 5969TIP3    H139322   4.741   1.940   1.539 -0.7804 -0.6971 -0.3793
 5969TIP3    H239323   4.629   1.970   1.636 -0.4582  0.4636 -0.3497
 5970TIP3   OH239324   6.265   6.042   3.974  0.1373 -0.0187 -0.5422
 5970TIP3    H139325   6.291   6.080   4.058  1.4255 -1.5455 -0.2171
 5970TIP3    H239326   6.170   6.053   3.972  0.0512 -0.1551  1.2247
 5971TIP3   OH239327   5.581   2.192   0.907 -0.1213  0.7698  0.5217
 5971TIP3    H139328   5.629   2.273   0.894  1.6454 -0.3791 -0.4945
 5971TIP3    H239329   5.538   2.203   0.992 -1.0934  3.2805 -0.1971
 5972TIP3   OH239330   0.475   6.652   2.453 -0.1329  0.0557 -0.1869
 5972TIP3    H139331   0.425   6.615   2.380 -0.3142 -0.9519  0.4269
 5972TIP3    H239332   0.461   6.590   2.525 -1.0116  1.6548  1.0996
 5973TIP3   OH239333   2.490   6.019  14.831  0.5998  0.0143 -0.5816
 5973TIP3    H139334   2.501   5.948  14.767  1.5750 -0.0312 -0.3805
 5973TIP3    H239335   2.575   6.063  14.833  0.7163 -0.2108  0.9411
 5974TIP3   OH239336   2.712   2.025  12.230  0.3156  0.2722  0.2119
 5974TIP3    H139337   2.758   2.016  12.313  2.4245 -0.1514 -0.9450
 5974TIP3    H239338   2.765   2.086  12.180 -0.0388 -0.6956 -1.4011
 5975TIP3   OH239339   0.140   0.131   5.263  0.5118  0.5891 -0.0930
 5975TIP3    H139340   0.220   0.081   5.253  0.9935  0.9347  1.7231
 5975TIP3    H239341   0.084   0.077   5.319 -0.5380  0.3803 -1.2803
 5976TIP3   OH239342   1.143   6.684   4.480 -0.1410  1.2199 -0.1954
 5976TIP3    H139343   1.231   6.688   4.516  0.2423  0.4996 -1.0319
 5976TIP3    H239344   1.111   6.774   4.485 -0.1978  1.1510  2.1313
 5977TIP3   OH239345   6.654   2.793   5.886 -0.7987 -0.1840  0.4030
 5977TIP3    H139346   6.647   2.796   5.982 -0.6065 -0.7857  0.4431
 5977TIP3    H239347   6.649   2.699   5.865 -0.1393 -0.1038 -0.1269
 5978TIP3   OH239348   3.525   4.354   1.085 -0.3071  0.1773 -0.1972
 5978TIP3    H139349   3.542   4.425   1.148  0.9821 -0.5599  0.3195
 5978TIP3    H239350   3.593   4.365   1.018 -0.6616 -0.0276 -0.5910
 5979TIP3   OH239351   0.481   6.017  15.154  0.3137 -0.2182 -0.6115
 5979TIP3    H139352   0.505   6.040  15.244  1.2858 -1.3220 -0.5707
 5979TIP3    H239353   0.505   6.094  15.102  1.2801 -0.1982 -0.1486
 5980TIP3   OH239354   1.816   2.007  16.160 -0.4090  0.0666 -0.4548
 5980TIP3    H139355   1.862   2.090  16.170 -0.7866  0.2272 -0.0423
 5980TIP3    H239356   1.827   1.984  16.068  0.3186  0.2067 -0.4051
 5981TIP3   OH239357   6.766   0.251   6.216  0.2344  0.8174  0.1762
 5981TIP3    H139358   6.690   0.192   6.220  1.8632 -1.3603  2.3234
 5981TIP3    H239359   6.771   0.289   6.303  2.6532 -0.6574  0.7813
 5982TIP3   OH239360   2.785   5.978   1.050  0.5914  0.4598  0.0637
 5982TIP3    H139361   2.715   6.028   1.008 -0.5027 -1.0979 -0.0367
 5982TIP3    H239362   2.861   5.992   0.994 -0.6273 -0.9094 -2.0937
 5983TIP3   OH239363   6.540   5.419  15.152  0.6755 -0.2037  0.1559
 5983TIP3    H139364   6.476   5.487  15.130  0.6216 -0.0166  0.8667
 5983TIP3    H239365   6.523   5.349  15.089 -0.6534 -0.4142  0.7198
 5984TIP3   OH239366   6.051   3.287   3.115  0.1990 -0.0867  0.9265
 5984TIP3    H139367   6.034   3.321   3.203 -0.1504  0.8957  0.4925
 5984TIP3    H239368   5.991   3.335   3.059  2.8170  1.9467 -0.3610
 5985TIP3   OH239369   5.471   5.168  13.585  0.1298  0.2880 -0.3105
 5985TIP3    H139370   5.484   5.103  13.516 -1.2755 -1.1735  0.7271
 5985TIP3    H239371   5.557   5.208  13.597  1.3207 -2.1298 -0.2881
 5986TIP3   OH239372   6.003   3.136   4.644  0.5121 -0.3148  0.1981
 5986TIP3    H139373   5.927   3.079   4.638  0.1170  0.3268 -1.2469
 5986TIP3    H239374   5.968   3.220   4.676  1.2645 -1.1141  3.5225
 5987TIP3   OH239375   5.788   1.414  15.715 -0.0454 -0.6784 -0.0262
 5987TIP3    H139376   5.801   1.424  15.621  1.1172 -1.6106  0.0056
 5987TIP3    H239377   5.796   1.319  15.730 -0.3215 -0.5507  0.9854
 5988TIP3   OH239378   1.619   4.584  12.306  0.3187  0.2203 -0.7379
 5988TIP3    H139379   1.571   4.505  12.330  0.6486 -0.3128 -1.7938
 5988TIP3    H239380   1.704   4.575  12.350  1.6384 -1.6468 -3.3902
 5989TIP3   OH239381   5.679   2.616   3.549 -0.3330 -0.0707 -0.3832
 5989TIP3    H139382   5.631   2.698   3.535 -1.0934 -0.0575  1.8450
 5989TIP3    H239383   5.613   2.548   3.537 -0.6503 -0.1207  1.3657
 5990TIP3   OH239384   6.286   2.242  15.598 -0.0504  0.2170 -0.2898
 5990TIP3    H139385   6.267   2.312  15.660 -0.8270  2.2817 -2.6639
 5990TIP3    H239386   6.314   2.288  15.518 -0.5803 -2.1716 -1.9652
 5991TIP3   OH239387   1.677   5.217   0.975  0.1809 -0.5501 -0.0343
 5991TIP3    H139388   1.767   5.190   0.994  1.1683  2.1399 -0.5115
 5991TIP3    H239389   1.667   5.300   1.021 -1.2874  0.2962 -1.7613
 5992TIP3   OH239390   6.343   6.619   5.151 -0.6680 -0.0911  0.1843
 5992TIP3    H139391   6.311   6.707   5.133  0.6031  0.1596 -0.9679
 5992TIP3    H239392   6.263   6.565   5.155 -1.4012  0.9497  0.0668
 5993TIP3   OH239393   1.727   0.771   6.314 -0.0873  0.3634  0.2603
 5993TIP3    H139394   1.816   0.738   6.300 -0.4837 -0.8043  0.3597
 5993TIP3    H239395   1.721   0.850   6.260 -0.1119 -1.4597 -2.6144
 5994TIP3   OH239396   0.485   1.849  14.588 -0.0155  0.1176 -0.1697
 5994TIP3    H139397   0.503   1.941  14.567 -0.5450  0.2558 -0.0259
 5994TIP3    H239398   0.454   1.811  14.506 -1.7892  0.5822  0.2459
 5995TIP3   OH239399   3.696   1.826  14.178 -0.6788  0.0105  0.2600
 5995TIP3    H139400   3.703   1.783  14.263  0.4339 -2.1383 -0.8433
 5995TIP3    H239401   3.662   1.758  14.119 -2.0390  1.6260 -0.9223
 5996TIP3   OH239402   4.491   2.409   1.294  0.0946 -0.2546  0.5002
 5996TIP3    H139403   4.414   2.359   1.267 -0.1811  0.5665 -0.2837
 5996TIP3    H239404   4.533   2.354   1.360 -1.5774 -0.3779  1.5191
 5997TIP3   OH239405   1.536   4.828   5.662 -0.0523 -0.3135 -0.4917
 5997TIP3    H139406   1.516   4.829   5.756 -1.0630 -0.0453 -0.7007
 5997TIP3    H239407   1.583   4.746   5.648  2.7266  0.9114  0.7602
 5998TIP3   OH239408   3.536   0.258  14.405 -0.6276 -0.4282 -0.5283
 5998TIP3    H139409   3.528   0.224  14.495 -0.2488 -0.5260 -0.5306
 5998TIP3    H239410   3.473   0.330  14.402  0.5677  0.7038  0.3602
 5999TIP3   OH239411   4.970   6.193   5.695 -0.1978  0.4430  0.2526
 5999TIP3    H139412   4.917   6.124   5.654 -1.3420  1.0227  0.7080
 5999TIP3    H239413   4.968   6.172   5.789  0.6401  0.3043  0.2435
 6000TIP3   OH239414   0.586   1.519   0.640  0.4070 -0.3130  0.3103
 6000TIP3    H139415   0.541   1.588   0.592  0.1736  0.5210  1.6782
 6000TIP3    H239416   0.518   1.474   0.689  0.6236 -1.2361 -0.2050
 6001TIP3   OH239417   0.635   2.739  15.051 -0.7594  0.5534  0.8555
 6001TIP3    H139418   0.630   2.786  15.134  0.9386 -0.4770  1.6060
 6001TIP3    H239419   0.567   2.671  15.058  0.0280 -0.1652  1.8748
 6002TIP3   OH239420   4.962   2.628  16.368 -0.3836  0.2873  0.4943
 6002TIP3    H139421   4.879   2.675  16.356 -1.3369 -1.6039 -0.8346
 6002TIP3    H239422   4.955   2.590  16.456 -1.6170 -1.0415 -0.1317
 6003TIP3   OH239423   2.960   4.111   2.140  0.0897 -0.4416 -0.3425
 6003TIP3    H139424   2.882   4.097   2.087 -0.3282 -1.2109  0.4539
 6003TIP3    H239425   2.934   4.084   2.228  0.7431  0.8589  0.2864
 6004TIP3   OH239426   4.013   1.154  13.528  0.0243  0.1997  0.1233
 6004TIP3    H139427   3.942   1.212  13.553  0.7167  0.7219  0.9489
 6004TIP3    H239428   3.975   1.066  13.532 -0.7338  0.5166 -0.0489
 6005TIP3   OH239429   3.610   0.837  16.960 -0.3706  0.1139  0.6410
 6005TIP3    H139430   3.572   0.753  16.985 -0.5921  0.8062  2.7815
 6005TIP3    H239431   3.536   0.897  16.955 -0.0166  0.5669  0.8096
 6006TIP3   OH239432   1.172   4.606   5.568  0.0783  0.2280  0.1381
 6006TIP3    H139433   1.267   4.603   5.585  0.4059  2.8269 -0.7242
 6006TIP3    H239434   1.134   4.633   5.651  0.3990  1.5562 -0.1219
 6007TIP3   OH239435   1.048   4.412  13.843  0.1324 -0.1519 -0.0460
 6007TIP3    H139436   1.125   4.427  13.898  0.8805 -0.7340 -0.9078
 6007TIP3    H239437   0.984   4.371  13.902  0.6836 -0.1744  0.5446
 6008TIP3   OH239438   2.811   6.433   4.546  0.7276 -0.2737 -0.2782
 6008TIP3    H139439   2.906   6.431   4.543  0.6949 -1.2787 -1.1979
 6008TIP3    H239440   2.785   6.462   4.459  0.1940  0.7952  0.2191
 6009TIP3   OH239441   4.374   4.172   3.685  0.2317 -0.1556  0.2592
 6009TIP3    H139442   4.297   4.127   3.721  0.4949  0.0141  1.0457
 6009TIP3    H239443   4.351   4.265   3.687  0.3837 -0.1187  0.3262
 6010TIP3   OH239444   1.416   5.045  14.565 -0.3721 -0.4776 -0.2268
 6010TIP3    H139445   1.377   5.092  14.492  0.4797 -0.7371 -0.8615
 6010TIP3    H239446   1.486   5.102  14.596 -0.3701 -0.6177  0.0285
 6011TIP3   OH239447   2.652   3.004  12.434 -0.0790 -0.0275 -0.3668
 6011TIP3    H139448   2.674   2.915  12.409 -0.1467  0.0277 -0.6302
 6011TIP3    H239449   2.585   2.994  12.501  0.8583 -0.1977  0.5658
 6012TIP3   OH239450   3.407   4.489  11.579 -0.7388  0.9479  0.2999
 6012TIP3    H139451   3.327   4.469  11.530 -2.0876  1.5249  2.1128
 6012TIP3    H239452   3.457   4.408  11.579 -2.3005 -0.0633  0.7827
 6013TIP3   OH239453   1.734   6.102   2.574 -0.3320  0.1754  0.0800
 6013TIP3    H139454   1.726   6.138   2.486 -1.0038 -1.3298 -0.5164
 6013TIP3    H239455   1.648   6.063   2.592 -1.2792  3.0061  2.6372
 6014TIP3   OH239456   3.740   1.786   3.180 -0.1523  0.2671  0.2277
 6014TIP3    H139457   3.725   1.845   3.106 -1.2232 -0.2911 -0.0289
 6014TIP3    H239458   3.733   1.841   3.257 -0.7551  0.5626 -0.0268
 6015TIP3   OH239459   0.749   6.430  12.925 -0.1886 -0.2119 -0.7265
 6015TIP3    H139460   0.799   6.504  12.959 -0.2964 -0.0968 -0.8189
 6015TIP3    H239461   0.727   6.378  13.002 -0.2666 -0.0543 -0.6437
 6016TIP3   OH239462   6.405   2.924  12.846 -0.2729 -0.1444 -0.0196
 6016TIP3    H139463   6.482   2.910  12.901  0.3037  1.0837 -0.4857
 6016TIP3    H239464   6.369   3.007  12.876  0.2828  0.7496 -1.7327
 6017TIP3   OH239465   2.995   3.683   2.183 -0.5685 -0.2130  0.3001
 6017TIP3    H139466   3.045   3.636   2.250  1.9847  1.1898 -0.5146
 6017TIP3    H239467   3.039   3.662   2.101 -1.0673  1.3951 -0.4120
 6018TIP3   OH239468   1.946   0.923   3.077  0.2818 -0.1255 -0.4406
 6018TIP3    H139469   1.859   0.892   3.103  0.0185  1.3677  0.5805
 6018TIP3    H239470   2.006   0.854   3.106 -0.6013 -1.5760 -1.9276
 6019TIP3   OH239471   0.362   0.990   3.621  0.3390  0.2880 -0.0426
 6019TIP3    H139472   0.303   1.034   3.559 -1.8773 -0.7659  1.2173
 6019TIP3    H239473   0.399   0.917   3.571  1.0964  1.3063 -1.0256
 6020TIP3   OH239474   0.690   6.020   3.112 -0.1974 -0.0595  0.0678
 6020TIP3    H139475   0.654   5.972   3.037  1.4741 -2.3039  0.6085
 6020TIP3    H239476   0.757   6.077   3.075 -1.4810  1.1914 -0.4487
 6021TIP3   OH239477   4.842   3.878  15.488  0.2232  0.4283  0.5750
 6021TIP3    H139478   4.863   3.798  15.439  0.0501  0.7992 -0.1218
 6021TIP3    H239479   4.926   3.921  15.501  0.1759  0.8159 -0.2816
 6022TIP3   OH239480   5.894   6.508  12.239  0.1826  0.2744  0.1509
 6022TIP3    H139481   5.880   6.416  12.261 -0.6159  0.5839  1.0126
 6022TIP3    H239482   5.869   6.556  12.318 -0.1054  1.2827 -0.5245
 6023TIP3   OH239483   5.722   6.666   3.361 -0.4175 -0.5201  0.1635
 6023TIP3    H139484   5.762   6.582   3.387 -1.9324 -2.0638 -2.1525
 6023TIP3    H239485   5.773   6.694   3.286 -0.6712  0.0192  0.1912
 6024TIP3   OH239486   1.957   3.870   0.065 -0.1789  0.0352 -0.0838
 6024TIP3    H139487   2.038   3.911   0.096 -0.1446  1.6869 -2.1401
 6024TIP3    H239488   1.986   3.805   0.001 -0.4094 -0.6542  0.5033
 6025TIP3   OH239489   4.384   3.850   6.314 -0.5503 -0.2639  0.5439
 6025TIP3    H139490   4.472   3.856   6.278  0.1405 -0.5593  2.1226
 6025TIP3    H239491   4.390   3.781   6.381 -2.3515 -1.3933 -0.3679
 6026TIP3   OH239492   3.905   0.171  16.725  0.1431  0.0161  0.0899
 6026TIP3    H139493   3.941   0.218  16.650  1.2889  2.4997  2.0474
 6026TIP3    H239494   3.872   0.239  16.783  0.9951 -1.6190  2.6760
 6027TIP3   OH239495   0.566   4.785   3.784  0.1315  0.4876  0.8003
 6027TIP3    H139496   0.478   4.811   3.756 -0.1737  0.2981  1.5769
 6027TIP3    H239497   0.566   4.796   3.879  1.2735  1.4446  0.7161
 6028TIP3   OH239498   0.557   1.515  16.641  0.5310  0.2861  0.0768
 6028TIP3    H139499   0.534   1.471  16.723  1.6980 -1.5466 -0.5127
 6028TIP3    H239500   0.582   1.604  16.668  2.7478 -0.8099  2.0405
 6029TIP3   OH239501   5.406   0.193   2.237 -0.1349 -0.1234  0.0682
 6029TIP3    H139502   5.498   0.168   2.231 -0.0500 -0.1135  1.1785
 6029TIP3    H239503   5.374   0.152   2.317 -1.6335 -1.7587 -1.2863
 6030TIP3   OH239504   1.923   1.191   0.196  0.1883 -0.2460  0.5490
 6030TIP3    H139505   1.959   1.279   0.204 -0.5908  0.1945 -0.4912
 6030TIP3    H239506   1.828   1.203   0.206 -0.0276 -0.7886 -0.6314
 6031TIP3   OH239507   6.074   5.291   6.219  0.4582  0.3585  0.1410
 6031TIP3    H139508   5.994   5.318   6.174  1.9471  2.1612 -1.5900
 6031TIP3    H239509   6.144   5.307   6.156  2.2311 -1.0281  1.6457
 6032TIP3   OH239510   3.641   3.761   3.840 -0.6898 -0.0240 -0.1302
 6032TIP3    H139511   3.596   3.791   3.920 -1.9278 -0.9313 -0.4559
 6032TIP3    H239512   3.690   3.838   3.811 -1.9354  0.9929  0.3243
 6033TIP3   OH239513   1.518   4.579  14.060  0.2284  0.5186 -0.0224
 6033TIP3    H139514   1.457   4.642  14.021 -0.2995  0.2056  0.2912
 6033TIP3    H239515   1.492   4.495  14.023 -1.5840 -0.1189  2.4500
 6034TIP3   OH239516   3.873   4.958   3.486 -0.2848  0.2213 -1.0002
 6034TIP3    H139517   3.938   5.009   3.534  0.1132 -1.1889  0.0196
 6034TIP3    H239518   3.911   4.949   3.398 -0.6727  2.1853 -1.4253
 6035TIP3   OH239519   2.338   1.296   5.228  0.0837 -0.2558 -0.0708
 6035TIP3    H139520   2.352   1.203   5.212  0.3426 -0.2072 -0.1310
 6035TIP3    H239521   2.359   1.308   5.321 -1.0768 -0.4718  0.2394
 6036TIP3   OH239522   1.700   2.705   1.757 -0.2143 -0.0583  0.0613
 6036TIP3    H139523   1.713   2.796   1.784 -0.4359 -0.2579  0.8716
 6036TIP3    H239524   1.624   2.708   1.699 -2.8886 -0.2176  3.2652
 6037TIP3   OH239525   2.453   1.451  15.809  0.0165  0.1217  0.1299
 6037TIP3    H139526   2.536   1.452  15.760 -0.0908 -0.3734 -0.0780
 6037TIP3    H239527   2.398   1.515  15.764 -0.1810 -0.5328 -0.6008
 6038TIP3   OH239528   5.326   5.943   3.695 -0.0615  0.0538  0.0253
 6038TIP3    H139529   5.383   5.868   3.673 -0.8016 -0.3199 -0.6762
 6038TIP3    H239530   5.386   6.008   3.732  0.7542 -0.5087 -0.2692
 6039TIP3   OH239531   4.508   3.108  11.060  0.1089  0.5765  0.0939
 6039TIP3    H139532   4.572   3.163  11.107  1.1446  0.3117 -0.9606
 6039TIP3    H239533   4.426   3.120  11.109  1.0348  0.6573  1.6865
 6040TIP3   OH239534   5.139   1.467  11.397  0.3160  0.2676  0.2210
 6040TIP3    H139535   5.205   1.523  11.439 -0.1469  1.9318 -1.1688
 6040TIP3    H239536   5.154   1.479  11.303 -0.6809 -0.9113 -0.1003
 6041TIP3   OH239537   0.914   1.805   5.282  0.1863  0.0162  0.1610
 6041TIP3    H139538   0.909   1.793   5.187  0.7861 -0.0759  0.1401
 6041TIP3    H239539   0.841   1.864   5.302  0.1494  0.1621 -0.3782
 6042TIP3   OH239540   0.801   5.134   0.796  0.3592 -0.5735 -0.1392
 6042TIP3    H139541   0.852   5.139   0.715  0.1680 -0.6707 -0.2677
 6042TIP3    H239542   0.865   5.149   0.866  0.5513 -0.6251 -0.3014
 6043TIP3   OH239543   0.520   3.892  12.601 -0.2102 -0.3513  0.1199
 6043TIP3    H139544   0.615   3.883  12.608 -0.4446 -1.9193  2.4483
 6043TIP3    H239545   0.486   3.848  12.679 -2.8818 -0.1169 -0.8089
 6044TIP3   OH239546   3.240   4.627  12.642 -0.6920 -0.4280 -0.4026
 6044TIP3    H139547   3.209   4.715  12.663 -1.3703 -0.5358 -0.9213
 6044TIP3    H239548   3.281   4.635  12.557  2.8250  0.1846  1.1644
 6045TIP3   OH239549   4.111   3.677   4.817  0.0534  0.2199 -0.0129
 6045TIP3    H139550   4.029   3.660   4.864  0.8203 -2.3778  0.5413
 6045TIP3    H239551   4.165   3.724   4.880 -0.0814 -0.3991  0.5762
 6046TIP3   OH239552   4.399   1.970   1.390  0.1481 -0.3008  0.0604
 6046TIP3    H139553   4.319   1.956   1.339  0.6388 -1.7294 -0.3674
 6046TIP3    H239554   4.465   1.994   1.325  0.3954 -0.4994  0.2389
 6047TIP3   OH239555   5.167   3.734  11.663  0.2868  0.3751  0.2042
 6047TIP3    H139556   5.081   3.713  11.627  0.3773 -1.6427  1.0097
 6047TIP3    H239557   5.224   3.664  11.631  1.2962  0.8913  0.8289
 6048TIP3   OH239558   6.501   0.343   0.581  0.1374 -0.3922  0.6260
 6048TIP3    H139559   6.420   0.312   0.541 -0.1049  2.0221 -0.9760
 6048TIP3    H239560   6.570   0.297   0.533 -0.2271  0.5330 -0.8568
 6049TIP3   OH239561   2.523   4.166  14.403 -0.5540 -0.4963 -0.1607
 6049TIP3    H139562   2.574   4.129  14.475 -0.5827  0.8632  0.5732
 6049TIP3    H239563   2.436   4.126  14.413  0.0230 -1.9813 -0.7716
 6050TIP3   OH239564   5.976   4.326  11.377  0.2909 -0.4446  0.5689
 6050TIP3    H139565   5.893   4.349  11.334 -0.0577 -0.3022  1.2859
 6050TIP3    H239566   5.992   4.400  11.436  0.3967 -0.9468  1.1715
 6051TIP3   OH239567   5.800   0.097   1.198 -0.2412  0.0490  0.4804
 6051TIP3    H139568   5.790   0.065   1.288  1.1350  0.7545  0.9196
 6051TIP3    H239569   5.871   0.161   1.204 -1.0904  1.1608 -0.8564
 6052TIP3   OH239570   0.093   2.722  11.439 -0.3460 -0.6719  0.1004
 6052TIP3    H139571   0.074   2.662  11.510  0.2049  0.3882  1.1708
 6052TIP3    H239572   0.043   2.688  11.365  0.5103 -2.8524  0.4495
 6053TIP3   OH239573   3.367   2.159  15.493 -0.3833  0.4422  0.5954
 6053TIP3    H139574   3.426   2.163  15.569  1.2782  1.7845 -0.6655
 6053TIP3    H239575   3.322   2.243  15.493  0.4550  0.9226 -0.4748
 6054TIP3   OH239576   2.410   0.826   2.716  0.1369 -0.4818  0.5256
 6054TIP3    H139577   2.378   0.860   2.632  0.7595 -0.6357  0.2189
 6054TIP3    H239578   2.396   0.898   2.778 -0.9831 -0.6215  0.4491
 6055TIP3   OH239579   1.705   5.770  15.104  0.3408 -0.4823  0.2305
 6055TIP3    H139580   1.629   5.787  15.048  1.9436 -1.8039 -2.5765
 6055TIP3    H239581   1.678   5.696  15.158 -0.5524 -0.6273 -0.3865
 6056TIP3   OH239582   4.576   1.923   2.530  0.1802  0.2107  0.4657
 6056TIP3    H139583   4.524   1.844   2.518  0.8356 -0.0938 -0.4171
 6056TIP3    H239584   4.666   1.893   2.536  0.3349  0.7890  1.4125
 6057TIP3   OH239585   5.456   3.293   1.974  0.3598  0.3951  0.2621
 6057TIP3    H139586   5.385   3.303   2.038  1.1225 -2.3970  1.6863
 6057TIP3    H239587   5.430   3.218   1.921  1.2666  0.7141 -0.6647
 6058TIP3   OH239588   1.453   5.314  11.610  0.2767  0.0084  0.9359
 6058TIP3    H139589   1.490   5.388  11.562 -1.4680  1.0959  1.1926
 6058TIP3    H239590   1.524   5.283  11.666  1.9565 -0.4473 -1.3228
 6059TIP3   OH239591   3.620   2.082   0.562 -0.3993 -0.4422  0.6455
 6059TIP3    H139592   3.564   2.133   0.503  0.1252 -0.3933  0.1823
 6059TIP3    H239593   3.647   2.144   0.629  1.5670  0.3686 -0.8082
 6060TIP3   OH239594   1.398   5.683   2.007  0.3360 -0.1780  0.2407
 6060TIP3    H139595   1.352   5.614   2.056 -2.9524  0.9528 -0.9901
 6060TIP3    H239596   1.332   5.751   1.994  2.4983  1.7497 -1.5041
 6061TIP3   OH239597   6.363   4.264  15.649  0.5504  0.9871  0.1897
 6061TIP3    H139598   6.394   4.193  15.592  1.6808  0.9411  0.8347
 6061TIP3    H239599   6.284   4.297  15.606 -0.5678 -1.2918  0.3672
 6062TIP3   OH239600   6.011   4.125   6.298 -0.3636 -0.1534 -0.1683
 6062TIP3    H139601   5.993   4.031   6.302 -1.0422 -0.2491 -3.1864
 6062TIP3    H239602   5.940   4.166   6.348  0.4656 -1.2092  1.9944
 6063TIP3   OH239603   0.799   1.352   1.743  0.8449 -0.1841  0.0774
 6063TIP3    H139604   0.756   1.425   1.789  1.1350 -0.9558  1.6344
 6063TIP3    H239605   0.871   1.393   1.695 -0.3137  0.8371 -0.8581
 6064TIP3   OH239606   3.474   6.721  12.273  0.1563  0.0849 -0.5642
 6064TIP3    H139607   3.533   6.717  12.348 -0.9759  1.1009  0.4331
 6064TIP3    H239608   3.412   6.650  12.287 -0.7101  0.9281  0.0960
 6065TIP3   OH239609   5.343   6.138  15.541  0.4128 -0.0406  0.1847
 6065TIP3    H139610   5.341   6.224  15.582  0.7987 -0.4707  1.1286
 6065TIP3    H239611   5.436   6.117  15.533  0.4066  0.5462 -2.0497
 6066TIP3   OH239612   0.445   4.816  16.590 -0.3177 -0.5783 -0.2274
 6066TIP3    H139613   0.421   4.825  16.498 -2.6060 -1.2547  0.2375
 6066TIP3    H239614   0.507   4.887  16.606 -0.8283  0.3270 -1.9917
 6067TIP3   OH239615   3.709   6.184  14.008 -0.2507 -0.1102  0.4099
 6067TIP3    H139616   3.638   6.245  13.991 -0.2260 -0.2256 -0.1069
 6067TIP3    H239617   3.737   6.154  13.922 -0.0277 -0.5826  0.6409
 6068TIP3   OH239618   3.471   0.529  15.244 -0.1200  0.3044 -0.0718
 6068TIP3    H139619   3.470   0.473  15.322  1.5274  0.5853  0.1897
 6068TIP3    H239620   3.561   0.562  15.240 -0.6998  1.8390 -1.0037
 6069TIP3   OH239621   0.220   0.105   2.239 -0.5519  0.5702 -0.2777
 6069TIP3    H139622   0.219   0.187   2.190 -2.5434  1.6858  1.4177
 6069TIP3    H239623   0.266   0.127   2.320 -1.4254  0.1497  0.3492
 6070TIP3   OH239624   1.824   6.512   0.450 -0.2494 -0.6139  0.6216
 6070TIP3    H139625   1.847   6.541   0.538 -1.0542  0.0941  0.6067
 6070TIP3    H239626   1.868   6.575   0.392 -1.0881 -0.0797  0.5609
 6071TIP3   OH239627   3.573   1.141   0.769  0.1956 -0.3410 -0.3502
 6071TIP3    H139628   3.519   1.062   0.780 -1.4617  0.6412 -0.9280
 6071TIP3    H239629   3.663   1.110   0.769 -0.3834 -2.1188  0.3422
 6072TIP3   OH239630   4.963   1.066   1.023 -0.1053  0.4741  0.2552
 6072TIP3    H139631   4.959   1.001   1.093 -0.2488 -0.2476 -0.4074
 6072TIP3    H239632   4.890   1.044   0.965  1.2995 -0.3363 -1.3033
 6073TIP3   OH239633   0.428   0.561   1.391  0.5743  0.4406  0.0848
 6073TIP3    H139634   0.400   0.652   1.383  0.2353  0.7353  3.3433
 6073TIP3    H239635   0.347   0.510   1.391  0.6342  0.3442  0.2972
 6074TIP3   OH239636   1.851   0.631   3.605  0.6741  0.6201  0.2254
 6074TIP3    H139637   1.873   0.674   3.688 -2.6323  2.2108  0.4539
 6074TIP3    H239638   1.851   0.538   3.626  2.0493  0.8499  1.4104
 6075TIP3   OH239639   6.566   5.890  11.551 -0.1916  0.3039 -0.3306
 6075TIP3    H139640   6.586   5.883  11.645 -1.1844  2.4398  0.1081
 6075TIP3    H239641   6.636   5.945  11.516 -0.2505  0.1444 -0.7021
 6076TIP3   OH239642   3.517   4.609   4.708 -0.4692  0.1167 -0.1087
 6076TIP3    H139643   3.423   4.595   4.710 -0.3079 -0.9183  0.8889
 6076TIP3    H239644   3.532   4.678   4.772 -0.4206 -0.6105  0.6766
 6077TIP3   OH239645   5.889   5.584  16.729 -0.4635 -0.3407 -0.2164
 6077TIP3    H139646   5.912   5.492  16.738 -0.1245 -0.1587  0.9825
 6077TIP3    H239647   5.954   5.620  16.668  0.4806 -0.5283  0.6622
 6078TIP3   OH239648   1.179   3.814  12.241 -0.6647 -0.4183 -0.0299
 6078TIP3    H139649   1.148   3.726  12.262 -1.1923 -0.1292  0.4231
 6078TIP3    H239650   1.271   3.815  12.270 -0.8459 -0.6155  0.5743
 6079TIP3   OH239651   3.900   1.252  15.067 -0.5139  0.5494  1.0301
 6079TIP3    H139652   3.949   1.323  15.108  1.6453  0.6532 -1.5053
 6079TIP3    H239653   3.966   1.187  15.045 -1.3596  0.7223 -2.6362
 6080TIP3   OH239654   1.178   6.100  12.172  0.0495  0.1805  0.3440
 6080TIP3    H139655   1.247   6.057  12.123  1.2249  1.0912  1.1459
 6080TIP3    H239656   1.185   6.065  12.261  0.2247  1.0878  0.7005
 6081TIP3   OH239657   5.392   6.072   3.258 -0.4031 -0.2275  0.4827
 6081TIP3    H139658   5.335   5.995   3.265  0.1572 -0.6463  0.5231
 6081TIP3    H239659   5.396   6.107   3.347  1.6473 -1.8584  1.1261
 6082TIP3   OH239660   1.101   3.650   6.205  0.4547 -0.4827 -0.8865
 6082TIP3    H139661   1.173   3.712   6.191  0.0279 -0.0354 -1.1270
 6082TIP3    H239662   1.043   3.694   6.266 -0.3723 -0.1946 -1.8501
 6083TIP3   OH239663   6.588   3.828  15.692  0.4408 -0.2535 -0.1912
 6083TIP3    H139664   6.680   3.803  15.681  0.7084  0.9137 -0.8272
 6083TIP3    H239665   6.548   3.809  15.607  0.6447  1.3584 -0.6815
 6084TIP3   OH239666   2.297   4.462  14.635 -0.5959  0.2040 -0.2055
 6084TIP3    H139667   2.206   4.434  14.640 -0.5735  0.2591  0.8214
 6084TIP3    H239668   2.340   4.418  14.709  0.1701  0.3057 -0.5818
 6085TIP3   OH239669   1.880   2.143   5.001  0.1009  0.1165 -0.2020
 6085TIP3    H139670   1.901   2.230   4.967  2.4524 -0.2628  0.0967
 6085TIP3    H239671   1.877   2.154   5.096  3.0222 -0.4944  0.0705
 6086TIP3   OH239672   1.506   4.762   1.397 -0.3083  0.7454 -0.2001
 6086TIP3    H139673   1.499   4.736   1.489  2.2575  0.0971 -0.0962
 6086TIP3    H239674   1.526   4.681   1.351 -0.6797  1.2109 -1.2063
 6087TIP3   OH239675   5.615   2.379   4.958  0.0427 -0.1829 -0.2653
 6087TIP3    H139676   5.552   2.343   5.020 -0.6234 -0.2479 -0.9678
 6087TIP3    H239677   5.673   2.434   5.011  0.1774 -1.1327  0.5783
 6088TIP3   OH239678   4.732   4.480   5.334 -0.5134  0.5054 -0.1347
 6088TIP3    H139679   4.794   4.502   5.404 -0.2948 -2.2984  0.6837
 6088TIP3    H239680   4.646   4.482   5.377 -0.3852 -1.1537  0.2651
 6089TIP3   OH239681   6.422   3.273  15.349  0.4158  0.6554 -0.1062
 6089TIP3    H139682   6.402   3.260  15.442  1.3261  0.3646  0.0647
 6089TIP3    H239683   6.427   3.184  15.313 -0.7473  0.7891 -0.6253
 6090TIP3   OH239684   3.411   2.663   1.654 -0.5479  0.1066 -0.6952
 6090TIP3    H139685   3.388   2.719   1.579  0.4587 -1.3397 -2.1562
 6090TIP3    H239686   3.361   2.583   1.639  0.0740 -0.4001 -0.1051
 6091TIP3   OH239687   1.782   0.923  15.994 -0.4125  0.2612  0.2634
 6091TIP3    H139688   1.716   0.874  16.043 -0.9801 -0.2744 -0.9896
 6091TIP3    H239689   1.855   0.861  15.985 -0.8778 -0.1585 -0.7724
 6092TIP3   OH239690   6.028   6.080  11.583 -0.4485 -0.6101  0.0802
 6092TIP3    H139691   6.123   6.069  11.586 -0.0978  1.9790  1.3131
 6092TIP3    H239692   6.011   6.126  11.502 -0.9343 -2.6513 -1.0432
 6093TIP3   OH239693   2.929   4.261   2.631  0.1716  0.5316 -0.3553
 6093TIP3    H139694   2.998   4.309   2.678  0.0872 -1.5868  2.1484
 6093TIP3    H239695   2.976   4.208   2.567  0.7208  0.4601  0.0941
 6094TIP3   OH239696   5.029   4.623  11.421  0.1151 -0.6424 -0.3206
 6094TIP3    H139697   5.019   4.715  11.396 -2.5621 -1.1879 -1.6786
 6094TIP3    H239698   5.072   4.626  11.506  1.7668  1.7398 -1.1424
 6095TIP3   OH239699   1.036   5.057   1.978  0.2955  0.5382 -0.3271
 6095TIP3    H139700   1.010   5.071   2.069  1.6043 -0.1874  0.1837
 6095TIP3    H239701   0.973   4.994   1.944 -0.1072  0.6975  0.1126
 6096TIP3   OH239702   3.683   4.776  12.310 -0.3859 -0.4891  0.1946
 6096TIP3    H139703   3.710   4.811  12.225 -1.5062 -0.5204 -0.1968
 6096TIP3    H239704   3.754   4.800  12.370  0.4706 -0.5675 -0.7646
 6097TIP3   OH239705   3.196   2.580   1.177 -0.1785  0.7272  0.1504
 6097TIP3    H139706   3.176   2.526   1.254 -2.5327  1.6127  0.2370
 6097TIP3    H239707   3.198   2.517   1.104 -0.9095  0.2513  0.5290
 6098TIP3   OH239708   5.564   2.609  13.327 -0.2407  0.3229 -0.0827
 6098TIP3    H139709   5.658   2.631  13.330 -0.1153 -0.3254  1.5204
 6098TIP3    H239710   5.520   2.694  13.329  0.2925  0.6327 -0.7072
 6099TIP3   OH239711   2.734   0.049  12.991 -0.2959 -0.0845 -0.0395
 6099TIP3    H139712   2.670   0.119  12.992 -0.6501 -0.3823  1.8903
 6099TIP3    H239713   2.769   0.046  13.080 -0.0712 -2.1514 -0.1320
 6100TIP3   OH239714   0.386   1.143   1.581  0.4902 -0.0620 -0.5263
 6100TIP3    H139715   0.397   1.230   1.544 -3.2189  0.9541  0.3985
 6100TIP3    H239716   0.435   1.146   1.664  0.8709  0.8960 -0.7737
 6101TIP3   OH239717   1.068   3.664  12.566 -0.3302  0.6784  0.5296
 6101TIP3    H139718   1.018   3.594  12.608  1.5001 -0.2684  1.2293
 6101TIP3    H239719   1.065   3.642  12.472 -1.6972  0.9914  0.4739
 6102TIP3   OH239720   2.256   6.682   0.209  0.2160  0.3406  0.3115
 6102TIP3    H139721   2.341   6.682   0.164 -0.3785  0.7260 -0.8796
 6102TIP3    H239722   2.201   6.624   0.157 -0.7127  1.3773  0.0824
 6103TIP3   OH239723   0.419   6.633  12.131  0.7777 -0.2194 -0.2091
 6103TIP3    H139724   0.444   6.629  12.224  2.2770  1.5015 -0.4732
 6103TIP3    H239725   0.339   6.686  12.131  0.9929  0.1098  0.0636
 6104TIP3   OH239726   6.282   3.460   0.880 -0.4890  0.0982 -0.7513
 6104TIP3    H139727   6.239   3.500   0.957  0.2420 -0.4156 -0.0595
 6104TIP3    H239728   6.338   3.529   0.846 -1.4118  0.5915 -1.3215
 6105TIP3   OH239729   6.486   1.420  14.248 -0.1717 -0.1586 -0.1970
 6105TIP3    H139730   6.512   1.361  14.319 -0.2994  0.4954  0.3961
 6105TIP3    H239731   6.462   1.502  14.291  0.1595  0.3919 -1.0307
 6106TIP3   OH239732   5.435   1.848  16.479 -0.5629  0.1560  0.2028
 6106TIP3    H139733   5.449   1.798  16.560  0.8750 -2.2664 -1.4033
 6106TIP3    H239734   5.523   1.862  16.444 -1.0525  2.6105 -0.1868
 6107TIP3   OH239735   2.781   3.396   2.333  0.1040 -0.1918  0.0296
 6107TIP3    H139736   2.717   3.467   2.333 -0.1713 -0.4298  0.4506
 6107TIP3    H239737   2.837   3.413   2.258  1.5144  1.7533  1.4469
 6108TIP3   OH239738   1.625   5.663   0.578  0.1609 -0.1693  0.0668
 6108TIP3    H139739   1.566   5.655   0.503 -0.3643 -0.7135  0.5213
 6108TIP3    H239740   1.617   5.755   0.605  0.3749  0.0361 -0.5530
 6109TIP3   OH239741   2.293   4.410  15.248  0.0610 -0.9187 -0.0569
 6109TIP3    H139742   2.197   4.418  15.243  0.3034  3.8661 -1.2271
 6109TIP3    H239743   2.321   4.397  15.157  0.6060 -1.0581  0.1270
 6110TIP3   OH239744   5.589   0.476  13.068 -0.0125  0.5022  0.0701
 6110TIP3    H139745   5.672   0.448  13.108 -0.5756 -0.0633  0.8691
 6110TIP3    H239746   5.602   0.461  12.974  1.8156  3.0754 -0.2124
 6111TIP3   OH239747   2.452   0.281  14.914 -0.2430 -0.0141  0.5768
 6111TIP3    H139748   2.535   0.237  14.899 -0.5177 -0.6180  0.8103
 6111TIP3    H239749   2.437   0.332  14.834 -1.1943 -2.3929 -0.8693
 6112TIP3   OH239750   1.356   5.304  15.847  0.3515  0.1630 -0.0263
 6112TIP3    H139751   1.301   5.270  15.918  1.7116  1.0280  1.5392
 6112TIP3    H239752   1.443   5.269  15.866  0.6008 -0.2489 -1.7831
 6113TIP3   OH239753   1.597   3.129  17.192 -0.0752  0.1468  0.1862
 6113TIP3    H139754   1.527   3.194  17.187  0.1397  0.7553  3.1989
 6113TIP3    H239755   1.677   3.180  17.203  0.8134 -0.5777 -2.1937
 6114TIP3   OH239756   2.781   1.054  13.353 -0.1790  0.2511  0.0899
 6114TIP3    H139757   2.714   1.090  13.295 -0.2968  2.0063  1.2250
 6114TIP3    H239758   2.863   1.065  13.305 -0.4777 -0.1349 -0.5209
 6115TIP3   OH239759   6.672   2.565   3.012  0.3255 -0.2456  0.2541
 6115TIP3    H139760   6.636   2.540   3.096  0.4900  0.5759  0.5731
 6115TIP3    H239761   6.619   2.639   2.983 -0.7143 -1.4642 -1.0882
 6116TIP3   OH239762   6.191   6.771   4.858 -0.4680  0.2107 -0.0197
 6116TIP3    H139763   6.262   6.707   4.850  0.6640  1.3714  0.4200
 6116TIP3    H239764   6.181   6.783   4.953 -2.3276 -1.0648 -0.0018
 6117TIP3   OH239765   6.674   2.245   5.491 -0.7230 -0.1936 -0.8841
 6117TIP3    H139766   6.580   2.225   5.488 -1.8124  4.0107 -2.3479
 6117TIP3    H239767   6.686   2.294   5.573  0.0020  0.0357 -1.1180
 6118TIP3   OH239768   5.174   2.275  12.623 -0.0104 -0.4982  0.1400
 6118TIP3    H139769   5.082   2.287  12.647  0.4376  2.0551  0.9047
 6118TIP3    H239770   5.177   2.297  12.530 -0.0114  0.5552  0.3810
 6119TIP3   OH239771   0.642   1.860   5.866  0.1981 -0.2227  0.6441
 6119TIP3    H139772   0.583   1.936   5.872 -0.1247 -0.5455  1.8133
 6119TIP3    H239773   0.643   1.823   5.954  1.6315 -0.6275  0.4932
 6120TIP3   OH239774   2.078   2.094  12.216 -0.3141 -0.3768 -0.6987
 6120TIP3    H139775   2.152   2.033  12.206  0.0963  0.1359 -0.8737
 6120TIP3    H239776   2.036   2.095  12.130 -0.3976 -0.5096 -0.6595
 6121TIP3   OH239777   0.871   6.516  11.043 -0.1058  0.7537  0.2085
 6121TIP3    H139778   0.840   6.574  10.974 -0.4373  1.0975  0.6463
 6121TIP3    H239779   0.897   6.574  11.114  1.2570  0.4636 -0.0129
 6122TIP3   OH239780   5.609   1.160  16.540 -0.2525 -0.0130  0.6124
 6122TIP3    H139781   5.671   1.128  16.474 -0.7815 -0.0501  0.1214
 6122TIP3    H239782   5.589   1.250  16.513 -0.0220  0.1774  1.0604
 6123TIP3   OH239783   3.379   3.664   1.052 -0.1815 -0.0962 -0.1766
 6123TIP3    H139784   3.469   3.638   1.036 -0.6001 -1.9076  0.1634
 6123TIP3    H239785   3.372   3.672   1.147 -0.3522  0.1364 -0.2071
 6124TIP3   OH239786   6.354   5.979  12.828  0.5536 -0.2028  0.4402
 6124TIP3    H139787   6.260   5.979  12.806  0.2670 -0.9309  1.5769
 6124TIP3    H239788   6.376   6.071  12.840 -0.5974 -0.1284  2.4200
 6125TIP3   OH239789   3.885   1.957  16.672  0.1964 -0.0775 -0.3071
 6125TIP3    H139790   3.797   1.926  16.693  0.0018 -0.1122 -1.1327
 6125TIP3    H239791   3.899   2.032  16.729 -0.9959  0.9126 -1.2829
 6126TIP3   OH239792   2.016   5.971  13.424 -0.5990 -0.0463 -0.1086
 6126TIP3    H139793   2.028   5.884  13.460 -0.8117 -0.3585 -0.7861
 6126TIP3    H239794   2.101   5.994  13.387  0.0031  0.7936  1.6519
 6127TIP3   OH239795   4.339   0.713   5.590 -0.1351 -0.1989 -0.0029
 6127TIP3    H139796   4.375   0.651   5.653  0.2951 -1.0972 -1.0900
 6127TIP3    H239797   4.274   0.662   5.542  0.0287  0.2698 -0.7326
 6128TIP3   OH239798   0.218   5.122   3.080  0.1203  0.8758  0.4933
 6128TIP3    H139799   0.169   5.126   3.163 -2.5881  0.5390 -0.9967
 6128TIP3    H239800   0.254   5.210   3.071  0.7802  0.8290  2.1704
 6129TIP3   OH239801   0.597   6.256   4.812  0.0913  0.5920  0.4601
 6129TIP3    H139802   0.548   6.270   4.731 -1.6008 -0.9007  1.1515
 6129TIP3    H239803   0.631   6.343   4.835 -0.5459  1.2930 -1.1046
 6130TIP3   OH239804   2.775   0.519  14.672  0.4663 -0.3308  0.3106
 6130TIP3    H139805   2.854   0.561  14.640  0.7925 -0.2413  1.2073
 6130TIP3    H239806   2.716   0.518  14.597  0.7466  1.0176  0.0548
 6131TIP3   OH239807   5.857   5.675   2.069  0.5426 -0.3701 -0.1563
 6131TIP3    H139808   5.835   5.626   2.148  0.1731 -0.7054 -0.4596
 6131TIP3    H239809   5.920   5.619   2.023  0.4412 -0.3677 -0.2994
 6132TIP3   OH239810   3.172   0.730  15.219 -0.0335 -0.2716 -0.7728
 6132TIP3    H139811   3.085   0.715  15.182 -0.0792 -2.7268  0.1038
 6132TIP3    H239812   3.202   0.811  15.178 -3.2263  1.4196 -0.1270
 6133TIP3   OH239813   5.195   1.715   4.802 -0.6314 -0.0025 -0.0658
 6133TIP3    H139814   5.110   1.751   4.777 -0.3999  2.3188  2.0726
 6133TIP3    H239815   5.183   1.684   4.892  0.0777 -2.4875 -0.7211
 6134TIP3   OH239816   3.076   4.230  14.148  0.0471  0.3967  0.1925
 6134TIP3    H139817   3.001   4.287  14.167 -1.1725 -0.8087 -0.7498
 6134TIP3    H239818   3.061   4.152  14.201  2.0166  1.0969  1.9294
 6135TIP3   OH239819   0.796   1.136   1.178 -0.3908 -0.1910  0.6014
 6135TIP3    H139820   0.847   1.055   1.186  0.4060  0.2209 -0.1528
 6135TIP3    H239821   0.770   1.157   1.267 -0.6762 -1.3184  0.7997
 6136TIP3   OH239822   6.569   4.045  15.068 -0.0050  0.1164  0.0857
 6136TIP3    H139823   6.481   4.049  15.106  0.4239 -0.1556  1.1700
 6136TIP3    H239824   6.570   3.964  15.018 -0.6961  0.6497 -0.8046
 6137TIP3   OH239825   3.115   1.298   2.502  0.5527 -0.3527 -0.4716
 6137TIP3    H139826   3.087   1.223   2.450  0.2307 -0.9390  0.5102
 6137TIP3    H239827   3.143   1.260   2.586  0.7624  0.5852 -0.1033
 6138TIP3   OH239828   1.084   2.365  16.867 -0.2217 -0.0872  0.5195
 6138TIP3    H139829   1.095   2.285  16.815  2.4407  0.7973 -0.4543
 6138TIP3    H239830   0.994   2.361  16.898 -1.4546 -1.5165 -2.7763
 6139TIP3   OH239831   3.159   3.169  17.193 -0.9040 -0.2192 -0.5507
 6139TIP3    H139832   3.112   3.182  17.275 -0.4658  1.2617 -0.4977
 6139TIP3    H239833   3.251   3.180  17.215 -0.7847  0.2565 -1.2282
 6140TIP3   OH239834   1.321   5.777  12.990  0.0738 -0.1868 -0.6399
 6140TIP3    H139835   1.366   5.695  12.971  0.7665 -0.0694  0.3874
 6140TIP3    H239836   1.373   5.817  13.059 -1.9693 -0.3738  1.1293
 6141TIP3   OH239837   5.367   3.872   3.809 -0.1961 -0.4489 -0.1951
 6141TIP3    H139838   5.285   3.905   3.771  0.2712  0.5061 -0.3879
 6141TIP3    H239839   5.343   3.845   3.897 -0.4710  0.9663  0.1851
 6142TIP3   OH239840   5.297   6.145   4.812 -0.1933 -0.7222 -0.3989
 6142TIP3    H139841   5.354   6.216   4.841 -0.3289 -0.8410  0.1792
 6142TIP3    H239842   5.257   6.112   4.893  1.2099 -2.6234 -0.4193
 6143TIP3   OH239843   3.274   0.508  10.169  0.3493 -0.2689  0.1475
 6143TIP3    H139844   3.355   0.555  10.153  0.0087  0.8416  1.5121
 6143TIP3    H239845   3.301   0.428  10.214  0.7895 -0.6779 -0.8010
 6144TIP3   OH239846   3.185   5.727  15.178 -0.1455 -0.4951 -0.4151
 6144TIP3    H139847   3.109   5.686  15.220  0.5073 -0.6809  0.6297
 6144TIP3    H239848   3.256   5.666  15.193  0.6494  0.5790  0.3905
 6145TIP3   OH239849   2.190   5.275  13.870 -0.2230 -0.3614  0.1860
 6145TIP3    H139850   2.240   5.307  13.945 -1.5753  0.3616  0.8138
 6145TIP3    H239851   2.157   5.353  13.827 -0.5819 -0.8092 -0.3732
 6146TIP3   OH239852   1.469   6.489   0.679 -0.5657 -0.2224 -0.4634
 6146TIP3    H139853   1.428   6.568   0.716  0.2190  0.2202 -0.5096
 6146TIP3    H239854   1.418   6.417   0.716  0.2212  0.1814  1.5721
 6147TIP3   OH239855   5.889   5.162   1.829 -0.0013 -0.2098  0.6105
 6147TIP3    H139856   5.852   5.207   1.904  0.3628 -0.6349  1.0557
 6147TIP3    H239857   5.923   5.231   1.773 -2.8928  0.3338 -0.6383
 6148TIP3   OH239858   6.698   5.547  14.775 -0.3377  0.9672 -0.5655
 6148TIP3    H139859   6.692   5.628  14.827  1.4768  0.3001  0.8041
 6148TIP3    H239860   6.769   5.564  14.713  0.0496  0.4424 -0.2740
 6149TIP3   OH239861   2.405   2.284   3.024 -0.1248  0.4805  0.0241
 6149TIP3    H139862   2.476   2.263   2.963 -0.5083  1.0245 -0.6096
 6149TIP3    H239863   2.376   2.199   3.057  0.2943  0.2081 -0.3024
 6150TIP3   OH239864   2.129   2.792   6.384  0.3418  0.3394  0.1466
 6150TIP3    H139865   2.042   2.831   6.389  0.5069  0.8460 -0.7788
 6150TIP3    H239866   2.176   2.827   6.460  0.2475  1.3708 -0.2575
 6151TIP3   OH239867   1.207   6.075  11.252  0.0614  0.5714  0.0856
 6151TIP3    H139868   1.128   6.128  11.263 -0.0270  1.0214 -2.2776
 6151TIP3    H239869   1.178   5.985  11.264 -0.1973  0.8667  2.0449
 6152TIP3   OH239870   5.046   3.692  11.036 -0.3206  0.1729  0.6725
 6152TIP3    H139871   5.106   3.664  11.106 -0.4489 -0.7606  0.4190
 6152TIP3    H239872   5.103   3.703  10.960 -0.4071 -0.3215  0.5342
 6153TIP3   OH239873   3.045   1.067   2.665  0.8752  0.4522  0.0282
 6153TIP3    H139874   3.045   0.983   2.619  0.7472  0.5343 -0.1219
 6153TIP3    H239875   3.006   1.047   2.751  1.6612  0.1806  0.3275
 6154TIP3   OH239876   1.126   4.661  17.085  0.1157 -0.4474  0.1332
 6154TIP3    H139877   1.184   4.720  17.038 -0.9079  0.9529  0.5844
 6154TIP3    H239878   1.136   4.577  17.041  1.2369  0.1707 -0.8211
 6155TIP3   OH239879   0.355   6.227   2.372 -0.7325  0.4488 -0.4735
 6155TIP3    H139880   0.308   6.150   2.403  0.1831  0.0015 -0.1310
 6155TIP3    H239881   0.370   6.211   2.279  0.4235 -0.3329 -0.1751
 6156TIP3   OH239882   2.632   6.043   2.301  0.3369 -0.1706 -0.5291
 6156TIP3    H139883   2.584   6.124   2.319  0.1263 -0.5429  0.6634
 6156TIP3    H239884   2.713   6.072   2.258 -0.3527  0.5579 -1.3644
 6157TIP3   OH239885   0.186   1.808   3.524 -0.8183 -0.5794 -0.5894
 6157TIP3    H139886   0.256   1.764   3.572 -0.8919 -1.4820 -1.2843
 6157TIP3    H239887   0.117   1.822   3.589 -0.5675 -0.9898 -0.2312
 6158TIP3   OH239888   2.560   5.845  12.783 -0.1004 -0.1508  0.2311
 6158TIP3    H139889   2.585   5.790  12.857  2.3135  0.7508  0.1816
 6158TIP3    H239890   2.643   5.877  12.748 -1.2192  0.2758 -2.2525
 6159TIP3   OH239891   3.562   0.108   3.157  0.6598 -0.1788 -0.4036
 6159TIP3    H139892   3.532   0.100   3.247 -1.1418 -1.5134 -1.0463
 6159TIP3    H239893   3.642   0.055   3.153  1.7345  1.2747  0.7478
 6160TIP3   OH239894   0.102   2.297   4.969  0.1701  0.7141 -0.2109
 6160TIP3    H139895   0.176   2.355   4.951  2.0710 -1.5347  0.0020
 6160TIP3    H239896   0.121   2.258   5.054 -0.1321 -1.5137 -1.0993
 6161TIP3   OH239897   0.778   5.886  12.660 -0.2890 -0.6682  0.0338
 6161TIP3    H139898   0.786   5.828  12.584  0.0174 -1.3821  0.5985
 6161TIP3    H239899   0.857   5.868  12.712 -1.0531 -1.0547  1.0990
 6162TIP3   OH239900   3.985   0.078   4.211  0.2858 -0.2042 -0.2623
 6162TIP3    H139901   3.893   0.088   4.186  0.1443 -2.2410 -0.7486
 6162TIP3    H239902   3.988   0.106   4.303 -0.6215  0.7723 -0.5210
 6163TIP3   OH239903   4.978   0.376   6.363 -0.2756  0.0828 -0.4750
 6163TIP3    H139904   4.990   0.375   6.458 -1.6708 -1.3124 -0.2762
 6163TIP3    H239905   5.059   0.340   6.328  1.2066  2.7183  0.0019
 6164TIP3   OH239906   0.489   2.369   5.132 -0.5044 -0.1412  0.6216
 6164TIP3    H139907   0.563   2.424   5.106 -1.4385  1.3178  0.9315
 6164TIP3    H239908   0.526   2.308   5.196  0.9532 -1.1340 -1.0657
 6165TIP3   OH239909   0.725   4.344   4.600  0.1799 -0.0638 -0.1313
 6165TIP3    H139910   0.794   4.392   4.555  0.0408  0.3245  0.0680
 6165TIP3    H239911   0.713   4.390   4.683  0.1880 -0.5645  0.1569
 6166TIP3   OH239912   2.737   3.798  11.467  0.1182  0.4237 -0.2340
 6166TIP3    H139913   2.711   3.738  11.537  2.5470 -0.2151  0.2143
 6166TIP3    H239914   2.833   3.799  11.471  0.4004 -0.0411 -3.9188
 6167TIP3   OH239915   3.692   6.675  16.787  0.1623  0.1604  0.5950
 6167TIP3    H139916   3.714   6.765  16.763  1.7918 -0.2585  0.4047
 6167TIP3    H239917   3.662   6.681  16.878 -2.1872  1.2012 -0.1661
 6168TIP3   OH239918   3.830   0.776   2.853  0.1469 -0.0231  0.0098
 6168TIP3    H139919   3.799   0.866   2.859  0.2494  0.0982 -1.1431
 6168TIP3    H239920   3.788   0.741   2.775  1.6306 -0.3518 -0.6793
 6169TIP3   OH239921   6.491   0.320   1.702 -0.2192  0.0393  0.0689
 6169TIP3    H139922   6.419   0.258   1.716  1.2375 -1.6566  0.3482
 6169TIP3    H239923   6.559   0.269   1.659  1.3141  1.2709  0.9153
 6170TIP3   OH239924   2.128   4.014  16.383  0.6056 -0.4933  0.3653
 6170TIP3    H139925   2.109   3.922  16.368 -1.2719 -0.0675 -0.0468
 6170TIP3    H239926   2.081   4.061  16.315  0.4919  0.8482  1.3133
 6171TIP3   OH239927   3.336   4.332   5.114 -0.4794 -0.2636 -0.0390
 6171TIP3    H139928   3.335   4.247   5.070 -0.0364 -0.3075  0.0334
 6171TIP3    H239929   3.269   4.325   5.181 -0.1643 -0.7019  0.2341
 6172TIP3   OH239930   3.141   0.300  12.513 -0.3014 -0.3283  0.1195
 6172TIP3    H139931   3.118   0.216  12.552 -0.3976 -1.3304 -1.9563
 6172TIP3    H239932   3.072   0.317  12.450  1.7184 -0.7802 -2.4087
 6173TIP3   OH239933   5.196   5.478  12.582 -0.4619 -0.0873  0.1272
 6173TIP3    H139934   5.126   5.518  12.531 -2.1489 -1.5976  1.1263
 6173TIP3    H239935   5.158   5.465  12.668  1.6620  0.5914  1.2270
 6174TIP3   OH239936   1.591   2.862  11.589  0.0726  0.2878  0.2820
 6174TIP3    H139937   1.581   2.950  11.553 -0.3138 -0.1929 -0.8443
 6174TIP3    H239938   1.666   2.825  11.543  1.5510  0.7194  2.2396
 6175TIP3   OH239939   0.122   6.733  12.221 -0.2301 -0.6556  0.2381
 6175TIP3    H139940   0.104   6.648  12.262  2.5933 -2.3992 -1.7809
 6175TIP3    H239941   0.042   6.755  12.173 -1.0445 -2.0939  0.8852
 6176TIP3   OH239942   4.708   0.753  12.282  0.4866  0.3399  0.3448
 6176TIP3    H139943   4.642   0.764  12.351  0.5374 -0.0965  0.4626
 6176TIP3    H239944   4.767   0.686  12.315  0.3698 -0.0501 -0.2342
 6177TIP3   OH239945   3.706   4.412   4.774  1.0099  0.4523  0.3173
 6177TIP3    H139946   3.772   4.396   4.707  0.1428  0.9674 -0.6765
 6177TIP3    H239947   3.640   4.465   4.731 -0.7857 -1.2481  0.8341
 6178TIP3   OH239948   6.479   5.656  13.852 -0.5532 -0.0685  0.2462
 6178TIP3    H139949   6.475   5.617  13.940 -0.1718  0.5617  0.5533
 6178TIP3    H239950   6.470   5.750  13.868  1.5879  0.2581 -0.1719
 6179TIP3   OH239951   6.452   1.331  10.865  0.4488 -0.1031 -0.4375
 6179TIP3    H139952   6.521   1.393  10.887  0.8702 -0.0196 -1.8954
 6179TIP3    H239953   6.371   1.381  10.878  0.7397  0.3885 -0.4762
 6180TIP3   OH239954   6.722   2.307   6.100  0.2685 -0.6685 -0.0304
 6180TIP3    H139955   6.810   2.271   6.086  0.6500 -0.6826  2.1795
 6180TIP3    H239956   6.736   2.396   6.130 -0.4362 -0.8652  0.9374
 6181TIP3   OH239957   6.467   3.484   2.493 -0.0368 -0.2531 -0.0864
 6181TIP3    H139958   6.412   3.415   2.453  0.2724 -0.4935 -0.0991
 6181TIP3    H239959   6.432   3.566   2.457  0.1738 -0.4586 -0.7891
 6182TIP3   OH239960   5.327   6.311  12.083 -0.2979 -0.4360 -0.1302
 6182TIP3    H139961   5.308   6.341  11.994 -0.6126  1.0729  0.4135
 6182TIP3    H239962   5.256   6.251  12.104 -1.7357  1.2293  0.0225
 6183TIP3   OH239963   4.772   6.454   2.057  0.0335 -0.0031  1.2673
 6183TIP3    H139964   4.817   6.527   2.015 -0.5543 -0.2122  0.2297
 6183TIP3    H239965   4.679   6.476   2.048 -0.3222 -2.0860 -1.4832
 6184TIP3   OH239966   1.113   2.211  11.978 -0.0481 -0.3984 -0.7441
 6184TIP3    H139967   1.206   2.193  11.964  0.1722  0.9606 -1.2149
 6184TIP3    H239968   1.070   2.179  11.899  0.2122  0.2217 -1.1473
 6185TIP3   OH239969   6.675   2.954  11.683  0.4612 -0.2199  0.8105
 6185TIP3    H139970   6.728   3.023  11.644  1.5850 -1.3428  0.2618
 6185TIP3    H239971   6.596   2.950  11.628  0.6256  0.2787  0.5356
 6186TIP3   OH239972   5.084   1.480  13.143  0.2164 -0.3183  0.3571
 6186TIP3    H139973   5.009   1.538  13.125  0.1907 -0.5755 -0.3819
 6186TIP3    H239974   5.054   1.393  13.115  0.9013 -0.3685 -0.2266
 6187TIP3   OH239975   4.961   2.160   5.308  0.9189 -1.0284 -0.0461
 6187TIP3    H139976   4.926   2.223   5.371  0.9423 -0.0114 -1.0114
 6187TIP3    H239977   4.895   2.158   5.238  1.5488 -1.0520 -0.6520
 6188TIP3   OH239978   3.611   6.256   0.987  0.1936  0.4874 -0.5135
 6188TIP3    H139979   3.522   6.286   0.969 -0.0378  0.4702  0.5541
 6188TIP3    H239980   3.607   6.161   0.972 -0.1625  0.3763  0.2157
 6189TIP3   OH239981   2.868   0.110  12.745 -0.5060  0.3054 -0.2047
 6189TIP3    H139982   2.863   0.072  12.833 -1.8838 -1.7125 -1.0811
 6189TIP3    H239983   2.777   0.131  12.722 -0.1570  0.8574 -1.1449
 6190TIP3   OH239984   3.213   6.428  13.445 -0.0479  0.0848  1.0793
 6190TIP3    H139985   3.271   6.459  13.514  1.3602 -0.4570  0.1992
 6190TIP3    H239986   3.198   6.336  13.466 -0.6493  0.2376  1.3334
 6191TIP3   OH239987   6.425   0.820  15.664 -0.0785 -0.0760  0.8791
 6191TIP3    H139988   6.410   0.769  15.744 -1.8088 -1.8770 -0.4894
 6191TIP3    H239989   6.362   0.785  15.601  0.1413  2.3560 -0.8287
 6192TIP3   OH239990   3.573   1.700   2.680 -0.0563  0.2329 -0.6200
 6192TIP3    H139991   3.665   1.687   2.704 -0.3653  0.4158  0.6885
 6192TIP3    H239992   3.565   1.794   2.665 -0.1618  0.2915 -0.1894
 6193TIP3   OH239993   6.226   3.109  10.808 -0.5382 -0.1411  0.0843
 6193TIP3    H139994   6.173   3.185  10.783 -2.2457 -1.3594 -0.1418
 6193TIP3    H239995   6.249   3.125  10.900  1.1045  1.7245 -0.5887
 6194TIP3   OH239996   4.016   6.221  10.833  0.3081 -0.0502  0.1323
 6194TIP3    H139997   3.974   6.137  10.817 -0.2108  0.1525  0.4025
 6194TIP3    H239998   4.098   6.217  10.783 -0.9108  0.2668 -2.0297
 6195TIP3   OH239999   4.119   5.430   5.245  0.2076  0.9654 -0.3835
 6195TIP3    H140000   4.115   5.509   5.300  1.7869 -0.7409  2.4481
 6195TIP3    H240001   4.211   5.422   5.221  0.0763 -0.0091 -0.6057
 6196TIP3   OH240002   0.426   1.610  14.683  0.1180  0.1015  0.5619
 6196TIP3    H140003   0.460   1.693  14.649  1.0105 -0.8293 -0.9104
 6196TIP3    H240004   0.331   1.615  14.667  0.0856  1.0663  1.0135
 6197TIP3   OH240005   5.561   6.702  16.817  0.1039 -0.4359  0.5080
 6197TIP3    H140006   5.624   6.769  16.846  0.7194 -0.8816  0.2246
 6197TIP3    H240007   5.599   6.620  16.847  0.2470 -0.8171 -0.6772
 6198TIP3   OH240008   3.644   3.236  12.201 -0.2306 -0.2677  0.0351
 6198TIP3    H140009   3.639   3.303  12.269  1.3479 -1.4164  1.3613
 6198TIP3    H240010   3.553   3.215  12.181 -0.7480 -0.0804  1.9712
 6199TIP3   OH240011   5.540   6.161  15.144  0.1243  0.3940 -0.2329
 6199TIP3    H140012   5.471   6.227  15.145 -0.0099  0.2624 -0.5653
 6199TIP3    H240013   5.545   6.133  15.052 -0.4644 -0.7390  0.0672
 6200TIP3   OH240014   1.539   6.010   4.959  0.1830 -0.0441 -0.2010
 6200TIP3    H140015   1.560   6.070   4.888 -0.2576 -2.1284 -2.2157
 6200TIP3    H240016   1.609   5.944   4.957 -0.9684 -1.3121 -0.1567
 6201TIP3   OH240017   0.518   6.211   3.206  0.1102 -0.3782  0.6536
 6201TIP3    H140018   0.575   6.148   3.163  1.1356  1.5074 -0.8899
 6201TIP3    H240019   0.445   6.222   3.145  0.9571  1.3876 -0.1002
 6202TIP3   OH240020   5.816   0.878  11.772  0.3808  0.7293 -0.1975
 6202TIP3    H140021   5.751   0.825  11.727 -1.2471  2.1830  0.3561
 6202TIP3    H240022   5.887   0.816  11.792 -1.0826 -1.0528 -0.2555
 6203TIP3   OH240023   1.744   3.651   3.696 -0.1785 -0.0024 -0.2136
 6203TIP3    H140024   1.769   3.623   3.608  2.3395  0.9535  0.1128
 6203TIP3    H240025   1.690   3.728   3.682 -1.6112 -1.0893 -0.9320
 6204TIP3   OH240026   3.046   2.508   6.768  0.6715  0.4100  0.1884
 6204TIP3    H140027   3.132   2.474   6.794  0.7143  1.0116  0.8607
 6204TIP3    H240028   3.042   2.494   6.674  0.4670 -1.9885  0.4913
 6205TIP3   OH240029   2.488   6.753  14.725  0.6673  0.1467  0.1388
 6205TIP3    H140030   2.560   6.734  14.665  1.4933 -0.1002  1.1744
 6205TIP3    H240031   2.425   6.802  14.672  0.2371 -2.0991 -1.5992
 6206TIP3   OH240032   4.885   0.080  13.538 -0.6111  0.0575  0.3318
 6206TIP3    H140033   4.804   0.041  13.572 -0.1876 -0.7219  0.4809
 6206TIP3    H240034   4.865   0.100  13.446 -2.0380  2.9363  1.1401
 6207TIP3   OH240035   1.739   5.431   1.148  0.2998 -0.6332  0.1777
 6207TIP3    H140036   1.710   5.506   1.199  0.5445 -1.0913  1.0254
 6207TIP3    H240037   1.813   5.396   1.198 -0.4433 -2.0229  0.3580
 6208TIP3   OH240038   4.331   3.559  13.325 -0.3360  0.9806 -0.1323
 6208TIP3    H140039   4.380   3.614  13.264 -0.6101  1.4526  0.0690
 6208TIP3    H240040   4.270   3.511  13.270 -0.4420  1.2521 -0.2507
 6209TIP3   OH240041   1.749   2.681   0.472  0.4870 -0.2020  0.6231
 6209TIP3    H140042   1.786   2.764   0.502  0.5124 -1.1736  3.6303
 6209TIP3    H240043   1.797   2.661   0.392  2.6492  1.1911  1.4750
 6210TIP3   OH240044   5.507   0.474  14.505 -0.2549 -0.2358 -0.4600
 6210TIP3    H140045   5.552   0.477  14.589 -0.0450 -0.7305 -0.5536
 6210TIP3    H240046   5.551   0.405  14.456 -1.3345 -0.9732 -0.4254
 6211TIP3   OH240047   2.116   0.443   3.252  0.0975  0.6073 -0.1323
 6211TIP3    H140048   2.138   0.386   3.178  0.4698 -2.0465  1.9063
 6211TIP3    H240049   2.194   0.442   3.308 -0.2921  2.3029  0.5069
 6212TIP3   OH240050   3.249   3.429  11.875 -0.0004 -0.3139  0.1765
 6212TIP3    H140051   3.185   3.379  11.825  1.1978 -3.1138  1.2281
 6212TIP3    H240052   3.332   3.414  11.830  0.8452 -1.6498  2.0382
 6213TIP3   OH240053   1.276   4.932   0.770 -0.0931  0.6406  0.2323
 6213TIP3    H140054   1.363   4.892   0.780  0.1871  0.6344 -1.8275
 6213TIP3    H240055   1.279   5.009   0.827  1.7772  1.3943 -0.7881
 6214TIP3   OH240056   0.003   5.524  14.234  0.3834  0.6160 -0.3127
 6214TIP3    H140057  -0.018   5.609  14.194  0.9388  0.8688 -0.0854
 6214TIP3    H240058  -0.063   5.464  14.200 -0.0632  1.1594 -0.4158
 6215TIP3   OH240059   4.580   5.427   0.126  0.1612 -0.0628 -0.1751
 6215TIP3    H140060   4.530   5.456   0.050  3.9349  1.2297 -2.4412
 6215TIP3    H240061   4.635   5.356   0.094  1.7625  0.4079  1.3616
 6216TIP3   OH240062   0.024   5.618   2.158  1.0017  0.2634  0.5742
 6216TIP3    H140063   0.045   5.710   2.175 -0.1806  0.9662 -1.3911
 6216TIP3    H240064   0.095   5.587   2.102  1.7258 -0.2607  1.7262
 6217TIP3   OH240065   6.716   0.966   3.786 -0.0080  0.5163  0.3749
 6217TIP3    H140066   6.658   0.937   3.715  2.6326  1.0827 -2.1951
 6217TIP3    H240067   6.765   0.888   3.811 -1.1032  0.2559  1.8815
 6218TIP3   OH240068   0.375   5.167   6.559  0.5347  0.0928  0.0611
 6218TIP3    H140069   0.412   5.089   6.516 -2.1778 -1.2434 -0.0569
 6218TIP3    H240070   0.315   5.203   6.494  0.1306  1.0107  0.9343
 6219TIP3   OH240071   5.209   3.723  16.904  0.1088  0.2480  0.4271
 6219TIP3    H140072   5.270   3.673  16.850 -1.1392 -1.9706  0.9472
 6219TIP3    H240073   5.135   3.664  16.918 -1.1335  2.0008  1.7320
 6220TIP3   OH240074   4.794   0.899  12.894 -0.5417  0.2314 -0.4216
 6220TIP3    H140075   4.870   0.876  12.948 -1.7177  1.5916  1.9812
 6220TIP3    H240076   4.769   0.817  12.852  0.9510 -0.7223  0.4465
 6221TIP3   OH240077   3.003   1.808   5.948 -0.2294 -0.3726  1.2192
 6221TIP3    H140078   3.026   1.717   5.928 -0.3673 -0.3930  1.1495
 6221TIP3    H240079   2.916   1.820   5.909  0.5744  0.3614 -0.4359
 6222TIP3   OH240080   0.878   3.651   3.355  0.6335  0.2038 -0.5885
 6222TIP3    H140081   0.920   3.574   3.316 -1.4535 -0.5846 -1.4710
 6222TIP3    H240082   0.805   3.615   3.405  0.7313  1.5196  0.5417
 6223TIP3   OH240083   5.973   6.430  12.720  0.2359  0.3019  0.8968
 6223TIP3    H140084   5.963   6.382  12.638 -0.9603  1.8545  0.0940
 6223TIP3    H240085   6.068   6.434  12.733  0.4418 -0.0429 -0.3555
 6224TIP3   OH240086   0.322   2.383   1.141  0.3859 -0.4141 -0.3311
 6224TIP3    H140087   0.291   2.370   1.051 -1.7257  1.3131  0.0585
 6224TIP3    H240088   0.263   2.331   1.195  2.7598 -2.9632  0.0688
 6225TIP3   OH240089   4.268   0.048  11.884  0.0272 -0.1052  0.9535
 6225TIP3    H140090   4.176   0.027  11.871  0.3719 -1.1443  0.0988
 6225TIP3    H240091   4.309   0.033  11.799  1.5004 -2.4847  1.9694
 6226TIP3   OH240092   4.278   0.496   0.795  0.1332 -0.0692 -0.0348
 6226TIP3    H140093   4.290   0.591   0.802  1.4093 -0.3146  1.6214
 6226TIP3    H240094   4.276   0.480   0.701  0.7118  1.5161 -0.3575
 6227TIP3   OH240095   1.127   6.606   5.873  0.2588  0.2800 -0.3931
 6227TIP3    H140096   1.082   6.668   5.930 -1.2936  0.1285 -1.3677
 6227TIP3    H240097   1.140   6.528   5.927  1.2000  1.0389  0.5050
 6228TIP3   OH240098   5.239   1.768   0.980 -0.2764  1.0519  0.6771
 6228TIP3    H140099   5.332   1.791   0.983 -0.5971  2.4303  0.4916
 6228TIP3    H240100   5.196   1.829   1.039 -0.9058 -0.6239  2.0663
 6229TIP3   OH240101   1.716   3.049  10.957  0.4861  0.4034 -0.1273
 6229TIP3    H140102   1.676   2.973  10.915  0.6320  0.1615  0.1714
 6229TIP3    H240103   1.709   3.119  10.891 -0.6701  0.4444  0.0172
 6230TIP3   OH240104   2.370   6.216   4.588 -0.0328 -0.1614 -0.4361
 6230TIP3    H140105   2.353   6.124   4.569  0.0210 -0.0810 -0.8900
 6230TIP3    H240106   2.390   6.218   4.682 -0.0277 -0.6109 -0.4257
 6231TIP3   OH240107   0.876   1.420  13.598  0.2333 -0.1593  0.4312
 6231TIP3    H140108   0.901   1.344  13.651 -2.0185  0.1029  2.0077
 6231TIP3    H240109   0.833   1.479  13.660 -0.4990  1.1961 -1.2840
 6232TIP3   OH240110   1.993   1.251   3.113  0.3250 -0.7263  0.0604
 6232TIP3    H140111   2.046   1.284   3.040  0.4738 -0.6704  0.1939
 6232TIP3    H240112   1.994   1.156   3.102 -0.3294 -0.6820 -0.4854
 6233TIP3   OH240113   4.315   6.581   0.604 -0.0995  0.1632 -0.1400
 6233TIP3    H140114   4.232   6.560   0.649 -0.1683  3.0087  1.2932
 6233TIP3    H240115   4.378   6.591   0.675  0.9195  0.3323 -1.0480
 6234TIP3   OH240116   6.744   5.882   3.415  0.1165  0.0608 -0.3276
 6234TIP3    H140117   6.808   5.865   3.346  0.4950 -3.6375  0.7123
 6234TIP3    H240118   6.794   5.926   3.484  0.5248  0.7587 -1.0474
 6235TIP3   OH240119   6.271   4.581  14.617 -0.2645 -0.0966  0.4345
 6235TIP3    H140120   6.340   4.615  14.674 -0.7223  0.4027  0.6914
 6235TIP3    H240121   6.224   4.518  14.672  1.1593 -1.9124 -0.3161
 6236TIP3   OH240122   6.411   3.052  10.613  0.0180 -0.1877 -0.4760
 6236TIP3    H140123   6.408   3.123  10.548 -0.8204 -0.1556 -0.4107
 6236TIP3    H240124   6.337   3.069  10.671  1.2194  0.2338  0.9927
 6237TIP3   OH240125   3.622   4.679  15.469  0.5069  0.1511  0.2152
 6237TIP3    H140126   3.582   4.592  15.482 -0.9094  0.9740  1.8310
 6237TIP3    H240127   3.692   4.664  15.407  1.9687 -2.6524  2.2902
 6238TIP3   OH240128   4.530   2.278  13.891 -0.1605  0.2888  0.1753
 6238TIP3    H140129   4.489   2.336  13.956 -1.6296  0.3363 -0.7470
 6238TIP3    H240130   4.590   2.223  13.942 -2.3540 -0.7002  1.8247
 6239TIP3   OH240131   6.770   4.031  17.121 -0.1443  0.0817  0.3038
 6239TIP3    H140132   6.854   4.019  17.164  1.3064  0.5197 -2.1793
 6239TIP3    H240133   6.726   4.098  17.172  0.5721 -0.8033  2.1931
 6240TIP3   OH240134   2.072   4.903  16.004 -0.0661  0.2253  0.2338
 6240TIP3    H140135   2.130   4.921  16.078 -0.7807  0.4513  0.7534
 6240TIP3    H240136   2.131   4.882  15.932  0.6855  1.1486  0.5603
 6241TIP3   OH240137   6.012   6.080  16.831 -1.2965 -0.2102 -0.0028
 6241TIP3    H140138   6.040   6.025  16.758  2.7026 -0.7550  1.6872
 6241TIP3    H240139   6.017   6.023  16.907 -2.4852  1.0976  1.1147
 6242TIP3   OH240140   3.075   4.333   1.219 -0.2800  0.5110  0.8599
 6242TIP3    H140141   2.982   4.356   1.230 -0.9690 -1.8650  0.6149
 6242TIP3    H240142   3.077   4.277   1.142  1.4392  0.7492  0.6904
 6243TIP3   OH240143   4.741   1.564  15.088 -0.3945 -0.0107 -0.0607
 6243TIP3    H140144   4.741   1.470  15.106  0.6830 -0.0423 -0.1135
 6243TIP3    H240145   4.833   1.589  15.097 -0.8623  1.3319  1.4332
 6244TIP3   OH240146   6.408   2.599   0.403 -0.0984  0.3761 -0.2691
 6244TIP3    H140147   6.412   2.585   0.498 -0.2354  1.5857 -0.0599
 6244TIP3    H240148   6.332   2.548   0.374  0.6119 -0.9091  0.0782
 6245TIP3   OH240149   5.409   3.573  13.683  0.0980  0.6062 -0.2596
 6245TIP3    H140150   5.388   3.480  13.692 -0.3973  0.5023 -2.2290
 6245TIP3    H240151   5.409   3.606  13.773 -1.0800 -0.9969  0.3698
 6246TIP3   OH240152   0.027   5.957  12.775  0.0883  0.0609 -0.4730
 6246TIP3    H140153  -0.023   6.030  12.813 -0.2444  0.3621 -1.4682
 6246TIP3    H240154   0.059   5.908  12.851 -2.1049 -0.4104  0.2305
 6247TIP3   OH240155   5.710   5.132  13.394 -0.3455  0.6871  0.2165
 6247TIP3    H140156   5.679   5.205  13.341  0.1162  0.8402  0.1498
 6247TIP3    H240157   5.797   5.113  13.360  0.0866  0.9905  1.1070
 6248TIP3   OH240158   1.211   5.764  11.817 -0.0896 -0.0885 -0.0362
 6248TIP3    H140159   1.270   5.769  11.741  0.4081 -1.1985  0.2605
 6248TIP3    H240160   1.265   5.727  11.887 -1.1285 -1.1512  0.2354
 6249TIP3   OH240161   4.368   6.377  14.178 -0.2049  0.0223  0.4721
 6249TIP3    H140162   4.454   6.399  14.215  0.8338  0.3176 -1.9059
 6249TIP3    H240163   4.341   6.298  14.225  2.0932 -0.9336  0.3452
 6250TIP3   OH240164   5.854   3.850   5.446  0.0474 -0.2361 -0.3686
 6250TIP3    H140165   5.765   3.867   5.478  0.5342  0.4956  0.6348
 6250TIP3    H240166   5.884   3.775   5.498  1.3785  1.8495  2.0714
 6251TIP3   OH240167   1.135   4.638  14.063 -0.0301  0.1749 -0.3940
 6251TIP3    H140168   1.161   4.724  14.097 -2.3882  0.1646  1.6887
 6251TIP3    H240169   1.045   4.650  14.033 -0.1910 -1.4240 -0.6208
 6252TIP3   OH240170   4.795   1.710   3.669  0.2446  0.0641 -0.5182
 6252TIP3    H140171   4.756   1.623   3.670 -0.7366  0.4814  1.0952
 6252TIP3    H240172   4.889   1.694   3.662  0.1347 -1.1588  0.4801
 6253TIP3   OH240173   4.245   3.403  11.174  0.0438  0.5172 -0.3255
 6253TIP3    H140174   4.302   3.473  11.142 -0.4751  2.7646  3.1796
 6253TIP3    H240175   4.157   3.439  11.169 -0.4681 -0.6684 -0.2325
 6254TIP3   OH240176   1.016   3.741   1.660  0.1817 -0.1724 -0.0193
 6254TIP3    H140177   1.059   3.825   1.679  1.0406 -0.9790  1.9699
 6254TIP3    H240178   0.933   3.746   1.707  0.5539 -0.6668  0.7274
 6255TIP3   OH240179   4.648   2.132   5.522 -0.2940  0.5119  0.0135
 6255TIP3    H140180   4.560   2.169   5.520  0.1765  1.9479  2.3296
 6255TIP3    H240181   4.706   2.208   5.530  1.2955 -0.3195 -2.2890
 6256TIP3   OH240182   1.934   0.520  12.044 -0.5280 -0.1498 -0.0788
 6256TIP3    H140183   1.952   0.599  12.094 -0.9261 -0.5061  0.6389
 6256TIP3    H240184   2.008   0.462  12.064 -0.6239 -0.2450  0.0028
 6257TIP3   OH240185   1.944   3.940   4.213  0.1646  0.2771  0.3889
 6257TIP3    H140186   1.999   3.929   4.135 -0.5956  0.8188 -0.2412
 6257TIP3    H240187   1.855   3.948   4.178 -0.1068  1.2170  1.2657
 6258TIP3   OH240188   1.935   3.288   0.973  0.0147 -0.0535 -0.1182
 6258TIP3    H140189   2.008   3.344   1.000 -1.7946  2.0507  0.6689
 6258TIP3    H240190   1.933   3.295   0.878  0.2070  0.7304 -0.0726
 6259TIP3   OH240191   0.614   5.500   4.455  0.0512 -0.4613 -0.3074
 6259TIP3    H140192   0.561   5.484   4.533  1.2003  2.2801  1.1671
 6259TIP3    H240193   0.703   5.473   4.480  0.5354  0.9610 -0.4312
 6260TIP3   OH240194   3.731   5.059  16.679 -0.2208 -0.4688 -0.2969
 6260TIP3    H140195   3.782   5.021  16.607 -0.9207  1.1220 -1.7051
 6260TIP3    H240196   3.720   5.151  16.654  0.0087  0.2919  2.1593
 6261TIP3   OH240197   5.724   0.176  15.665 -0.0084  0.8302 -0.3195
 6261TIP3    H140198   5.667   0.119  15.717  0.5622  0.8280  0.3148
 6261TIP3    H240199   5.811   0.166  15.704  0.4026  0.9640 -1.1652
 6262TIP3   OH240200   0.710   6.593  14.898 -0.5524  0.7082  0.0008
 6262TIP3    H140201   0.775   6.527  14.917 -1.6300 -0.9868 -1.7827
 6262TIP3    H240202   0.677   6.621  14.983 -0.0929 -1.1162  0.8134
 6263TIP3   OH240203   5.252   6.290  16.619 -0.2110  0.5256  0.3215
 6263TIP3    H140204   5.199   6.346  16.674 -0.0330  1.2345 -0.2109
 6263TIP3    H240205   5.323   6.346  16.588  1.0439 -0.4783  1.2611
 6264TIP3   OH240206   1.562   2.251   2.869 -0.2730  0.0800 -0.2573
 6264TIP3    H140207   1.509   2.224   2.794 -1.7239  0.7052  0.4956
 6264TIP3    H240208   1.652   2.238   2.841 -0.8071 -0.6908 -1.7219
 6265TIP3   OH240209   1.085   5.924  15.589 -0.0577 -0.2809 -0.0743
 6265TIP3    H140210   1.163   5.977  15.570  0.5850 -1.3565 -0.5496
 6265TIP3    H240211   1.015   5.965  15.538  0.3269  0.3439 -0.1165
 6266TIP3   OH240212   0.222   6.600   4.828  0.4941 -0.2066  0.0061
 6266TIP3    H140213   0.294   6.560   4.779 -1.2783 -0.3633 -2.6288
 6266TIP3    H240214   0.186   6.666   4.769 -2.1420 -0.8062  0.8298
 6267TIP3   OH240215   4.816   3.439  16.388  0.2983  0.1685 -0.3664
 6267TIP3    H140216   4.812   3.533  16.407 -1.0213 -0.2541  1.8151
 6267TIP3    H240217   4.725   3.410  16.390  0.5052 -0.9022 -2.7831
 6268TIP3   OH240218   1.051   3.403  13.215 -0.1573 -0.0836  0.8604
 6268TIP3    H140219   1.094   3.463  13.153 -0.3851 -0.4767  0.3100
 6268TIP3    H240220   1.043   3.454  13.296 -1.1645  0.9689  0.1417
 6269TIP3   OH240221   2.083   0.619  15.509  0.8168 -0.6089 -0.0065
 6269TIP3    H140222   2.043   0.694  15.465  1.6169  1.1188  2.0462
 6269TIP3    H240223   2.011   0.556  15.519 -0.5205  0.9173  0.4278
 6270TIP3   OH240224   2.951   2.656  13.663  0.4352 -0.1340 -0.0368
 6270TIP3    H140225   2.895   2.583  13.637  0.4645 -0.7732  1.5287
 6270TIP3    H240226   3.028   2.649  13.607  0.6072 -1.5678  0.3434
 6271TIP3   OH240227   3.558   3.223  14.751 -0.3280  0.4971 -0.2961
 6271TIP3    H140228   3.634   3.189  14.798  0.3232  1.6246 -0.4913
 6271TIP3    H240229   3.584   3.222  14.659 -0.6035  0.7523 -0.3799
 6272TIP3   OH240230   1.361   6.367  12.114  0.2879  0.1913  0.3645
 6272TIP3    H140231   1.450   6.343  12.138  0.5026  0.1058 -0.4940
 6272TIP3    H240232   1.364   6.379  12.019 -0.9462 -1.3045  0.1044
 6273TIP3   OH240233   0.761   5.191  16.919  0.0855 -0.5020  0.8215
 6273TIP3    H140234   0.721   5.182  17.005  1.3015 -1.1558  1.3376
 6273TIP3    H240235   0.779   5.284  16.911  0.4458 -0.5095  1.4944
 6274TIP3   OH240236   3.361   1.455  11.179 -0.0065 -0.3815 -0.3468
 6274TIP3    H140237   3.442   1.430  11.135 -0.7511 -1.9718 -0.8686
 6274TIP3    H240238   3.343   1.383  11.239 -1.0945 -0.1076 -0.3223
 6275TIP3   OH240239   1.186   1.719   3.253  0.8304 -0.2711  0.4701
 6275TIP3    H140240   1.259   1.775   3.281  1.6694 -1.6014  1.0496
 6275TIP3    H240241   1.107   1.769   3.275  1.5142  0.0079  2.5154
 6276TIP3   OH240242   6.125   5.402   1.402  0.1107 -0.1988  0.1402
 6276TIP3    H140243   6.186   5.474   1.386 -0.8229  0.8361  1.1369
 6276TIP3    H240244   6.115   5.361   1.316 -2.2318  3.1941 -1.4381
 6277TIP3   OH240245   1.728   4.199   6.107 -0.3586 -0.1820 -0.8472
 6277TIP3    H140246   1.792   4.164   6.169 -1.3234  2.7533  2.0939
 6277TIP3    H240247   1.775   4.269   6.062 -1.0110  1.0626  0.3324
 6278TIP3   OH240248   2.314   0.189   1.343 -0.4802  0.1713 -0.6836
 6278TIP3    H140249   2.343   0.231   1.424  0.3288 -0.2795 -0.7338
 6278TIP3    H240250   2.342   0.098   1.351 -0.5117  0.0898 -1.4148
 6279TIP3   OH240251   6.104   5.584   3.744 -0.6175  0.0284  0.3529
 6279TIP3    H140252   6.110   5.641   3.820  0.3910 -0.8401  0.9495
 6279TIP3    H240253   6.193   5.555   3.728 -1.1933 -1.9384  0.5025
 6280TIP3   OH240254   5.624   2.671  14.954 -0.1868  0.4378  0.5821
 6280TIP3    H140255   5.643   2.582  14.924 -2.0998 -0.8907  2.9184
 6280TIP3    H240256   5.575   2.711  14.882  1.4504 -0.0288 -0.8536
 6281TIP3   OH240257   0.579   6.572   0.377 -0.4854 -0.0477 -0.2868
 6281TIP3    H140258   0.503   6.550   0.431  0.7456 -1.0633  1.1111
 6281TIP3    H240259   0.593   6.495   0.322 -0.7849  0.3641 -0.9562
 6282TIP3   OH240260   2.093   3.046  16.626  0.4096 -0.0795  0.2730
 6282TIP3    H140261   2.071   3.132  16.592 -1.1162  0.2091  1.8592
 6282TIP3    H240262   2.165   3.061  16.687 -0.1726  0.1476  0.9062
 6283TIP3   OH240263   6.533   4.949   4.165  1.0754  0.1265  0.5136
 6283TIP3    H140264   6.520   4.862   4.128  0.5245  0.3525  0.1601
 6283TIP3    H240265   6.593   4.936   4.238 -0.4707 -0.8479  1.6589
 6284TIP3   OH240266   0.674   3.797   5.167  0.2816  0.4871 -0.1781
 6284TIP3    H140267   0.692   3.789   5.261 -1.8309  0.8244  0.2933
 6284TIP3    H240268   0.665   3.707   5.137  1.2744  0.3629 -0.1610
 6285TIP3   OH240269   2.448   4.854  16.477  0.0366 -0.4006  0.1387
 6285TIP3    H140270   2.429   4.948  16.486 -0.7682 -0.3759 -1.4915
 6285TIP3    H240271   2.448   4.821  16.567  1.2179  1.3061  0.8156
 6286TIP3   OH240272   4.808   2.239   6.341 -0.1669 -0.2881 -0.0750
 6286TIP3    H140273   4.775   2.194   6.418  1.6029 -0.4505  0.6356
 6286TIP3    H240274   4.775   2.188   6.267 -2.2059  0.0879  0.5061
 6287TIP3   OH240275   2.087   1.351   1.091  0.3733 -0.0412 -0.4091
 6287TIP3    H140276   2.088   1.439   1.128 -0.1008 -0.0602 -0.3451
 6287TIP3    H240277   2.175   1.317   1.107 -0.5063 -1.0527  3.1494
 6288TIP3   OH240278   3.139   3.712  14.254 -0.0374 -0.0421 -0.3715
 6288TIP3    H140279   3.123   3.690  14.162  0.3460 -0.4236 -0.3479
 6288TIP3    H240280   3.231   3.689  14.269 -0.1811 -0.2698  0.1910
 6289TIP3   OH240281   6.369   6.688  13.219 -0.1825 -0.1436  0.0936
 6289TIP3    H140282   6.333   6.667  13.133 -0.1018  0.8093 -0.1867
 6289TIP3    H240283   6.414   6.608  13.247 -0.2155 -0.4625 -0.7476
 6290TIP3   OH240284   1.079   4.587  14.982 -0.1819  0.5484 -0.3590
 6290TIP3    H140285   1.024   4.621  14.911 -0.4126 -0.5610 -0.7267
 6290TIP3    H240286   1.145   4.655  14.996 -0.5581  1.0865 -1.1552
 6291TIP3   OH240287   1.205   3.276   3.960 -0.1160 -0.0113 -0.4876
 6291TIP3    H140288   1.234   3.196   4.005 -1.7862  0.0807  0.8568
 6291TIP3    H240289   1.280   3.335   3.964 -0.4133  0.3245  3.0504
 6292TIP3   OH240290   0.476   0.460  11.225 -0.2170 -0.3292 -0.6218
 6292TIP3    H140291   0.447   0.547  11.250 -0.6749 -0.7381  0.2969
 6292TIP3    H240292   0.502   0.469  11.133 -3.5208 -0.0057 -1.6260
 6293TIP3   OH240293   5.141   1.202   3.174  0.1343 -0.0143  0.4219
 6293TIP3    H140294   5.165   1.194   3.081 -0.0983 -2.7688  0.5113
 6293TIP3    H240295   5.093   1.284   3.179 -1.0536 -0.4139 -2.2147
 6294TIP3   OH240296   2.462   2.210   4.133  0.2759  0.0241 -0.3399
 6294TIP3    H140297   2.487   2.204   4.041 -1.6065  0.3839 -0.9228
 6294TIP3    H240298   2.401   2.137   4.147  0.8545 -0.2781  0.7424
 6295TIP3   OH240299   0.436   4.931  13.820  0.1409  0.3735  0.3342
 6295TIP3    H140300   0.492   5.008  13.806 -1.1822  1.2472 -0.3545
 6295TIP3    H240301   0.347   4.967  13.824 -0.3824 -0.9642  1.5261
 6296TIP3   OH240302   4.355   1.702   5.176  0.2467 -0.0689  0.4607
 6296TIP3    H140303   4.347   1.794   5.201  1.9108  0.3251 -0.3716
 6296TIP3    H240304   4.381   1.658   5.257  1.9560  0.6164  0.3194
 6297TIP3   OH240305   1.832   5.709  15.453  0.1537 -0.2409  0.0289
 6297TIP3    H140306   1.859   5.675  15.539  0.5376  2.8051  1.2428
 6297TIP3    H240307   1.740   5.731  15.464  0.3886  0.8392 -0.0558
 6298TIP3   OH240308   6.670   0.260  15.041 -0.1187 -0.4884 -0.2165
 6298TIP3    H140309   6.620   0.259  14.960 -0.3467  1.1907 -0.1458
 6298TIP3    H240310   6.752   0.216  15.020 -0.3088 -0.3632 -1.2710
 6299TIP3   OH240311   1.509   5.595  11.776 -0.2479 -0.3367  0.2880
 6299TIP3    H140312   1.458   5.550  11.843  0.6520 -0.8606  0.6283
 6299TIP3    H240313   1.472   5.566  11.693 -1.4464  0.4052  0.5419
 6300TIP3   OH240314   1.246   1.281   5.791  0.5015  0.2046 -0.3773
 6300TIP3    H140315   1.320   1.248   5.843  1.3987  3.0913  0.3890
 6300TIP3    H240316   1.268   1.260   5.701  1.3105 -0.6729  0.0150
 6301TIP3   OH240317   3.329   0.965  15.972 -0.2750  0.0444  0.2175
 6301TIP3    H140318   3.248   1.001  15.936 -0.8919 -0.2813  1.2509
 6301TIP3    H240319   3.396   1.028  15.946 -0.8012  0.1473 -0.9354
 6302TIP3   OH240320   0.053   4.847   4.704 -0.2276 -0.1810  0.3330
 6302TIP3    H140321   0.023   4.759   4.683 -1.8551  0.6404 -1.1540
 6302TIP3    H240322   0.089   4.841   4.792 -1.1309 -2.1429  0.6205
 6303TIP3   OH240323   3.006   2.134   0.622 -0.0878 -0.7563 -0.1785
 6303TIP3    H140324   2.927   2.163   0.574 -0.0957 -1.4914 -0.6181
 6303TIP3    H240325   3.047   2.070   0.564  1.6104  0.6165 -0.5944
 6304TIP3   OH240326   3.589   0.997   6.418  0.4681 -0.1593 -0.0795
 6304TIP3    H140327   3.539   1.075   6.445 -0.1832 -1.2422  2.0635
 6304TIP3    H240328   3.676   1.011   6.454  0.4120 -0.3097  0.1173
 6305TIP3   OH240329   5.403   3.148   4.800 -0.3882 -0.5128 -0.1801
 6305TIP3    H140330   5.439   3.113   4.718  1.3121  0.9124 -0.0878
 6305TIP3    H240331   5.413   3.076   4.862 -0.2393 -1.0814 -0.8389
 6306TIP3   OH240332   6.217   1.548   5.437  0.3594  0.6586  0.3506
 6306TIP3    H140333   6.242   1.460   5.410 -2.2906 -0.0491 -0.0696
 6306TIP3    H240334   6.142   1.535   5.495  0.7179  2.6111  1.3463
 6307TIP3   OH240335   1.182   2.220   3.171  0.7090 -0.2407  0.5726
 6307TIP3    H140336   1.142   2.305   3.187  1.9887  0.9606 -2.0874
 6307TIP3    H240337   1.268   2.225   3.213 -0.1921 -1.2774  2.6824
 6308TIP3   OH240338   1.444   0.615  14.386  0.1767  0.0322 -0.1146
 6308TIP3    H140339   1.468   0.526  14.361  0.9663  0.1575  0.1811
 6308TIP3    H240340   1.364   0.604  14.438  1.4009 -0.7181  1.6854
 6309TIP3   OH240341   1.266   4.117   5.784 -0.4772 -0.1707 -0.1406
 6309TIP3    H140342   1.240   4.193   5.837  0.6536 -1.2504  2.0722
 6309TIP3    H240343   1.360   4.129   5.769 -0.7518  0.0651 -1.9106
 6310TIP3   OH240344   2.560   2.577  12.971 -0.3273 -0.1514 -0.5447
 6310TIP3    H140345   2.529   2.607  12.885 -1.1006  0.6409  0.0017
 6310TIP3    H240346   2.648   2.542  12.953  0.3885  1.8676 -1.3398
 6311TIP3   OH240347   3.629   1.380  11.097 -0.1345 -0.1088  0.7090
 6311TIP3    H140348   3.647   1.415  11.184  1.2745 -0.8720  0.7471
 6311TIP3    H240349   3.694   1.311  11.084 -0.2426  0.0558 -0.9926
 6312TIP3   OH240350   1.987   4.726  11.452 -0.0587 -0.0724  0.3938
 6312TIP3    H140351   2.073   4.688  11.432 -0.1741  0.0876 -0.4329
 6312TIP3    H240352   1.939   4.655  11.494  0.0293 -0.5781 -0.3447
 6313TIP3   OH240353   3.426   1.973   2.169 -0.4821 -0.3992 -0.1745
 6313TIP3    H140354   3.438   1.899   2.110  0.3748  0.9225 -1.7462
 6313TIP3    H240355   3.443   1.938   2.256  2.6074 -1.4896 -1.0914
 6314TIP3   OH240356   4.252   2.605  16.367 -0.2341 -0.1104 -0.4570
 6314TIP3    H140357   4.166   2.639  16.343 -1.5692 -1.7460  1.6469
 6314TIP3    H240358   4.254   2.518  16.327  0.5610 -0.0119 -0.6440
 6315TIP3   OH240359   2.052   0.991  15.078 -0.1441  0.0488 -0.2239
 6315TIP3    H140360   2.118   0.973  15.012  0.8908  1.7763  0.2641
 6315TIP3    H240361   2.056   1.085  15.092 -1.4035 -0.0485  1.1973
 6316TIP3   OH240362   2.757   3.605  13.688 -0.3831 -1.0405  0.2123
 6316TIP3    H140363   2.825   3.661  13.725 -0.8884  0.3314 -0.8578
 6316TIP3    H240364   2.686   3.665  13.666 -0.4035 -1.8638 -2.2578
 6317TIP3   OH240365   0.184   1.909   0.107  0.2554 -0.1561 -0.2156
 6317TIP3    H140366   0.151   1.825   0.140 -0.2339 -0.3771 -1.2260
 6317TIP3    H240367   0.233   1.885   0.028  0.5071  0.4646 -0.2490
 6318TIP3   OH240368   1.088   5.161   4.432  0.1057  0.0542 -0.5874
 6318TIP3    H140369   1.000   5.131   4.453  0.9262 -0.6395  2.2501
 6318TIP3    H240370   1.080   5.256   4.422 -0.5550  0.4490  2.6890
 6319TIP3   OH240371   4.342   0.973  14.894  0.3830  0.4536 -0.6707
 6319TIP3    H140372   4.394   1.047  14.925 -0.3935  0.7065  0.0618
 6319TIP3    H240373   4.389   0.941  14.817  1.2799  1.0618 -0.3924
 6320TIP3   OH240374   1.861   5.105  12.141  0.2472 -0.1037 -0.2246
 6320TIP3    H140375   1.828   5.183  12.096 -1.6521  1.1368  2.9873
 6320TIP3    H240376   1.807   5.034  12.109 -0.0287  0.4341 -0.9811
 6321TIP3   OH240377   0.312   2.577  15.807  0.3748  0.4261 -0.0628
 6321TIP3    H140378   0.368   2.648  15.837 -2.6741  1.8826  2.6882
 6321TIP3    H240379   0.224   2.613  15.806 -1.0010 -2.5604 -1.3473
 6322TIP3   OH240380   1.469   5.150   2.034  0.2949 -0.4485 -0.1143
 6322TIP3    H140381   1.419   5.158   2.115 -0.5729 -0.3132 -0.6376
 6322TIP3    H240382   1.458   5.059   2.007  0.9211 -0.5988  0.1218
 6323TIP3   OH240383   1.439   4.321  14.493  0.4967  0.4870  0.0262
 6323TIP3    H140384   1.519   4.279  14.523  0.6534  0.4859 -0.3844
 6323TIP3    H240385   1.466   4.371  14.416 -0.4676 -2.0289 -2.0975
 6324TIP3   OH240386   1.671   2.878   3.320 -0.5808 -0.1788  0.4883
 6324TIP3    H140387   1.656   2.822   3.396 -1.4991 -1.2883 -0.4701
 6324TIP3    H240388   1.640   2.965   3.347  2.3532  0.3590  2.5533
 6325TIP3   OH240389   2.996   4.112  15.485 -0.5327 -0.3568  0.0136
 6325TIP3    H140390   2.902   4.120  15.467 -0.8810 -1.1894  1.3177
 6325TIP3    H240391   3.006   4.143  15.575  0.9800  2.6846 -1.0570
 6326TIP3   OH240392   0.734   0.224  15.510  0.3909  0.0040 -0.0713
 6326TIP3    H140393   0.639   0.225  15.507  0.1460 -2.0929  2.7387
 6326TIP3    H240394   0.755   0.187  15.596  3.7749  3.2276  0.7587
 6327TIP3   OH240395   6.540   3.826  11.686  0.0147 -0.1173 -0.2600
 6327TIP3    H140396   6.515   3.906  11.732  0.7712  0.4670 -0.8422
 6327TIP3    H240397   6.495   3.756  11.734  0.8378  0.4518  1.4215
 6328TIP3   OH240398   1.252   0.924  10.604 -0.4636 -0.1798 -0.5939
 6328TIP3    H140399   1.214   0.860  10.544 -0.1950  1.4203 -2.5950
 6328TIP3    H240400   1.199   1.003  10.592  1.0564  0.9021 -0.5598
 6329TIP3   OH240401   2.575   0.626   6.110 -0.0812 -0.2683 -0.0395
 6329TIP3    H140402   2.506   0.686   6.136  0.4700  0.5583 -0.4502
 6329TIP3    H240403   2.654   0.659   6.155  0.2942 -0.4862 -0.5290
 6330TIP3   OH240404   4.162   0.366  12.279 -0.2523  0.6623 -0.2429
 6330TIP3    H140405   4.174   0.326  12.193 -0.4487  1.2430 -0.5466
 6330TIP3    H240406   4.244   0.348  12.325 -0.2520  0.1111 -0.4478
 6331TIP3   OH240407   0.108   2.208  11.524  0.4352 -0.7736  0.2320
 6331TIP3    H140408   0.203   2.210  11.540  0.3003  0.9396  1.0772
 6331TIP3    H240409   0.100   2.204  11.429  1.3514 -1.3941  0.1663
 6332TIP3   OH240410   6.234   1.939   2.766 -0.1642  0.0837 -0.4343
 6332TIP3    H140411   6.201   2.029   2.770 -2.1908 -0.6357  0.5655
 6332TIP3    H240412   6.312   1.940   2.822 -0.0337  1.2677 -0.6152
 6333TIP3   OH240413   2.138   1.632   1.101  0.3924  0.0025 -0.1636
 6333TIP3    H140414   2.233   1.616   1.100 -0.0878 -3.6908  0.2112
 6333TIP3    H240415   2.119   1.652   1.192  0.7172  0.1434 -0.1225
 6334TIP3   OH240416   5.806   5.875  13.126 -0.3973  0.6008  0.4574
 6334TIP3    H140417   5.768   5.963  13.126 -0.0494  0.8268 -2.0237
 6334TIP3    H240418   5.741   5.821  13.080  0.1781 -0.0558  0.3952
 6335TIP3   OH240419   1.291   2.494   5.785  0.6768  0.2685  0.2246
 6335TIP3    H140420   1.350   2.511   5.858  0.8189  0.2239  0.1208
 6335TIP3    H240421   1.328   2.542   5.711  0.2338  0.7624  0.3130
 6336TIP3   OH240422   5.094   3.480   1.780 -0.6923 -0.1645  0.1528
 6336TIP3    H140423   5.163   3.543   1.760 -0.9165 -0.0937 -0.4095
 6336TIP3    H240424   5.132   3.424   1.848  0.1933 -0.5903 -0.6699
 6337TIP3   OH240425   0.379   5.894   4.922 -0.0272  0.1716 -0.0627
 6337TIP3    H140426   0.325   5.822   4.890 -1.3914  1.0582  0.1417
 6337TIP3    H240427   0.444   5.908   4.853  1.4754 -2.3911  0.6697
 6338TIP3   OH240428   5.267   2.779   1.244 -0.4735 -0.2427 -0.2441
 6338TIP3    H140429   5.294   2.852   1.187  0.3432 -0.9380 -0.7645
 6338TIP3    H240430   5.246   2.708   1.184 -0.0659 -0.8332  0.2954
 6339TIP3   OH240431   1.805   2.034  15.480 -0.2422 -0.7837 -0.1467
 6339TIP3    H140432   1.714   2.035  15.509  0.3058  2.2035  1.8895
 6339TIP3    H240433   1.849   2.098  15.536  2.0451  1.8107 -4.3324
 6340TIP3   OH240434   5.908   5.021  16.412 -0.0474 -0.4025 -0.0426
 6340TIP3    H140435   5.873   4.961  16.478  0.0709 -1.2966 -0.7640
 6340TIP3    H240436   5.830   5.058  16.369 -0.1382  0.7234  1.0401
 6341TIP3   OH240437   1.460   5.832  14.409 -0.3965  0.4172 -0.3099
 6341TIP3    H140438   1.365   5.839  14.416 -0.4418 -0.8502  0.7743
 6341TIP3    H240439   1.486   5.780  14.484  1.3707  2.1181  0.3419
 6342TIP3   OH240440   2.026   4.869  15.603 -0.5726  0.3673  0.7606
 6342TIP3    H140441   1.931   4.860  15.608 -0.5388 -0.3182  0.2391
 6342TIP3    H240442   2.042   4.963  15.610 -1.3571  0.5852 -0.2783
 6343TIP3   OH240443   2.908   1.149   1.292 -0.2169 -0.3234  0.5329
 6343TIP3    H140444   2.918   1.220   1.229  2.0299 -0.8030  0.2688
 6343TIP3    H240445   2.894   1.071   1.239  0.6663 -0.5754  0.6675
 6344TIP3   OH240446   6.090   6.247  16.088 -0.4364  0.1856  0.0981
 6344TIP3    H140447   6.068   6.156  16.071  0.0757 -0.0735  0.8120
 6344TIP3    H240448   6.143   6.246  16.167 -1.1640  1.1930  0.6366
 6345TIP3   OH240449   1.106   3.335   3.704  0.6083 -0.0435  0.2042
 6345TIP3    H140450   1.052   3.413   3.716  0.7120 -0.0451  0.7133
 6345TIP3    H240451   1.147   3.321   3.790  0.5984 -0.6485  0.1130
 6346TIP3   OH240452   6.633   4.724  12.958 -0.2297  0.4691  0.2298
 6346TIP3    H140453   6.719   4.686  12.974 -0.4473 -0.3209 -0.4067
 6346TIP3    H240454   6.643   4.774  12.876 -0.3731  0.3858  0.1605
 6347TIP3   OH240455   4.716   2.496   6.301  0.6128  0.1837 -0.3749
 6347TIP3    H140456   4.737   2.403   6.299  0.7332  0.2069 -0.1506
 6347TIP3    H240457   4.667   2.508   6.382 -1.1198 -0.0558 -1.3367
 6348TIP3   OH240458   1.340   6.639  17.212  1.2379 -0.3495  0.6673
 6348TIP3    H140459   1.245   6.646  17.202  1.1444 -0.7417  1.2595
 6348TIP3    H240460   1.352   6.581  17.287  1.9507 -0.6323  0.3366
 6349TIP3   OH240461   3.756   0.493  14.103 -0.1759  0.4637 -0.8151
 6349TIP3    H140462   3.711   0.563  14.152 -1.2803 -1.5648  1.2680
 6349TIP3    H240463   3.705   0.483  14.023 -1.3182  0.6144 -0.1265
 6350TIP3   OH240464   2.677   3.125  17.223  0.3370 -0.2998  0.1229
 6350TIP3    H140465   2.616   3.138  17.295 -1.0107 -0.7307 -0.8895
 6350TIP3    H240466   2.701   3.214  17.196  0.8651 -0.1371  1.0777
 6351TIP3   OH240467   6.678   5.373  10.648 -0.5448 -0.4304 -0.0475
 6351TIP3    H140468   6.752   5.350  10.592 -1.6556  0.0180 -1.7647
 6351TIP3    H240469   6.687   5.468  10.661  0.8308 -0.7982  2.2944
 6352TIP3   OH240470   6.695   3.929  15.328  0.0453 -0.2246  0.1563
 6352TIP3    H140471   6.781   3.919  15.369  0.3306 -1.9308 -0.7515
 6352TIP3    H240472   6.709   3.903  15.237 -1.3752 -0.2846 -0.0672
 6353TIP3   OH240473   4.563   3.114   1.234  0.3814 -0.0815 -0.0019
 6353TIP3    H140474   4.567   3.058   1.157 -1.4382 -0.5054  0.1904
 6353TIP3    H240475   4.648   3.101   1.277  0.9106 -0.8280 -1.2211
 6354TIP3   OH240476   5.141   0.339  15.652  0.2208 -0.1115  0.0783
 6354TIP3    H140477   5.061   0.295  15.625  0.1385 -0.7657  1.2967
 6354TIP3    H240478   5.112   0.408  15.711  0.5642 -0.7681  1.0472
 6355TIP3   OH240479   4.805   2.118   5.760 -0.0632 -0.2948 -0.4887
 6355TIP3    H140480   4.726   2.097   5.710 -0.3291 -0.9231  0.1725
 6355TIP3    H240481   4.829   2.036   5.803  0.0888  0.2399  0.4913
 6356TIP3   OH240482   4.744   6.329  16.252 -0.0841 -0.5722 -0.1289
 6356TIP3    H140483   4.659   6.291  16.232  0.0500  0.3764 -2.9926
 6356TIP3    H240484   4.724   6.408  16.302 -0.8126 -0.9370  0.1691
 6357TIP3   OH240485   2.744   0.608   1.344 -0.0675 -0.4046 -0.1035
 6357TIP3    H140486   2.771   0.650   1.425  1.0711  1.1413 -1.2170
 6357TIP3    H240487   2.820   0.617   1.286 -1.1947 -0.5405 -1.6744
 6358TIP3   OH240488   5.861   4.660  15.173  0.3220 -0.5125  0.3822
 6358TIP3    H140489   5.853   4.588  15.109  0.6569 -0.3300  0.1309
 6358TIP3    H240490   5.905   4.730  15.124  0.1232 -0.1862  0.6675
 6359TIP3   OH240491   2.680   1.176  11.986  0.0886 -0.0204  0.0592
 6359TIP3    H140492   2.725   1.254  11.954 -0.0491  1.1732  2.5482
 6359TIP3    H240493   2.589   1.188  11.961 -0.0103  0.8639  0.8047
 6360TIP3   OH240494   1.740   1.187   3.248 -0.3955  0.6063 -0.3297
 6360TIP3    H140495   1.772   1.132   3.319 -0.7657  1.5794  0.6078
 6360TIP3    H240496   1.818   1.207   3.196 -0.2923 -0.9741 -0.8416
 6361TIP3   OH240497   2.517   6.579  12.657  0.2074  0.0404  0.3751
 6361TIP3    H140498   2.493   6.648  12.718  0.1388  0.0733  0.3104
 6361TIP3    H240499   2.562   6.624  12.585 -0.2136  0.0679  0.1277
 6362TIP3   OH240500   3.649   2.549  15.691 -1.2071  0.2564  0.4616
 6362TIP3    H140501   3.670   2.588  15.606 -1.7459  0.0485  0.2255
 6362TIP3    H240502   3.733   2.538  15.734 -1.1043  2.7928  1.0556
 6363TIP3   OH240503   2.179   6.777   4.340  0.3538 -0.2244  0.5744
 6363TIP3    H140504   2.149   6.692   4.372  0.5058 -0.4298  0.1777
 6363TIP3    H240505   2.270   6.762   4.314 -0.2272 -0.4731 -1.4646
 6364TIP3   OH240506   2.747   5.447   2.165 -0.2317 -0.2660 -0.7315
 6364TIP3    H140507   2.793   5.444   2.081 -2.8684 -0.5734 -2.2701
 6364TIP3    H240508   2.763   5.536   2.198  1.2430 -0.3006 -1.2726
 6365TIP3   OH240509   6.617   4.188  12.769  0.6496  0.2670 -0.2560
 6365TIP3    H140510   6.532   4.165  12.805 -0.2149  2.0012 -1.0746
 6365TIP3    H240511   6.678   4.128  12.811 -0.8115 -0.2226  1.2583
 6366TIP3   OH240512   5.658   4.080   0.579  0.3010  0.4241  0.1603
 6366TIP3    H140513   5.599   4.010   0.552 -1.5624  1.9884  0.0036
 6366TIP3    H240514   5.736   4.034   0.611 -1.7910 -1.8543  2.4459
 6367TIP3   OH240515   6.703   0.724  14.675 -0.2242  0.1535  0.1573
 6367TIP3    H140516   6.716   0.738  14.582 -1.1379  2.3397  0.2929
 6367TIP3    H240517   6.760   0.650  14.697  0.4661 -0.0073 -1.9835
 6368TIP3   OH240518   1.550   4.675  13.747  0.3344 -0.0624  0.3743
 6368TIP3    H140519   1.545   4.740  13.677  0.5446  0.1460  0.5534
 6368TIP3    H240520   1.467   4.685  13.795  0.4871  0.2658  0.5719
 6369TIP3   OH240521   1.853   3.128   5.895 -0.0846  0.2558 -0.4925
 6369TIP3    H140522   1.800   3.048   5.903  1.4724 -0.8750 -0.8991
 6369TIP3    H240523   1.941   3.100   5.918  0.1005  2.4839  1.8962
 6370TIP3   OH240524   0.857   5.419  13.153  0.0343  0.2235 -0.3325
 6370TIP3    H140525   0.938   5.400  13.107  0.0794 -0.8583  0.1581
 6370TIP3    H240526   0.796   5.352  13.122 -0.6657  0.9867 -0.6556
 6371TIP3   OH240527   4.203   5.684   5.333 -0.7067  0.0633  0.0036
 6371TIP3    H140528   4.266   5.669   5.264  0.0614  1.3278  0.3919
 6371TIP3    H240529   4.237   5.760   5.381  0.0208 -2.0327  3.1693
 6372TIP3   OH240530   5.338   1.620   2.285 -0.2306  0.5129  0.0132
 6372TIP3    H140531   5.343   1.684   2.214 -1.0596  1.8552  1.1352
 6372TIP3    H240532   5.252   1.578   2.273 -0.2024  0.4564  0.0064
 6373TIP3   OH240533   0.640   6.386   0.172  0.3577  0.9317 -1.0042
 6373TIP3    H140534   0.722   6.434   0.185  1.1717 -0.8173  0.7821
 6373TIP3    H240535   0.640   6.320   0.240 -3.6577  2.2795  0.5851
 6374TIP3   OH240536   3.730   6.497  14.857 -0.2762  0.4873  0.3012
 6374TIP3    H140537   3.766   6.557  14.922 -0.0051  1.2211 -0.5030
 6374TIP3    H240538   3.798   6.491  14.790 -0.6679 -0.0219 -0.0612
 6375TIP3   OH240539   1.269   4.272   4.560 -0.1861 -0.3365  0.2518
 6375TIP3    H140540   1.225   4.193   4.529  0.0711 -0.8338  1.1257
 6375TIP3    H240541   1.276   4.328   4.482  0.0373 -1.3660 -0.4850
 6376TIP3   OH240542   2.823   5.966  14.501  0.0033  0.8023  0.1126
 6376TIP3    H140543   2.892   6.024  14.468  1.0949 -0.8015 -0.5505
 6376TIP3    H240544   2.867   5.883  14.516 -2.0031 -0.6900 -1.6111
 6377TIP3   OH240545   5.702   2.286  13.126 -0.5247 -0.1024 -0.0573
 6377TIP3    H140546   5.610   2.300  13.149 -0.4421 -0.1542  0.3180
 6377TIP3    H240547   5.700   2.232  13.048 -0.8113 -0.4173  0.1665
 6378TIP3   OH240548   3.928   1.050   1.850  0.5581 -0.1508  0.2958
 6378TIP3    H140549   3.882   1.053   1.766 -0.3516 -0.0212  0.7870
 6378TIP3    H240550   3.994   0.982   1.838  0.1646 -0.4253 -0.3931
 6379TIP3   OH240551   4.921   6.572   0.944  0.5593 -0.8267 -0.4064
 6379TIP3    H140552   4.892   6.658   0.975  0.6130 -0.4603 -1.3397
 6379TIP3    H240553   4.946   6.525   1.023 -0.8385 -0.4976  0.2625
 6380TIP3   OH240554   5.011   1.954  15.359  0.3067 -0.1252 -0.6408
 6380TIP3    H140555   5.084   2.009  15.389 -0.1588 -0.1059  0.5130
 6380TIP3    H240556   4.948   2.017  15.322  0.2858 -0.0000 -0.3947
 6381TIP3   OH240557   1.833   6.571  16.551 -0.3251 -0.1010  0.5135
 6381TIP3    H140558   1.756   6.547  16.603 -1.0869  0.6224 -0.2521
 6381TIP3    H240559   1.885   6.490  16.547 -1.3624 -0.7903  0.5076
 6382TIP3   OH240560   4.306   4.432  12.351  0.0589 -0.0484  0.0118
 6382TIP3    H140561   4.233   4.493  12.350 -0.6728 -0.8347  1.7762
 6382TIP3    H240562   4.384   4.487  12.362 -0.3725  0.7006 -0.6274
 6383TIP3   OH240563   1.277   5.599  16.496  0.5059 -0.5831  0.4560
 6383TIP3    H140564   1.232   5.655  16.559  0.8882 -1.3239  1.4201
 6383TIP3    H240565   1.290   5.517  16.542  2.3831 -0.5625  0.0384
 6384TIP3   OH240566   6.566   0.455  13.681  0.2190 -0.5591  0.3912
 6384TIP3    H140567   6.515   0.377  13.659 -1.1777  0.1023  1.1326
 6384TIP3    H240568   6.652   0.421  13.705 -0.5832 -1.9723  1.4497
 6385TIP3   OH240569   1.312   4.233  16.210 -0.0921  0.1069  0.1255
 6385TIP3    H140570   1.398   4.264  16.181  0.2691 -0.4046  0.6090
 6385TIP3    H240571   1.327   4.204  16.301 -0.5416 -0.8933 -0.1053
 6386TIP3   OH240572   0.670   0.786  16.181 -0.2033  0.3867  0.1837
 6386TIP3    H140573   0.699   0.743  16.261  1.7650 -0.4806 -0.8991
 6386TIP3    H240574   0.627   0.716  16.131 -0.3012  0.5924 -0.0218
 6387TIP3   OH240575   4.141   3.209  11.513 -0.1064 -0.0113 -0.2058
 6387TIP3    H140576   4.144   3.289  11.565 -0.1501 -0.2645  0.1866
 6387TIP3    H240577   4.072   3.225  11.448  1.3727  1.1445 -1.5850
 6388TIP3   OH240578   6.700   3.246   2.502 -0.2975  0.5394 -0.1422
 6388TIP3    H140579   6.742   3.251   2.416  0.7136 -0.3738  0.2693
 6388TIP3    H240580   6.690   3.337   2.529 -0.4504  0.8315 -1.1474
 6389TIP3   OH240581   5.221   4.760  13.915  0.2142  0.1545  0.3626
 6389TIP3    H140582   5.238   4.849  13.884 -2.3558  0.7414  0.4680
 6389TIP3    H240583   5.257   4.704  13.846 -0.1536  1.3146 -0.8141
 6390TIP3   OH240584   6.422   4.262   5.999  0.2658  0.2077  0.5143
 6390TIP3    H140585   6.414   4.308   5.915  1.5271  0.8170  0.6958
 6390TIP3    H240586   6.513   4.233   6.001  0.2928  0.3382  1.7358
 6391TIP3   OH240587   5.810   5.583   3.743 -0.2357  0.1350  0.6232
 6391TIP3    H140588   5.905   5.573   3.752 -0.1211  1.2442  0.7246
 6391TIP3    H240589   5.788   5.528   3.668  0.4593 -0.2462  0.6817
 6392TIP3   OH240590   5.168   5.277   6.034 -0.4038  0.4805  0.1327
 6392TIP3    H140591   5.098   5.305   6.094 -0.3150  0.8258  0.0782
 6392TIP3    H240592   5.244   5.264   6.091  0.1929  2.5790 -0.1055
 6393TIP3   OH240593   1.878   6.491   4.198  0.2907  0.1903 -0.2853
 6393TIP3    H140594   1.945   6.543   4.155  0.6045 -0.5263 -0.6902
 6393TIP3    H240595   1.822   6.461   4.126 -1.0778  1.6097  0.1417
 6394TIP3   OH240596   6.330   5.777   2.860  0.0883  0.2289  0.3302
 6394TIP3    H140597   6.393   5.705   2.865 -1.9615 -1.7085 -0.1875
 6394TIP3    H240598   6.323   5.797   2.767 -0.7460 -0.2595  0.2730
 6395TIP3   OH240599   6.258   2.123  13.124  0.1280  0.2340  0.0978
 6395TIP3    H140600   6.206   2.200  13.104 -1.6387 -0.9948 -0.2484
 6395TIP3    H240601   6.282   2.134  13.216  1.0960  1.8200 -0.3016
 6396TIP3   OH240602   0.952   0.611  14.372  0.3008  0.7065  0.1383
 6396TIP3    H140603   0.943   0.536  14.431  2.5113  0.0233 -0.3025
 6396TIP3    H240604   0.923   0.686  14.425 -0.0070 -0.1896  1.2796
 6397TIP3   OH240605   4.311   6.552  11.729  0.1341 -0.1645 -0.2597
 6397TIP3    H140606   4.357   6.631  11.757  1.9296 -0.8686 -1.0504
 6397TIP3    H240607   4.218   6.574  11.737  0.5781  2.1095 -0.7322
 6398TIP3   OH240608   6.510   3.360  12.826  0.3964  0.0369  0.5178
 6398TIP3    H140609   6.515   3.446  12.868 -0.2311  0.9048 -1.0693
 6398TIP3    H240610   6.566   3.304  12.879  2.5997  1.9612  0.3857
 6399TIP3   OH240611   4.145   3.136  17.249  0.2149 -0.2411  0.1983
 6399TIP3    H140612   4.119   3.159  17.160 -0.2288 -1.3370  0.0320
 6399TIP3    H240613   4.063   3.137  17.298  0.2023 -1.2825  0.2172
 6400TIP3   OH240614   3.936   1.844  15.680  0.6437  0.3661  0.1890
 6400TIP3    H140615   3.999   1.789  15.727 -0.8036 -0.5924  1.0815
 6400TIP3    H240616   3.885   1.783  15.627 -0.6584  0.9003  0.7915
 6401TIP3   OH240617   6.491   2.030   0.782 -0.9805  0.4842  0.2124
 6401TIP3    H140618   6.493   1.949   0.732 -1.4000  0.0500  0.8847
 6401TIP3    H240619   6.517   2.098   0.719 -0.5872 -0.1690 -0.3410
 6402TIP3   OH240620   1.155   0.434  10.431 -0.1167  0.3379  0.0445
 6402TIP3    H140621   1.228   0.472  10.382 -0.5404  2.6827  1.0880
 6402TIP3    H240622   1.196   0.375  10.494  0.5641 -1.1366 -1.6918
 6403TIP3   OH240623   3.000   0.499   4.917 -0.5429  0.1908 -0.0422
 6403TIP3    H140624   3.001   0.483   5.011 -1.0278 -0.3930 -0.1276
 6403TIP3    H240625   3.084   0.464   4.886 -0.5316  0.0654  0.1267
 6404TIP3   OH240626   4.973   1.521  12.491 -0.5486 -0.0892 -0.0610
 6404TIP3    H140627   4.982   1.426  12.496 -2.5019 -0.5154 -2.7202
 6404TIP3    H240628   5.032   1.554  12.559  0.1453 -3.1649  0.9936
 6405TIP3   OH240629   2.637   3.747  10.866  0.1230 -0.7913 -0.6960
 6405TIP3    H140630   2.713   3.805  10.856  0.7090 -1.6389 -1.2703
 6405TIP3    H240631   2.579   3.772  10.794  0.3120 -0.8300 -0.8623
 6406TIP3   OH240632   1.832   1.766  14.458 -0.3073 -0.1946 -0.2637
 6406TIP3    H140633   1.841   1.697  14.523  0.2868 -0.2839 -0.4382
 6406TIP3    H240634   1.784   1.836  14.504  0.1382 -0.2390  0.2849
 6407TIP3   OH240635   5.927   0.932   6.667  0.3424  0.6134 -0.1257
 6407TIP3    H140636   5.847   0.920   6.719 -1.2727 -1.2694 -2.7804
 6407TIP3    H240637   5.982   0.857   6.690 -1.6869 -2.0281 -3.0721
 6408TIP3   OH240638   5.161   6.566   2.554 -0.3119 -0.1170  0.9848
 6408TIP3    H140639   5.136   6.649   2.513 -0.8969 -0.0015  1.5557
 6408TIP3    H240640   5.121   6.499   2.499 -0.6370  0.0148  1.0615
 6409TIP3   OH240641   2.657   4.320  11.284 -0.0576 -0.2335  0.3166
 6409TIP3    H140642   2.739   4.338  11.328  0.7936  0.4300 -1.4258
 6409TIP3    H240643   2.610   4.404  11.285 -2.7847 -1.4602  5.0367
 6410TIP3   OH240644   6.545   1.125   3.938  0.1176  0.3050 -0.5793
 6410TIP3    H140645   6.522   1.079   4.019 -0.7638 -1.7074 -1.8720
 6410TIP3    H240646   6.606   1.066   3.894  1.1743  1.7165 -1.0674
 6411TIP3   OH240647   1.217   2.426  14.193 -0.4278  0.3679 -0.4157
 6411TIP3    H140648   1.214   2.522  14.197 -0.5367  0.3447  0.2146
 6411TIP3    H240649   1.261   2.407  14.110 -1.3396  0.9465 -1.0526
 6412TIP3   OH240650   4.557   0.117   4.198 -0.1709  0.5629  0.2091
 6412TIP3    H140651   4.608   0.089   4.122 -2.1677  1.2245 -1.4774
 6412TIP3    H240652   4.571   0.048   4.263 -0.2534 -1.2746 -1.6211
 6413TIP3   OH240653   6.183   1.617  14.751 -0.0018 -0.2203 -0.4859
 6413TIP3    H140654   6.228   1.701  14.762 -2.9680  1.3923  0.3344
 6413TIP3    H240655   6.214   1.563  14.825 -1.0111  1.6498  1.4110
 6414TIP3   OH240656   0.702   3.965   1.746  0.6751  0.7225  0.4877
 6414TIP3    H140657   0.665   4.044   1.786 -0.6446 -0.0383  0.8433
 6414TIP3    H240658   0.756   3.927   1.815  1.0042  1.1165  0.4485
 6415TIP3   OH240659   1.941   2.834  12.454  0.0951 -0.2983 -0.1675
 6415TIP3    H140660   1.949   2.742  12.429 -0.2838 -0.2390 -0.5170
 6415TIP3    H240661   1.937   2.881  12.371 -1.3017 -0.1069 -0.0118
 6416TIP3   OH240662   0.611   4.788  11.579 -0.3132 -0.7740 -0.5371
 6416TIP3    H140663   0.639   4.833  11.500  1.2260 -0.3736  0.1864
 6416TIP3    H240664   0.516   4.794  11.579 -0.2064  1.9814 -0.7740
 6417TIP3   OH240665   1.017   5.971   2.210 -0.2884  0.0583  0.6017
 6417TIP3    H140666   1.082   6.034   2.241  0.2725  0.3061 -0.9963
 6417TIP3    H240667   1.066   5.915   2.150 -1.0148 -1.2892  1.2366
 6418TIP3   OH240668   6.049   5.361   5.016 -0.5099 -0.2765 -0.6097
 6418TIP3    H140669   6.077   5.313   4.938 -0.8651  0.9041 -1.4931
 6418TIP3    H240670   6.130   5.384   5.061 -0.3623 -3.5479  1.0524
 6419TIP3   OH240671   4.572   4.124  12.641 -0.1202  0.3731  0.5182
 6419TIP3    H140672   4.657   4.163  12.662  0.5391 -0.8037  0.0787
 6419TIP3    H240673   4.587   4.073  12.562 -1.4469  0.8233 -0.0643
 6420TIP3   OH240674   1.181   2.804   3.855 -0.8090  0.6953  0.5072
 6420TIP3    H140675   1.108   2.864   3.867 -0.3177  1.3057  0.4654
 6420TIP3    H240676   1.212   2.821   3.766 -0.8659  0.1601  0.3823
 6421TIP3   OH240677   4.863   4.735  12.002 -0.4889 -0.2793 -0.3311
 6421TIP3    H140678   4.797   4.792  12.041  0.1718  2.3644 -2.7912
 6421TIP3    H240679   4.816   4.684  11.936 -0.1297  2.0033 -2.4769
 6422TIP3   OH240680   5.377   5.572   2.350 -0.7197 -0.4011  0.2740
 6422TIP3    H140681   5.319   5.521   2.293 -2.2577  1.7705 -0.2449
 6422TIP3    H240682   5.333   5.657   2.359  0.5279  0.0718  2.9992
 6423TIP3   OH240683   0.441   6.285   4.543 -0.0586 -0.2909 -0.6296
 6423TIP3    H140684   0.404   6.338   4.473  1.4078  0.3177 -0.9822
 6423TIP3    H240685   0.391   6.309   4.621 -1.5660 -0.8164 -1.3979
 6424TIP3   OH240686   3.266   1.178  12.363  0.3339 -0.0658 -0.6360
 6424TIP3    H140687   3.213   1.213  12.291  0.3761 -1.0931 -1.1931
 6424TIP3    H240688   3.273   1.250  12.425 -0.8720  0.4070 -1.0171
 6425TIP3   OH240689   2.186   2.729   2.391 -0.2197  0.3659  0.2323
 6425TIP3    H140690   2.143   2.695   2.313 -0.0528 -0.6366  0.5579
 6425TIP3    H240691   2.279   2.718   2.375 -0.1644  0.6209  0.3686
 6426TIP3   OH240692   5.590   4.973  13.847 -0.0639  0.0074 -0.1016
 6426TIP3    H140693   5.675   5.016  13.860 -0.1685  0.0030  0.6747
 6426TIP3    H240694   5.536   5.004  13.920  0.0755 -1.9712  0.9276
 6427TIP3   OH240695   4.865   6.311   3.391  0.4277 -0.0031  0.1401
 6427TIP3    H140696   4.788   6.289   3.442 -0.9730  0.6766 -1.5563
 6427TIP3    H240697   4.895   6.395   3.426  0.5651 -0.3960  0.9708
 6428TIP3   OH240698   4.930   0.807   4.246  0.6259 -0.6652 -0.2703
 6428TIP3    H140699   4.947   0.805   4.340  2.0553 -2.0881 -0.5209
 6428TIP3    H240700   4.844   0.765   4.237  0.2731 -0.1068  0.4296
 6429TIP3   OH240701   4.133   0.917   4.778 -0.3675  0.8549 -0.6562
 6429TIP3    H140702   4.064   0.965   4.822  0.9908  0.9628  1.5080
 6429TIP3    H240703   4.163   0.853   4.843  0.5067 -0.2558 -2.0917
 6430TIP3   OH240704   4.472   2.356   4.942  0.3677 -0.0871  0.3541
 6430TIP3    H140705   4.505   2.284   4.890 -0.5692 -0.9167  0.8777
 6430TIP3    H240706   4.523   2.353   5.023 -0.0931 -0.5568  0.6303
 6431TIP3   OH240707   5.988   4.538  13.275  0.7341  0.4869  0.4307
 6431TIP3    H140708   5.930   4.491  13.336  0.7213  1.3911  1.1281
 6431TIP3    H240709   6.040   4.469  13.235  0.2154 -0.2024  0.9050
 6432TIP3   OH240710   6.162   2.386  14.386 -0.3947 -0.1051  0.1259
 6432TIP3    H140711   6.176   2.478  14.407  1.7361 -0.2529 -0.4444
 6432TIP3    H240712   6.068   2.372  14.401 -0.8480  2.2373 -0.1695
 6433TIP3   OH240713   0.032   4.460  11.991  0.0409 -0.1979  0.0739
 6433TIP3    H140714   0.095   4.398  11.953 -0.7196 -1.6666  1.1390
 6433TIP3    H240715   0.038   4.537  11.934  1.7021 -0.8643 -0.7330
 6434TIP3   OH240716   5.722   1.059   2.302  0.5982 -0.2448 -0.7177
 6434TIP3    H140717   5.675   1.001   2.243 -2.3880 -0.2636  1.4365
 6434TIP3    H240718   5.687   1.146   2.285  1.3309  0.1012 -0.5018
 6435TIP3   OH240719   0.977   0.048   0.198 -0.3870 -0.0038  0.8002
 6435TIP3    H140720   1.049   0.025   0.256  1.2210  1.1831 -0.6201
 6435TIP3    H240721   0.901   0.053   0.256  0.7799 -0.6099  2.4778
 6436TIP3   OH240722   1.191   4.146  14.218  0.2281  0.2564 -0.2225
 6436TIP3    H140723   1.205   4.135  14.124  1.9898  0.7696 -0.0684
 6436TIP3    H240724   1.179   4.240  14.229 -1.7533  0.0230 -0.1007
 6437TIP3   OH240725   6.575   4.731  14.191  0.1437 -0.2100 -0.1006
 6437TIP3    H140726   6.495   4.763  14.149  0.0271  1.9357  1.5677
 6437TIP3    H240727   6.551   4.644  14.224 -1.1102 -0.1150 -0.6978
 6438TIP3   OH240728   4.650   1.895  12.794 -0.3487 -0.0345  0.6822
 6438TIP3    H140729   4.664   1.853  12.710  0.4152  0.6937  0.4293
 6438TIP3    H240730   4.559   1.924  12.792 -1.0891 -2.1554  1.1117
 6439TIP3   OH240731   5.607   1.836   0.730  0.3248  0.2172 -0.4214
 6439TIP3    H140732   5.689   1.861   0.689  0.6978  0.0858  0.2427
 6439TIP3    H240733   5.579   1.757   0.683 -0.8704  1.8135 -2.5524
 6440TIP3   OH240734   5.136   4.631  13.207  0.0267  0.4117  0.3051
 6440TIP3    H140735   5.225   4.626  13.240  0.0442 -0.2046  0.1624
 6440TIP3    H240736   5.115   4.543  13.177 -0.3748  0.7047 -0.3243
 6441TIP3   OH240737   4.899   6.131  16.359 -0.0259  0.1616  0.2308
 6441TIP3    H140738   4.836   6.185  16.311  1.3743  0.2463 -1.6105
 6441TIP3    H240739   4.898   6.166  16.448 -0.1508  2.3614 -0.5840
 6442TIP3   OH240740   2.779   5.585  14.850 -0.1430  0.2573 -0.1811
 6442TIP3    H140741   2.777   5.675  14.817  1.0750  0.0269 -0.9855
 6442TIP3    H240742   2.810   5.534  14.775 -3.8169 -1.3491 -0.8035
 6443TIP3   OH240743   3.400   1.203  15.836 -0.3569 -0.1507  0.4299
 6443TIP3    H140744   3.495   1.217  15.835 -0.3881  0.3279  1.8405
 6443TIP3    H240745   3.373   1.217  15.746  0.8229  0.4278  0.1411
 6444TIP3   OH240746   6.155   2.647   5.253 -0.5647 -0.6105 -0.3080
 6444TIP3    H140747   6.214   2.573   5.245 -0.4157 -0.3630 -1.8144
 6444TIP3    H240748   6.103   2.646   5.172 -0.0323  1.3451 -0.7416
 6445TIP3   OH240749   6.632   6.281   1.531  0.0155  0.5727 -0.3748
 6445TIP3    H140750   6.641   6.312   1.621  0.3671 -1.3000  0.2664
 6445TIP3    H240751   6.539   6.295   1.511 -0.1221  0.7558  0.3548
 6446TIP3   OH240752   0.778   4.539  11.447  0.0110 -0.1910 -0.0883
 6446TIP3    H140753   0.814   4.628  11.447  1.3749 -0.7237 -0.0006
 6446TIP3    H240754   0.775   4.515  11.354 -1.0349  0.1874 -0.1700
 6447TIP3   OH240755   6.096   6.505  17.095  0.3691 -0.2850 -0.0142
 6447TIP3    H140756   6.116   6.421  17.053  1.2748 -0.6857  1.1589
 6447TIP3    H240757   6.163   6.565  17.061 -0.1801 -0.0620 -0.7283
 6448TIP3   OH240758   1.248   6.694  16.587  0.1125  0.3770 -0.4462
 6448TIP3    H140759   1.254   6.777  16.541 -0.5094  0.8255  0.2620
 6448TIP3    H240760   1.212   6.716  16.673  0.6352 -0.5253  0.0259
 6449TIP3   OH240761   1.775   2.860   5.906 -0.3311  0.1010  0.6038
 6449TIP3    H140762   1.778   2.804   5.983 -1.4779 -0.0062  0.5803
 6449TIP3    H240763   1.838   2.820   5.845 -0.3480 -0.5365  0.9976
 6450TIP3   OH240764   2.236   2.408   2.601 -0.0246 -0.0250 -0.3981
 6450TIP3    H140765   2.227   2.435   2.692  1.0739 -0.1713 -0.2214
 6450TIP3    H240766   2.170   2.458   2.554 -2.0239 -1.4488  0.7398
 6451TIP3   OH240767   4.787   2.181   5.101  0.5246  0.1558 -0.1159
 6451TIP3    H140768   4.720   2.237   5.141  1.9213  2.9055 -1.3417
 6451TIP3    H240769   4.823   2.234   5.030  1.5967 -2.5960 -1.7811
 6452TIP3   OH240770   1.220   5.101  15.174 -0.1566 -0.4001 -0.0577
 6452TIP3    H140771   1.165   5.162  15.223 -0.6733  0.6559 -1.8583
 6452TIP3    H240772   1.300   5.150  15.157  0.8585 -1.4625  1.3771
 6453TIP3   OH240773   4.531   2.287  12.934  0.0452  0.3292 -0.7794
 6453TIP3    H140774   4.473   2.213  12.957  1.9749 -1.6759 -1.9971
 6453TIP3    H240775   4.486   2.331  12.862 -1.6546  1.0736  0.6624
 6454TIP3   OH240776   2.687   2.951  11.285 -0.1312  0.3230 -0.1981
 6454TIP3    H140777   2.650   2.873  11.243 -1.2988  0.2694  0.8811
 6454TIP3    H240778   2.618   3.017  11.277  0.6494  1.0986 -0.6479
 6455TIP3   OH240779   3.276   2.405   4.526 -0.5847  0.0668  0.3015
 6455TIP3    H140780   3.257   2.451   4.444 -0.0145 -0.2950 -0.0486
 6455TIP3    H240781   3.316   2.471   4.582  0.3129  0.0060 -0.2297
 6456TIP3   OH240782   3.097   0.448   4.035 -0.0678  0.5987 -0.9110
 6456TIP3    H140783   3.065   0.534   4.005  1.2557  1.4715  0.0734
 6456TIP3    H240784   3.191   0.450   4.016  0.0335 -0.4912 -0.5378
 6457TIP3   OH240785   1.499   5.060  11.315 -0.1349  0.6849  0.3557
 6457TIP3    H140786   1.497   4.975  11.271 -0.4312  0.6490  0.4380
 6457TIP3    H240787   1.547   5.044  11.396  1.0704  0.9138 -0.2912
 6458TIP3   OH240788   0.023   6.020   4.573  0.0165 -0.6657 -0.2365
 6458TIP3    H140789   0.040   6.096   4.517  1.5980 -1.9543 -1.6173
 6458TIP3    H240790  -0.069   6.030   4.600  0.8042  2.9241  1.5976
 6459TIP3   OH240791   6.699   6.360   3.824 -0.4028  0.0697 -0.4118
 6459TIP3    H140792   6.651   6.419   3.881 -0.8915 -0.0079 -0.7358
 6459TIP3    H240793   6.779   6.340   3.872 -0.6369  0.2986  0.0809
 6460TIP3   OH240794   3.234   1.084  13.778 -0.3717 -0.4462  0.3200
 6460TIP3    H140795   3.263   1.079  13.869 -0.0638  0.9212  0.3059
 6460TIP3    H240796   3.300   1.136  13.733  0.7960 -3.0948 -1.2773
 6461TIP3   OH240797   6.711   3.068   5.772  0.5952 -0.3356  0.1928
 6461TIP3    H140798   6.721   3.017   5.691 -0.7619 -1.7547  0.8715
 6461TIP3    H240799   6.656   3.014   5.828  1.0722  0.8529  1.8907
 6462TIP3   OH240800   3.512   5.665   0.065  0.3335  0.2950 -0.2769
 6462TIP3    H140801   3.544   5.637   0.150  1.8213  0.3299 -0.7965
 6462TIP3    H240802   3.430   5.616   0.052  0.0982  0.2803  1.1393
 6463TIP3   OH240803   6.769   1.755  16.084 -0.2440 -0.2065 -0.0502
 6463TIP3    H140804   6.718   1.703  16.021  0.4443  2.3424 -3.0052
 6463TIP3    H240805   6.857   1.717  16.080  0.0698  0.5704 -1.6044
 6464TIP3   OH240806   2.133   4.710   5.687 -0.2522  0.7993  0.1068
 6464TIP3    H140807   2.092   4.723   5.773  1.3966  1.2224  0.8694
 6464TIP3    H240808   2.211   4.658   5.705 -0.2880  0.2278 -1.2634
 6465TIP3   OH240809   4.609   3.194  13.462  0.1961 -0.3944 -0.6539
 6465TIP3    H140810   4.568   3.279  13.449 -0.6871 -1.0202 -2.1732
 6465TIP3    H240811   4.606   3.152  13.376  0.8236 -1.8740  0.0059
 6466TIP3   OH240812   5.370   3.872  14.758  0.1491  0.5978  0.7392
 6466TIP3    H140813   5.347   3.904  14.845 -1.1633 -3.7094  2.2784
 6466TIP3    H240814   5.430   3.799  14.774 -2.9198 -2.7665 -1.4073
 6467TIP3   OH240815   1.066   2.852   4.177 -0.2395 -0.4670  0.2898
 6467TIP3    H140816   1.022   2.783   4.226 -0.7742  1.0233  2.0396
 6467TIP3    H240817   1.019   2.932   4.202 -0.0591  0.4719 -2.1474
 6468TIP3   OH240818   5.991   5.171   0.111  0.4671  0.2556 -0.2946
 6468TIP3    H140819   6.026   5.258   0.092 -0.1064  1.3818  3.0524
 6468TIP3    H240820   6.054   5.133   0.172 -0.5940 -0.5465  0.3418
 6469TIP3   OH240821   4.798   6.137   4.968 -0.5202 -0.5417 -0.3467
 6469TIP3    H140822   4.880   6.152   5.015 -0.7995  1.4494 -0.4489
 6469TIP3    H240823   4.812   6.054   4.923  0.6461 -1.3023  1.2977
 6470TIP3   OH240824   2.773   2.199  15.734  0.4548 -0.1620  0.2441
 6470TIP3    H140825   2.795   2.283  15.693 -1.1809 -0.6874 -1.9083
 6470TIP3    H240826   2.688   2.214  15.776  0.0027 -0.7934 -0.4252
 6471TIP3   OH240827   4.250   5.071  13.139 -0.1333  0.1689 -0.1048
 6471TIP3    H140828   4.260   5.037  13.050 -0.1643  0.4207 -0.2078
 6471TIP3    H240829   4.180   5.136  13.131 -0.7461 -0.4357  0.2834
 6472TIP3   OH240830   1.493   3.213  16.858  0.2636  0.0834  0.3925
 6472TIP3    H140831   1.493   3.303  16.825 -0.5450  0.3646  1.1084
 6472TIP3    H240832   1.461   3.221  16.948  0.2672 -0.9122  0.4919
 6473TIP3   OH240833   1.352   2.445  13.193 -0.1241 -0.3535  0.2237
 6473TIP3    H140834   1.436   2.401  13.180  0.0036 -0.5609  1.5533
 6473TIP3    H240835   1.368   2.503  13.267 -0.1605  2.3236 -1.7235
 6474TIP3   OH240836   1.179   1.596   4.546 -0.2949 -0.3508 -0.5522
 6474TIP3    H140837   1.166   1.651   4.623  0.9206 -0.3648 -0.3110
 6474TIP3    H240838   1.190   1.507   4.582  3.9940  0.0608 -0.2560
 6475TIP3   OH240839   1.440   3.513   0.644  0.0134  0.2918  0.2858
 6475TIP3    H140840   1.452   3.528   0.737 -0.2350  2.1352  0.0684
 6475TIP3    H240841   1.527   3.492   0.611  0.3810  1.1253  0.7063
 6476TIP3   OH240842   0.397   1.111   6.412  0.3565 -0.1024 -0.0090
 6476TIP3    H140843   0.348   1.036   6.445  2.4554 -1.3662  0.4313
 6476TIP3    H240844   0.432   1.082   6.328 -0.4347  1.1173 -0.7788
 6477TIP3   OH240845   3.718   0.749  13.767  0.2189  0.0930 -0.3007
 6477TIP3    H140846   3.652   0.717  13.828  0.1800  0.4114 -0.1692
 6477TIP3    H240847   3.758   0.824  13.813 -0.8953  1.3567 -1.3087
 6478TIP3   OH240848   0.937   2.089   2.853  0.0426  0.9149 -0.0046
 6478TIP3    H140849   0.860   2.124   2.898  0.8722  2.6473  0.1368
 6478TIP3    H240850   0.902   2.024   2.792 -1.1703 -1.3316  2.8352
 6479TIP3   OH240851   2.823   4.338  10.389  0.0890 -0.3594 -0.2603
 6479TIP3    H140852   2.819   4.281  10.312 -0.9229 -2.9391  1.5815
 6479TIP3    H240853   2.732   4.364  10.405 -0.0569 -1.6722  1.2814
 6480TIP3   OH240854   5.642   0.939  10.634  0.3111  0.1229 -0.5470
 6480TIP3    H140855   5.571   0.892  10.677 -0.7071  2.5689  0.6260
 6480TIP3    H240856   5.720   0.887  10.654 -0.5312 -0.3426  1.9499
 6481TIP3   OH240857   1.361   3.562   6.002  0.3178  0.2425  0.5390
 6481TIP3    H140858   1.390   3.579   6.092  0.2494  0.0093  0.6049
 6481TIP3    H240859   1.267   3.548   6.010  0.3910 -0.2890  0.5004
 6482TIP3   OH240860   2.873   3.985   5.146  0.3486  0.4978  0.2067
 6482TIP3    H140861   2.898   3.939   5.226  1.3102  0.2270 -0.2317
 6482TIP3    H240862   2.779   4.003   5.157  0.4408  0.3680  1.3319
 6483TIP3   OH240863   6.093   1.893   5.291  0.7625  0.0247  0.2782
 6483TIP3    H140864   6.074   1.903   5.197 -0.4987 -0.3918  0.4844
 6483TIP3    H240865   6.177   1.939   5.302  2.0231 -1.6849 -1.4442
 6484TIP3   OH240866   0.577   3.805   5.766 -0.9945 -0.0190  0.0063
 6484TIP3    H140867   0.566   3.724   5.715  0.4165 -0.4835  0.3966
 6484TIP3    H240868   0.513   3.799   5.836  0.1897 -1.6325  1.0203
 6485TIP3   OH240869   3.712   1.530   3.989 -0.2932 -0.2156 -0.0500
 6485TIP3    H140870   3.750   1.607   4.033 -0.0452 -0.4068  0.0714
 6485TIP3    H240871   3.780   1.463   3.995 -0.2790 -0.2590 -0.6869
 6486TIP3   OH240872   2.442   3.456   6.123  0.2575  0.1356 -0.3153
 6486TIP3    H140873   2.441   3.448   6.218 -0.3766 -0.8129 -0.3885
 6486TIP3    H240874   2.353   3.435   6.096 -0.0725  2.1390 -1.0152
 6487TIP3   OH240875   0.235   4.478  15.174 -0.2840 -0.1854  0.4242
 6487TIP3    H140876   0.277   4.393  15.182 -1.8325 -1.4237 -2.8891
 6487TIP3    H240877   0.169   4.479  15.244  0.2063 -1.3883  0.9337
 6488TIP3   OH240878   5.627   6.582  16.504 -0.7981 -0.3907 -0.2750
 6488TIP3    H140879   5.549   6.632  16.528 -0.0277  0.0482  1.4863
 6488TIP3    H240880   5.593   6.508  16.453 -2.2689  0.2395 -0.2681
 6489TIP3   OH240881   0.470   6.358   1.653 -0.5774  0.0008 -0.0376
 6489TIP3    H140882   0.492   6.440   1.609  1.1397  0.0097  0.7796
 6489TIP3    H240883   0.435   6.302   1.583  1.2897  0.2976 -1.2717
 6490TIP3   OH240884   3.448   0.233  12.613 -0.1636  0.1502  0.4185
 6490TIP3    H140885   3.384   0.163  12.600  2.1073 -2.6641  2.8249
 6490TIP3    H240886   3.433   0.263  12.703  3.1637 -2.2855  1.9677
 6491TIP3   OH240887   1.411   4.059  12.590 -0.0050  0.4678  0.5223
 6491TIP3    H140888   1.399   4.116  12.514 -1.2010  0.3025  0.5783
 6491TIP3    H240889   1.453   4.114  12.656 -0.4808  1.0753  0.3224
 6492TIP3   OH240890   1.872   1.002   4.444 -0.1404  0.1315  0.1779
 6492TIP3    H140891   1.848   1.086   4.405 -1.2758  0.3864  1.3644
 6492TIP3    H240892   1.791   0.952   4.447  0.2930 -0.5772  0.5207
 6493TIP3   OH240893   6.021   6.700   1.638  0.5791 -0.0320  0.0137
 6493TIP3    H140894   6.079   6.712   1.713  0.5910 -0.8828  0.1530
 6493TIP3    H240895   5.935   6.726   1.669  0.7159  0.3235  0.0970
 6494TIP3   OH240896   1.816   4.860   4.531 -0.1064  0.1553 -0.1434
 6494TIP3    H140897   1.769   4.903   4.459  0.4225  0.3376 -0.3848
 6494TIP3    H240898   1.861   4.786   4.489  0.3455  0.3654 -0.0292
 6495TIP3   OH240899   1.114   4.305  15.020  0.1990  0.3076 -0.2845
 6495TIP3    H140900   1.172   4.382  15.025  0.8257  0.0903 -2.7973
 6495TIP3    H240901   1.031   4.335  15.056  1.7047  0.6518  3.4215
 6496TIP3   OH240902   6.521   0.385   4.827  0.5798  0.2989 -0.0527
 6496TIP3    H140903   6.447   0.439   4.853  1.3789  0.7396  1.3751
 6496TIP3    H240904   6.596   0.444   4.829  0.9725 -0.0750 -1.7371
 6497TIP3   OH240905   1.556   0.399  11.443  0.2774 -0.2743  0.0761
 6497TIP3    H140906   1.476   0.437  11.408  1.0320  0.1508 -1.2719
 6497TIP3    H240907   1.542   0.396  11.537 -0.6715  1.3577  0.0277
 6498TIP3   OH240908   6.098   1.723   2.860 -0.1332 -0.1734 -0.0940
 6498TIP3    H140909   6.146   1.794   2.818  1.8545 -1.0364  0.5585
 6498TIP3    H240910   6.086   1.752   2.951  1.6490 -1.0216  0.4713
 6499TIP3   OH240911   4.847   1.132   1.499  0.4798  0.0143  0.5105
 6499TIP3    H140912   4.903   1.207   1.480  0.2624  0.4208  1.4023
 6499TIP3    H240913   4.858   1.118   1.593 -1.1245  0.2853  0.7678
 6500TIP3   OH240914   4.772   0.121   3.592 -0.0347  0.5566  0.2580
 6500TIP3    H140915   4.749   0.195   3.536  0.6214  0.3522 -0.2973
 6500TIP3    H240916   4.696   0.062   3.586 -1.5172  2.0715  2.3624
 6501TIP3   OH240917   2.417   1.090   0.822 -0.6654  0.0564  0.5329
 6501TIP3    H140918   2.509   1.069   0.806 -0.3184  0.9657  1.2917
 6501TIP3    H240919   2.394   1.040   0.900 -0.5230  0.6388  0.9451
 6502TIP3   OH240920   4.235   5.345  10.588 -0.0658  0.1243  0.0945
 6502TIP3    H140921   4.251   5.410  10.520 -0.3078  0.5406  0.4347
 6502TIP3    H240922   4.167   5.288  10.552  0.3405 -0.1160 -0.3155
 6503TIP3   OH240923   4.025   6.458  15.106  0.0714  0.0154 -0.0450
 6503TIP3    H140924   4.099   6.462  15.166 -0.3643 -0.2711  0.5259
 6503TIP3    H240925   3.989   6.547  15.105  0.7143  0.2776 -0.7108
 6504TIP3   OH240926   5.490   5.754   2.801 -0.6053 -0.2579  0.2271
 6504TIP3    H140927   5.492   5.801   2.885  0.6362  1.0010 -0.4813
 6504TIP3    H240928   5.558   5.687   2.810 -0.2887  0.0484  0.1420
 6505TIP3   OH240929   4.600   6.467  12.772  0.1491  0.3862 -0.8896
 6505TIP3    H140930   4.510   6.472  12.804 -0.2740 -1.5902 -1.6348
 6505TIP3    H240931   4.629   6.558  12.769 -2.0697  1.1498 -1.3614
 6506TIP3   OH240932   2.235   2.108  13.743  0.0459 -0.2759 -1.1886
 6506TIP3    H140933   2.249   2.200  13.767  0.7073 -0.1747 -1.9206
 6506TIP3    H240934   2.185   2.112  13.661 -0.4500 -0.5874 -0.9086
 6507TIP3   OH240935   3.473   3.995   2.549 -0.9107 -0.1615 -0.2148
 6507TIP3    H140936   3.544   3.960   2.496 -0.7981  1.2803 -1.0507
 6507TIP3    H240937   3.511   4.071   2.594 -1.9287  0.7262 -0.7951
 6508TIP3   OH240938   0.955   2.685   2.131  0.3509 -0.3238  0.2048
 6508TIP3    H140939   0.905   2.678   2.050  0.5680 -0.3834  0.0763
 6508TIP3    H240940   1.002   2.768   2.123 -1.7039  1.0832  1.4352
 6509TIP3   OH240941   5.347   2.340   5.788  0.0180  0.2969 -0.1666
 6509TIP3    H140942   5.305   2.368   5.707 -0.4068  0.5490  0.1325
 6509TIP3    H240943   5.367   2.422   5.833  1.4835  0.2028 -0.6202
 6510TIP3   OH240944   5.834   0.074   2.667 -0.2801  0.6181  0.1564
 6510TIP3    H140945   5.839   0.127   2.588 -1.2859  2.1200  1.0343
 6510TIP3    H240946   5.855   0.134   2.738  3.4855 -1.3167  0.9462
 6511TIP3   OH240947   5.528   6.357  14.581 -0.2694  0.1010 -0.1281
 6511TIP3    H140948   5.489   6.316  14.505 -0.8985  1.9126 -0.8452
 6511TIP3    H240949   5.621   6.335  14.576 -0.6080 -1.3878 -0.3163
 6512TIP3   OH240950   3.796   2.946   0.980  0.1983  0.0327 -0.4830
 6512TIP3    H140951   3.808   2.869   1.036 -1.4250  0.0884 -0.0015
 6512TIP3    H240952   3.803   3.020   1.040 -1.1977  0.1094 -0.3910
 6513TIP3   OH240953   3.988   0.091   2.224  0.0126  0.0713  0.4124
 6513TIP3    H140954   3.901   0.061   2.198  0.1631 -0.8433  0.9282
 6513TIP3    H240955   3.986   0.186   2.209 -0.7541 -0.0651 -0.4647
 6514TIP3   OH240956   4.236   0.689  16.463 -0.3802  0.4237 -0.8504
 6514TIP3    H140957   4.263   0.599  16.479  1.1651  1.0982  0.6453
 6514TIP3    H240958   4.318   0.739  16.464 -1.2787  1.9507 -0.8434
 6515TIP3   OH240959   0.667   1.289   3.261  0.0061  0.1417  0.1818
 6515TIP3    H140960   0.652   1.209   3.211  0.1489 -0.1168  0.5493
 6515TIP3    H240961   0.586   1.302   3.312 -0.3302  0.6682 -0.4686
 6516TIP3   OH240962   5.688   4.150  16.023 -0.7242  0.1260  0.1968
 6516TIP3    H140963   5.615   4.197  16.062 -1.6601  0.3730 -1.7084
 6516TIP3    H240964   5.766   4.191  16.060 -1.4409 -1.0557  3.3470
 6517TIP3   OH240965   6.734   6.113  16.438  0.2521  0.0226 -0.0700
 6517TIP3    H140966   6.644   6.090  16.462  0.7117 -0.5847  1.1534
 6517TIP3    H240967   6.754   6.191  16.491  0.4239  0.2042 -0.3977
 6518TIP3   OH240968   1.798   3.295   1.222 -0.1658 -0.2774  0.0783
 6518TIP3    H140969   1.861   3.291   1.151 -0.8444  1.8834 -0.7254
 6518TIP3    H240970   1.724   3.343   1.186 -2.0042 -2.0740  1.2325
 6519TIP3   OH240971   5.169   0.999   1.269 -0.1023  0.2124  0.4890
 6519TIP3    H140972   5.255   0.966   1.241 -0.5467 -0.5224 -0.0412
 6519TIP3    H240973   5.150   1.071   1.208 -0.5332 -0.6119 -0.3685
 6520TIP3   OH240974   5.764   4.763   1.007 -0.0376 -0.2047 -0.5505
 6520TIP3    H140975   5.825   4.783   0.935  2.8113 -0.5501  1.5961
 6520TIP3    H240976   5.746   4.670   0.997  2.7619 -0.9799  0.7570
 6521TIP3   OH240977   0.814   5.185  10.688 -0.0101  1.0172 -1.1478
 6521TIP3    H140978   0.837   5.116  10.625 -0.9411 -0.4541  0.0568
 6521TIP3    H240979   0.732   5.155  10.727  1.3940  0.9794  2.0294
 6522TIP3   OH240980   0.963   4.037   0.886  0.3263 -0.5235 -0.5182
 6522TIP3    H140981   0.931   4.036   0.796  0.8535 -0.8806 -0.7052
 6522TIP3    H240982   1.027   4.109   0.888  2.4902 -2.3156 -1.2176
 6523TIP3   OH240983   2.787   6.610  13.711  0.7860 -0.3548 -0.3885
 6523TIP3    H140984   2.791   6.704  13.725  2.1294 -0.5691  0.9331
 6523TIP3    H240985   2.833   6.597  13.627  0.5564  0.1621 -0.5971
 6524TIP3   OH240986   1.541   1.686  12.470  0.4280  0.8723  0.0415
 6524TIP3    H140987   1.491   1.685  12.551  0.0553  0.6705 -0.1902
 6524TIP3    H240988   1.535   1.597  12.437  1.8154  0.5742  0.5446
 6525TIP3   OH240989   0.741   5.606  13.337 -0.0611  0.3643 -0.1322
 6525TIP3    H140990   0.697   5.658  13.269  1.3081 -0.6426 -1.8802
 6525TIP3    H240991   0.791   5.540  13.288 -0.2436 -1.4114  1.9408
 6526TIP3   OH240992   3.835   5.946  15.865  0.3369  0.2231  0.5850
 6526TIP3    H140993   3.809   5.908  15.781  0.9371 -0.9966  0.9337
 6526TIP3    H240994   3.769   6.014  15.881  0.9927  1.4774 -1.5389
 6527TIP3   OH240995   1.991   0.994  10.748 -0.9168 -0.5983 -0.0811
 6527TIP3    H140996   2.069   0.945  10.776 -0.1973 -1.7658 -3.6634
 6527TIP3    H240997   2.018   1.085  10.753 -0.0939 -0.8652  0.7453
 6528TIP3   OH240998   0.489   5.508   5.844 -0.0908 -0.1859 -0.1681
 6528TIP3    H140999   0.525   5.580   5.896 -1.8458  1.1500 -0.7168
 6528TIP3    H241000   0.406   5.487   5.887 -0.6741 -0.3273 -1.3484
 6529TIP3   OH241001   1.786   5.961  16.882 -0.5850 -0.5664 -0.0013
 6529TIP3    H141002   1.715   5.976  16.820  1.0064 -1.3281 -2.1254
 6529TIP3    H241003   1.763   5.880  16.927  0.2571 -2.5084 -2.8222
 6530TIP3   OH241004   3.495   6.128   4.578  0.2092 -0.3773 -0.1744
 6530TIP3    H141005   3.469   6.175   4.656 -1.3175 -0.8874 -0.3476
 6530TIP3    H241006   3.585   6.100   4.596  0.2757  0.4755  0.9129
 6531TIP3   OH241007   3.775   0.879   4.104  0.0203 -0.5121  0.0903
 6531TIP3    H141008   3.854   0.928   4.083  0.0203 -1.0050 -1.2017
 6531TIP3    H241009   3.711   0.945   4.130  0.0005  0.2265 -1.6894
 6532TIP3   OH241010   1.241   4.703  16.017 -0.3471  0.0459 -0.5573
 6532TIP3    H141011   1.160   4.720  16.064  0.2625  2.9445 -0.3981
 6532TIP3    H241012   1.307   4.693  16.085 -0.1110  0.4062 -0.7319
 6533TIP3   OH241013   3.040   3.095   6.779 -0.0891 -0.4243  0.1938
 6533TIP3    H141014   3.127   3.133   6.794  0.2410 -1.1401  0.1550
 6533TIP3    H241015   3.033   3.025   6.843 -0.3775 -0.7853 -0.2261
 6534TIP3   OH241016   5.783   0.543   1.382  0.3834  0.3503  0.2344
 6534TIP3    H141017   5.828   0.491   1.316  0.1794  0.0906  0.2997
 6534TIP3    H241018   5.832   0.625   1.385  1.0718 -0.0710  0.5740
 6535TIP3   OH241019   3.108   0.620   6.200  0.1402 -0.3163 -0.1895
 6535TIP3    H141020   3.072   0.708   6.194  1.2460  0.5317  3.2284
 6535TIP3    H241021   3.194   0.632   6.241  0.6768 -2.9333 -0.3742
 6536TIP3   OH241022   1.349   5.140   3.822  0.5498 -0.2721  0.4043
 6536TIP3    H141023   1.430   5.191   3.816  0.7548 -0.5764  0.5590
 6536TIP3    H241024   1.289   5.182   3.760  0.9204 -0.2199  0.0815
 6537TIP3   OH241025   5.340   2.251  15.719 -0.3917  0.2341 -0.5894
 6537TIP3    H141026   5.422   2.285  15.755 -0.6615  1.3816 -1.0112
 6537TIP3    H241027   5.333   2.161  15.753  0.4952  0.5010  0.3162
 6538TIP3   OH241028   6.406   3.302  15.634 -0.0936  0.6810  0.8388
 6538TIP3    H141029   6.372   3.307  15.724  0.4345  0.6366  1.0400
 6538TIP3    H241030   6.501   3.305  15.643 -0.0216  0.2149  0.3091
 6539TIP3   OH241031   0.275   0.576  11.975 -0.4831  0.2131  0.0616
 6539TIP3    H141032   0.208   0.594  11.909 -0.9793 -1.2799  0.1089
 6539TIP3    H241033   0.227   0.574  12.058 -0.1015  0.7322  0.2931
 6540TIP3   OH241034   5.828   2.650  13.650  0.2630 -0.4546  0.1010
 6540TIP3    H141035   5.740   2.657  13.686 -0.4233 -0.1127 -1.5332
 6540TIP3    H241036   5.865   2.572  13.691 -0.3503  0.0394  1.6765
 6541TIP3   OH241037   1.164   1.933  16.232  0.0395  0.1179  0.0159
 6541TIP3    H141038   1.255   1.942  16.205 -0.0401  1.1409  0.0542
 6541TIP3    H241039   1.122   2.013  16.201 -0.5601  0.2489  1.1393
 6542TIP3   OH241040   3.718   1.561   1.569 -0.3534 -0.1044  0.1146
 6542TIP3    H141041   3.785   1.492   1.572 -0.1976  0.0160 -0.5143
 6542TIP3    H241042   3.715   1.588   1.478  0.8202  1.9146  0.5982
 6543TIP3   OH241043   2.160   5.305  16.584  0.6068  0.2140  0.4093
 6543TIP3    H141044   2.161   5.274  16.674  0.8360 -0.7529  0.0859
 6543TIP3    H241045   2.209   5.388  16.586 -0.0782  0.6155  1.3036
 6544TIP3   OH241046   1.130   2.000   4.639  0.3272 -0.1720 -0.2774
 6544TIP3    H141047   1.225   2.014   4.646  0.0935  0.8734  1.7475
 6544TIP3    H241048   1.095   2.040   4.719 -1.9802  0.8601 -1.7085
 6545TIP3   OH241049   1.427   5.335  16.880  0.3361  0.0882 -0.0791
 6545TIP3    H141050   1.443   5.383  16.961  0.2315  1.0972 -0.6321
 6545TIP3    H241051   1.466   5.249  16.894 -2.2606 -0.8514  2.1552
 6546TIP3   OH241052   4.132   1.994   1.294  0.2080 -0.8105 -0.5659
 6546TIP3    H141053   4.091   1.953   1.370 -0.4121  0.6683 -0.0744
 6546TIP3    H241054   4.060   2.006   1.231  0.3978 -0.5481 -0.7371
 6547TIP3   OH241055   4.104   0.263  11.436 -0.4566  0.0932 -0.2841
 6547TIP3    H141056   4.132   0.175  11.409 -2.1325 -0.8082  0.8087
 6547TIP3    H241057   4.144   0.276  11.522  1.3837  1.2447 -1.2453
 6548TIP3   OH241058   4.409   2.367  15.726 -0.0186  0.1303  0.2977
 6548TIP3    H141059   4.407   2.278  15.762 -2.0311 -0.2995 -0.7756
 6548TIP3    H241060   4.322   2.381  15.689  0.1313  2.6838  0.7016
 6549TIP3   OH241061   6.647   5.252  13.112  0.4257 -0.0970  0.2439
 6549TIP3    H141062   6.599   5.169  13.113  0.5712 -0.2290 -1.3200
 6549TIP3    H241063   6.716   5.239  13.047  0.6012  1.1782  0.1540
 6550TIP3   OH241064   6.489   3.853  14.044 -0.2711  0.1976  0.5724
 6550TIP3    H141065   6.394   3.860  14.055 -0.3520  0.7643 -0.3634
 6550TIP3    H241066   6.523   3.935  14.078  0.0227 -0.5732  2.1939
 6551TIP3   OH241067   0.382   3.764   3.596 -0.1070  0.2199  0.0402
 6551TIP3    H141068   0.410   3.856   3.603  1.2162  0.0291 -1.7786
 6551TIP3    H241069   0.383   3.747   3.501  0.0520 -1.7886  0.3695
 6552TIP3   OH241070   5.272   4.871  13.540 -0.0628 -0.0775 -0.2950
 6552TIP3    H141071   5.189   4.893  13.497  0.4500 -1.2425 -1.9768
 6552TIP3    H241072   5.338   4.921  13.492  0.4616 -0.9100 -0.4472
 6553TIP3   OH241073   5.328   4.442  14.982  0.1732 -0.2843  0.1328
 6553TIP3    H141074   5.298   4.499  15.053 -3.5713  0.0079 -1.4834
 6553TIP3    H241075   5.363   4.503  14.917  0.5277 -0.2826  0.3190
 6554TIP3   OH241076   3.066   5.147   3.016 -0.3237 -0.0912  0.1453
 6554TIP3    H141077   3.130   5.077   3.026  0.0185  0.1210 -0.5155
 6554TIP3    H241078   3.038   5.168   3.105  0.5654 -0.1477  0.4387
 6555TIP3   OH241079   3.776   2.752  12.828 -0.2483  0.7231 -0.1467
 6555TIP3    H141080   3.784   2.814  12.900  0.5078 -0.1460  0.5508
 6555TIP3    H241081   3.795   2.803  12.750  1.0662  1.2335  0.4773
 6556TIP3   OH241082   5.826   3.387   2.994  0.5497  0.0595 -0.6549
 6556TIP3    H141083   5.736   3.391   3.027  0.2572 -1.1250 -1.2688
 6556TIP3    H241084   5.819   3.408   2.901  0.7104 -1.2840 -0.9914
 6557TIP3   OH241085   0.904   2.792  13.724  0.2395  0.3178  0.6563
 6557TIP3    H141086   0.968   2.738  13.678  0.1903  0.1517  0.7826
 6557TIP3    H241087   0.948   2.876  13.737  0.2693  0.3501  0.3471
 6558TIP3   OH241088   2.907   5.679   5.653  0.3573 -0.4231  0.1472
 6558TIP3    H141089   2.866   5.680   5.739  1.1068 -0.2760  0.5152
 6558TIP3    H241090   2.856   5.741   5.600  1.2732  1.2529  1.1554
 6559TIP3   OH241091   3.758   6.193   3.216  0.0268 -0.1807 -0.3468
 6559TIP3    H141092   3.774   6.132   3.288  0.3166  2.3880  1.9069
 6559TIP3    H241093   3.824   6.171   3.151  1.6336 -0.8022  1.4119
 6560TIP3   OH241094   6.161   4.231   1.408 -0.7701 -0.2169  0.0587
 6560TIP3    H141095   6.220   4.261   1.478 -0.2445 -0.4060 -0.2989
 6560TIP3    H241096   6.191   4.143   1.387 -2.2381 -0.9911  1.0249
 6561TIP3   OH241097   5.610   5.485   2.216  0.5268 -0.3367  0.4027
 6561TIP3    H141098   5.634   5.408   2.165 -1.6419  0.4872 -2.0660
 6561TIP3    H241099   5.521   5.505   2.189  0.3322  1.9569  2.3795
 6562TIP3   OH241100   2.298   3.108   1.721  0.3756  0.4475 -0.0309
 6562TIP3    H141101   2.321   3.193   1.759 -3.9727  2.2961 -0.9592
 6562TIP3    H241102   2.236   3.069   1.783  0.4871 -0.9558 -0.7562
 6563TIP3   OH241103   3.735   6.180   2.063  0.2657 -0.5806  0.5325
 6563TIP3    H141104   3.806   6.183   1.998 -0.0857 -1.9636  0.0540
 6563TIP3    H241105   3.719   6.272   2.085  1.1786 -0.1553 -0.4777
 6564TIP3   OH241106   2.752   2.264   2.098  0.7422 -0.1450  0.4303
 6564TIP3    H141107   2.774   2.326   2.029 -0.1307  0.3832  0.6189
 6564TIP3    H241108   2.832   2.214   2.112  1.5426  1.1234  0.4789
 6565TIP3   OH241109   2.959   4.124  14.426 -0.3342 -0.3634  0.2409
 6565TIP3    H141110   3.023   4.098  14.492 -1.0240 -1.2108  0.5996
 6565TIP3    H241111   2.878   4.136  14.476 -0.6217 -0.0025 -0.3098
 6566TIP3   OH241112   1.292   3.888  13.857  0.1793 -0.3762  0.1670
 6566TIP3    H141113   1.316   3.883  13.765  0.7554  0.5206  0.2577
 6566TIP3    H241114   1.347   3.823  13.900 -0.0446 -0.7495 -0.0997
 6567TIP3   OH241115   4.980   1.965  15.961 -0.0770 -0.7310 -0.0770
 6567TIP3    H141116   4.979   1.870  15.970  1.0045 -0.7086  0.3557
 6567TIP3    H241117   4.971   1.998  16.051  2.0596 -0.4491  0.0688
 6568TIP3   OH241118   1.284   4.770  15.146  0.1613 -0.0726 -0.7876
 6568TIP3    H141119   1.323   4.849  15.185 -2.1566  0.1494  1.3536
 6568TIP3    H241120   1.266   4.713  15.221 -0.2153 -1.7195 -2.0808
 6569TIP3   OH241121   6.077   1.960  11.893 -0.1617 -0.2287  0.2468
 6569TIP3    H141122   6.147   1.904  11.861 -2.2833 -1.7503 -2.1016
 6569TIP3    H241123   6.117   2.047  11.901  2.1009 -1.1518 -0.3753
 6570TIP3   OH241124   6.397   4.211  17.076  0.3303  0.3326 -0.6552
 6570TIP3    H141125   6.399   4.145  17.007 -1.0327  1.4767 -1.8398
 6570TIP3    H241126   6.318   4.191  17.126  1.1608 -0.3166  0.4662
 6571TIP3   OH241127   4.210   2.449   4.572 -0.4795  0.2172 -0.2296
 6571TIP3    H141128   4.198   2.522   4.512 -0.6913  1.5786  1.3872
 6571TIP3    H241129   4.304   2.433   4.573 -0.2998  1.2596  0.2684
 6572TIP3   OH241130   2.314   5.935   6.449  0.2062 -0.0335 -0.0170
 6572TIP3    H141131   2.322   6.008   6.387  1.2114  0.8664  1.1208
 6572TIP3    H241132   2.249   5.966   6.513 -0.9464 -1.0181 -0.6498
 6573TIP3   OH241133   4.866   6.146  12.389 -0.0476  0.1053  0.6159
 6573TIP3    H141134   4.842   6.066  12.343  0.6364 -0.4518  1.1968
 6573TIP3    H241135   4.792   6.162  12.448 -1.3502  1.3282 -1.2447
 6574TIP3   OH241136   1.594   5.681   3.380 -0.5696 -0.2960  0.0589
 6574TIP3    H141137   1.588   5.587   3.360  0.6919 -0.4827  0.4094
 6574TIP3    H241138   1.631   5.684   3.469  0.6390  0.5131 -0.4421
 6575TIP3   OH241139   4.658   3.246   4.273 -0.0538  0.0925  0.4042
 6575TIP3    H141140   4.646   3.261   4.179  0.4245  3.1271  0.7542
 6575TIP3    H241141   4.575   3.274   4.312 -0.5043 -1.7763  0.9176
 6576TIP3   OH241142   5.161   5.294   3.859  0.3139  0.0432 -0.0704
 6576TIP3    H141143   5.134   5.266   3.946 -1.6045  0.1319 -0.5982
 6576TIP3    H241144   5.105   5.245   3.798  1.2599  0.3527 -1.2435
 6577TIP3   OH241145   2.837   3.535  10.938 -0.7493  0.7785  0.3713
 6577TIP3    H141146   2.775   3.580  10.881  0.3442 -0.0935 -1.6245
 6577TIP3    H241147   2.832   3.443  10.911  1.2858  0.6680  0.2005
 6578TIP3   OH241148   0.516   4.294   0.083  0.6503 -0.3843 -0.2783
 6578TIP3    H141149   0.611   4.289   0.069  0.6624 -2.1223  0.2114
 6578TIP3    H241150   0.500   4.239   0.159 -0.7852 -0.2009 -0.4183
 6579TIP3   OH241151   4.071   4.440  16.091  0.1614  0.2888  0.2036
 6579TIP3    H141152   4.162   4.427  16.064  0.4377  1.0757  0.7126
 6579TIP3    H241153   4.050   4.528  16.060 -0.5954 -0.0715 -0.3386
 6580TIP3   OH241154   5.583   6.691  15.691  0.1951 -0.2597  0.4054
 6580TIP3    H141155   5.603   6.600  15.668 -1.6546 -0.1822 -1.8287
 6580TIP3    H241156   5.510   6.685  15.752  1.1669 -0.2799  1.6006
 6581TIP3   OH241157   1.859   1.993   0.979  0.0462  0.5732  0.7141
 6581TIP3    H141158   1.776   1.994   0.930  0.2625  3.0550  0.2301
 6581TIP3    H241159   1.843   2.052   1.053  0.8906 -0.2299  1.5583
 6582TIP3   OH241160   0.264   0.612  16.182 -0.1648 -0.4966 -0.1406
 6582TIP3    H141161   0.317   0.533  16.181  0.9330  0.2205 -1.0815
 6582TIP3    H241162   0.178   0.584  16.151 -0.2979 -1.6247  1.1663
 6583TIP3   OH241163   4.285   0.131  14.401 -0.2204 -0.4674  0.0628
 6583TIP3    H141164   4.231   0.141  14.323 -0.5136  0.1414  0.3325
 6583TIP3    H241165   4.230   0.082  14.462 -1.1195  1.4824  0.9106
 6584TIP3   OH241166   1.570   2.706   2.536 -0.6120  0.4703 -0.3827
 6584TIP3    H141167   1.601   2.796   2.527  1.8832 -0.0649  1.4643
 6584TIP3    H241168   1.631   2.654   2.484 -2.2970 -0.1698 -1.8027
 6585TIP3   OH241169   2.552   1.855   2.185 -0.2094  0.3509  0.1708
 6585TIP3    H141170   2.551   1.948   2.207 -1.1654  0.7286 -1.2714
 6585TIP3    H241171   2.461   1.827   2.196  0.0424 -0.3768  0.4346
 6586TIP3   OH241172   1.204   0.857  17.235  0.1447 -0.0835  0.1259
 6586TIP3    H141173   1.154   0.838  17.155  1.1825 -3.5136  0.1550
 6586TIP3    H241174   1.175   0.945  17.260 -2.2865  0.0088 -2.4451
 6587TIP3   OH241175   0.726   6.637  12.710 -0.2803 -0.2995 -0.5537
 6587TIP3    H141176   0.779   6.578  12.764 -0.3093 -0.8212 -1.0852
 6587TIP3    H241177   0.741   6.607  12.620 -0.5471  0.3034 -0.8060
 6588TIP3   OH241178   1.707   4.659   2.368 -0.4061 -0.2898 -0.2872
 6588TIP3    H141179   1.712   4.610   2.450  1.2085 -0.7567 -0.6112
 6588TIP3    H241180   1.749   4.602   2.303  0.6979  1.0955 -0.8714
 6589TIP3   OH241181   4.998   6.396   2.347 -0.5937 -0.6805  0.5766
 6589TIP3    H141182   4.966   6.367   2.262 -0.1647  0.9264 -0.1616
 6589TIP3    H241183   4.959   6.335   2.409 -0.1618 -2.4666 -0.8331
 6590TIP3   OH241184   5.797   3.911  12.082  0.3172  0.1520 -0.8366
 6590TIP3    H141185   5.808   3.849  12.010  0.4088  0.9878 -1.5743
 6590TIP3    H241186   5.710   3.893  12.118 -0.6337  1.0687 -2.5327
 6591TIP3   OH241187   5.138   0.369  17.039  0.2364  0.5824 -0.2798
 6591TIP3    H141188   5.074   0.303  17.065 -0.1048  1.5614  1.5047
 6591TIP3    H241189   5.100   0.452  17.066  1.4576  1.3554 -0.8350
 6592TIP3   OH241190   6.018   1.358   5.536  0.2195  0.2279  0.0730
 6592TIP3    H141191   6.078   1.289   5.509 -0.7474 -0.4167 -0.4943
 6592TIP3    H241192   5.960   1.316   5.600 -1.4320 -0.0100 -1.4803
 6593TIP3   OH241193   2.373   5.774  12.209 -0.1891  0.2938 -0.4848
 6593TIP3    H141194   2.385   5.853  12.262 -0.9765 -1.1471  2.0031
 6593TIP3    H241195   2.455   5.725  12.220 -0.2832  0.0696 -0.7638
 6594TIP3   OH241196   0.337   3.372  15.733  0.0318 -0.3589 -0.2549
 6594TIP3    H141197   0.388   3.303  15.691 -1.6730 -2.3781  0.8462
 6594TIP3    H241198   0.389   3.399  15.808 -0.6420 -2.7680  1.1639
 6595TIP3   OH241199   3.569   3.583   0.102  0.1928 -0.2367  0.7148
 6595TIP3    H141200   3.579   3.588   0.007 -0.9569  1.1013  0.6325
 6595TIP3    H241201   3.480   3.549   0.114  0.3003 -0.3087  1.3201
 6596TIP3   OH241202   4.810   5.490   0.702 -0.1969  0.0062  0.2819
 6596TIP3    H141203   4.800   5.585   0.707  2.5215  0.4290 -0.5659
 6596TIP3    H241204   4.872   5.469   0.771  0.8445 -0.8178 -0.8635
 6597TIP3   OH241205   5.131   6.732   4.200  0.1373 -0.0259  0.5007
 6597TIP3    H141206   5.117   6.640   4.221  0.5932  0.1576  1.6814
 6597TIP3    H241207   5.209   6.756   4.250  0.3411  0.8625 -0.2178
 6598TIP3   OH241208   5.264   4.729   1.799  0.1486  0.1288  0.1713
 6598TIP3    H141209   5.282   4.753   1.890  0.8414 -0.3688  0.1776
 6598TIP3    H241210   5.313   4.647   1.786  0.0006  0.1580 -0.6289
 6599TIP3   OH241211   1.595   2.247  13.515  0.0680 -0.3280 -0.4763
 6599TIP3    H141212   1.651   2.239  13.592 -0.1939 -0.8851 -0.3395
 6599TIP3    H241213   1.649   2.216  13.442  0.3836  0.3858 -0.5562
 6600TIP3   OH241214   1.065   4.120  11.573 -0.4911  0.1623 -0.2541
 6600TIP3    H141215   1.001   4.059  11.538 -1.0937  1.5713 -1.7724
 6600TIP3    H241216   1.020   4.205  11.572  0.3511  0.6834  1.6604
 6601TIP3   OH241217   1.858   3.367  13.966 -0.3869 -0.6140 -0.2425
 6601TIP3    H141218   1.843   3.327  13.880  0.7693 -0.7346 -0.3975
 6601TIP3    H241219   1.935   3.322  14.001  0.0036  0.3985  0.2502
 6602TIP3   OH241220   2.876   1.283   2.719  0.2998  0.5692 -0.0086
 6602TIP3    H141221   2.930   1.227   2.664 -0.4831 -0.1833 -0.0310
 6602TIP3    H241222   2.840   1.349   2.659  0.9049  0.8619 -0.0544
 6603TIP3   OH241223   0.108   0.262   3.967 -0.2808 -0.2791  0.1351
 6603TIP3    H141224   0.121   0.356   3.955 -2.1838  0.1892  1.2102
 6603TIP3    H241225   0.194   0.224   3.952  0.7896  1.7401  0.6542
 6604TIP3   OH241226   4.074   6.156  13.030 -0.2260  0.0584  0.2582
 6604TIP3    H141227   4.076   6.060  13.024  1.5768  0.0004  1.2934
 6604TIP3    H241228   4.023   6.174  13.109 -1.8694  0.0464 -0.7463
 6605TIP3   OH241229   3.467   0.042  11.354 -0.2372 -0.0978  0.0497
 6605TIP3    H141230   3.545   0.084  11.390  0.2708  0.0552 -1.1962
 6605TIP3    H241231   3.424   0.003  11.430  1.3120 -0.6211  0.6939
 6606TIP3   OH241232   6.762   3.044  13.393 -0.1761  0.7739 -0.4174
 6606TIP3    H141233   6.793   2.983  13.326 -0.0242  0.0107  0.3338
 6606TIP3    H241234   6.706   2.991  13.449  0.7892  1.0653  0.8619
 6607TIP3   OH241235   6.330   5.202  15.620  0.2628 -1.1765 -0.6205
 6607TIP3    H141236   6.256   5.196  15.681  0.3030 -1.7904 -0.6287
 6607TIP3    H241237   6.407   5.183  15.674  0.8260  2.4028  0.1231
 6608TIP3   OH241238   2.034   5.703   2.666 -0.2672  0.3917 -0.2047
 6608TIP3    H141239   2.039   5.653   2.748 -0.3759 -0.3671 -0.6449
 6608TIP3    H241240   2.125   5.719   2.642 -0.0981 -1.8482 -1.3666
 6609TIP3   OH241241   4.218   1.209   5.734 -0.2693  0.2527  0.9181
 6609TIP3    H141242   4.199   1.123   5.695 -0.2165  0.1673  1.0792
 6609TIP3    H241243   4.305   1.231   5.703 -0.5438  0.5471  0.3498
 6610TIP3   OH241244   2.934   5.918  16.094  0.3564  0.5406 -0.2786
 6610TIP3    H141245   2.864   5.973  16.128 -0.4594 -1.1091  0.8799
 6610TIP3    H241246   3.013   5.949  16.137 -0.3291 -0.1222  1.5305
 6611TIP3   OH241247   4.142   3.141   6.060  0.0452  0.0643  0.0260
 6611TIP3    H141248   4.141   3.050   6.091 -0.2683 -0.2910 -0.9731
 6611TIP3    H241249   4.186   3.190   6.130  1.2895 -1.0477  0.0579
 6612TIP3   OH241250   4.258   6.442  10.817 -0.2908  0.1431  0.3259
 6612TIP3    H141251   4.299   6.409  10.897  1.3815 -0.2277 -0.6269
 6612TIP3    H241252   4.262   6.537  10.826 -1.2052  0.1157  1.1873
 6613TIP3   OH241253   0.042   4.303   3.725  0.1875 -0.3951  0.3354
 6613TIP3    H141254   0.132   4.306   3.757 -0.2713 -0.6088  1.7228
 6613TIP3    H241255   0.040   4.226   3.669  0.6045 -1.0733  1.2166
 6614TIP3   OH241256   1.035   5.701   4.304 -0.8136  0.0945 -0.3534
 6614TIP3    H141257   0.995   5.762   4.367 -1.6563 -1.7241  0.9654
 6614TIP3    H241258   1.028   5.746   4.220  1.6278  3.2652  0.9336
 6615TIP3   OH241259   4.704   0.235   4.915  0.2786  0.0773  0.1624
 6615TIP3    H141260   4.669   0.271   4.996 -1.9080 -0.2227 -0.5608
 6615TIP3    H241261   4.719   0.311   4.859  0.7781  0.2084  0.4676
 6616TIP3   OH241262   1.783   0.019  12.863 -0.4070  0.2139  0.0491
 6616TIP3    H141263   1.695   0.031  12.900 -1.4495 -2.5134 -1.2498
 6616TIP3    H241264   1.788   0.084  12.793 -0.2944  2.1404  1.7340
 6617TIP3   OH241265   2.339   5.217   2.174 -0.3666 -0.2430 -0.1765
 6617TIP3    H141266   2.376   5.304   2.156 -1.2927  0.4876  1.3044
 6617TIP3    H241267   2.414   5.157   2.165  0.0619  0.5366 -2.2834
 6618TIP3   OH241268   0.610   3.539   6.547 -0.3205  0.0591  0.6837
 6618TIP3    H141269   0.609   3.452   6.506  0.0796  0.4833 -0.2603
 6618TIP3    H241270   0.518   3.559   6.564 -0.3566 -0.9722  1.8643
 6619TIP3   OH241271   3.592   0.835   4.421 -0.0264 -0.3121  0.0443
 6619TIP3    H141272   3.641   0.872   4.495 -0.4161  1.4048 -0.5032
 6619TIP3    H241273   3.647   0.765   4.388  1.6440  0.9386  0.0342
 6620TIP3   OH241274   0.789   3.203  12.314 -0.1874 -0.4127  0.5351
 6620TIP3    H141275   0.734   3.269  12.356 -0.7907 -1.0140  0.7098
 6620TIP3    H241276   0.745   3.182  12.232 -0.1525 -0.8042  0.6135
 6621TIP3   OH241277   6.633   3.432   0.992  0.2963  0.3783  0.3994
 6621TIP3    H141278   6.643   3.395   0.904 -1.7149  0.0304  0.2865
 6621TIP3    H241279   6.649   3.526   0.980  1.1925  0.1730 -0.0987
 6622TIP3   OH241280   3.351   0.652  12.902  0.6940  0.0310  0.0421
 6622TIP3    H141281   3.444   0.650  12.926  1.2056 -1.6683 -1.7800
 6622TIP3    H241282   3.342   0.732  12.850  0.6356  1.2681  1.8954
 6623TIP3   OH241283   1.119   0.115   0.885 -0.3676 -0.2319  0.1205
 6623TIP3    H141284   1.209   0.095   0.909 -0.0517 -0.1481 -0.9578
 6623TIP3    H241285   1.108   0.208   0.907 -0.4051 -0.3990  0.8466
 6624TIP3   OH241286   6.496   4.821  10.750 -0.2444 -0.2309 -0.1042
 6624TIP3    H141287   6.452   4.880  10.811  0.2452 -0.8497  0.8701
 6624TIP3    H241288   6.431   4.753  10.731 -0.6472  0.3575 -0.8570
 6625TIP3   OH241289   5.248   1.478  10.642  0.4012  0.7211 -0.0507
 6625TIP3    H141290   5.310   1.539  10.602  1.7969  0.2366  1.2739
 6625TIP3    H241291   5.193   1.449  10.569  1.0797  1.9376 -1.0885
 6626TIP3   OH241292   0.471   0.645   1.040  0.0781  0.0021  0.1533
 6626TIP3    H141293   0.469   0.731   1.082  0.3372 -0.1019  0.3802
 6626TIP3    H241294   0.450   0.663   0.948  0.1421  0.3101  0.1977
 6627TIP3   OH241295   4.108   3.353   0.669 -0.0808 -0.4015 -0.9956
 6627TIP3    H141296   4.141   3.359   0.759 -1.7877  1.2429 -0.4322
 6627TIP3    H241297   4.069   3.265   0.664 -0.5647 -0.2662  0.1023
 6628TIP3   OH241298   1.363   6.316  14.780  0.6162 -0.0886  0.0363
 6628TIP3    H141299   1.358   6.231  14.737  0.5028  1.0528 -2.4074
 6628TIP3    H241300   1.400   6.374  14.713  0.8089  1.7679  1.6617
 6629TIP3   OH241301   2.010   0.977   3.581  0.2013 -0.0344 -0.2862
 6629TIP3    H141302   2.012   0.894   3.628  1.3183  0.7733  1.1914
 6629TIP3    H241303   2.095   0.982   3.537 -0.1524 -0.0011 -0.9707
 6630TIP3   OH241304   6.673   3.021  15.750 -1.1381  0.2935  0.0770
 6630TIP3    H141305   6.610   2.954  15.778  0.5778 -1.4499 -0.0265
 6630TIP3    H241306   6.671   3.018  15.655 -1.3582  0.7137  0.0648
 6631TIP3   OH241307   2.830   6.038   1.897  0.3611 -0.0765 -0.0056
 6631TIP3    H141308   2.906   5.985   1.872 -1.0411 -2.5700  0.7089
 6631TIP3    H241309   2.809   6.087   1.818  1.3037 -1.1250 -0.9460
 6632TIP3   OH241310   6.187   5.563   5.407 -0.0149 -0.0767 -0.6115
 6632TIP3    H141311   6.212   5.590   5.495 -1.1332 -0.6424 -0.0993
 6632TIP3    H241312   6.140   5.638   5.371  0.2901  0.0900 -0.6654
 6633TIP3   OH241313   2.533   2.471  14.440  0.2742 -0.1000 -0.4272
 6633TIP3    H141314   2.618   2.507  14.464  1.1091 -1.4480 -1.2261
 6633TIP3    H241315   2.481   2.477  14.520  2.1482 -2.1232  1.0589
 6634TIP3   OH241316   0.068   0.487  10.734  0.9716  0.3189  0.2022
 6634TIP3    H141317   0.147   0.521  10.691  0.2122  0.4720 -1.1022
 6634TIP3    H241318   0.102   0.431  10.805  2.2421  0.6642 -0.1065
 6635TIP3   OH241319   1.595   3.421   3.543 -0.4228  0.1897 -0.3328
 6635TIP3    H141320   1.518   3.364   3.540 -0.2068 -0.4207  2.4648
 6635TIP3    H241321   1.559   3.508   3.561 -0.5469  0.3301 -1.1986
 6636TIP3   OH241322   6.475   0.937  14.199  0.0068  0.4620 -0.5215
 6636TIP3    H141323   6.534   0.963  14.128 -0.4708  0.4361 -0.9304
 6636TIP3    H241324   6.506   0.850  14.225  0.0031  0.3446 -0.8987
 6637TIP3   OH241325   6.367   6.283   1.450 -0.6560  0.2011 -0.0707
 6637TIP3    H141326   6.286   6.334   1.454  0.3950  1.9123  0.6934
 6637TIP3    H241327   6.355   6.215   1.516 -0.9842  1.2282  0.9619
 6638TIP3   OH241328   4.264   4.731  16.322 -0.0560  0.5070  0.2978
 6638TIP3    H141329   4.308   4.647  16.313  3.2102  2.1659 -0.6588
 6638TIP3    H241330   4.181   4.720  16.274  0.4677 -1.9814 -0.1676
 6639TIP3   OH241331   0.618   3.374   3.693 -0.2823 -0.0539  0.2804
 6639TIP3    H141332   0.652   3.285   3.685  1.4353  0.4843  1.1200
 6639TIP3    H241333   0.535   3.363   3.739  0.0634 -1.2048  0.6788
 6640TIP3   OH241334   5.121   5.201  13.851  0.0071  0.2760  0.1713
 6640TIP3    H141335   5.063   5.125  13.850  0.4789 -0.0884 -0.6751
 6640TIP3    H241336   5.206   5.165  13.877  0.2544  0.4882 -0.3361
 6641TIP3   OH241337   5.166   2.591   1.495  0.0911 -0.4646 -0.2728
 6641TIP3    H141338   5.150   2.682   1.468  2.1419 -0.5405 -2.0377
 6641TIP3    H241339   5.219   2.599   1.574  0.9916 -0.0847 -0.9008
 6642TIP3   OH241340   3.740   5.245   4.755  0.0319 -0.0693 -0.4906
 6642TIP3    H141341   3.707   5.155   4.756 -0.6325  0.1642 -0.7029
 6642TIP3    H241342   3.705   5.283   4.675 -2.3932  1.3195  1.0661
 6643TIP3   OH241343   1.722   3.281  12.209 -0.1069 -0.3421  0.1287
 6643TIP3    H141344   1.788   3.222  12.174 -0.8967 -0.5887 -0.9958
 6643TIP3    H241345   1.668   3.305  12.133 -1.5302 -0.4404  1.0715
 6644TIP3   OH241346   2.940   3.013  16.329  0.6778  0.0434 -0.1938
 6644TIP3    H141347   2.992   2.933  16.322  0.4675 -0.0681 -0.4925
 6644TIP3    H241348   2.987   3.077  16.274  0.4228 -0.0995 -0.5833
 6645TIP3   OH241349   5.311   1.911   5.321  0.4960 -0.1136 -0.2919
 6645TIP3    H141350   5.309   1.825   5.280  0.3330  0.0474 -0.6321
 6645TIP3    H241351   5.396   1.915   5.366  0.3640 -0.5691 -0.0044
 6646TIP3   OH241352   5.627   3.553   0.463 -0.4514 -0.0568  0.4648
 6646TIP3    H141353   5.723   3.554   0.460 -0.4715  0.5584 -1.1385
 6646TIP3    H241354   5.604   3.468   0.500  0.7051 -0.9382 -0.7770
 6647TIP3   OH241355   0.885   4.926  11.894 -0.3820  0.3120  0.1777
 6647TIP3    H141356   0.964   4.889  11.934 -1.3373 -1.0151  0.9122
 6647TIP3    H241357   0.854   4.991  11.956  0.6558  1.5780 -0.5782
 6648TIP3   OH241358   6.219   1.605  11.410  0.7901 -0.2682 -0.2379
 6648TIP3    H141359   6.157   1.677  11.414  1.3417  0.1770  1.2342
 6648TIP3    H241360   6.290   1.637  11.354  0.2526 -0.3410 -0.9758
 6649TIP3   OH241361   2.920   1.647   3.540 -0.0430  0.5439 -0.0224
 6649TIP3    H141362   2.884   1.677   3.457  1.9003  1.2722 -0.6495
 6649TIP3    H241363   2.937   1.727   3.589  2.0858  0.3429 -0.3640
 6650TIP3   OH241364   4.042   2.050   2.553  0.1632  0.1176 -0.6132
 6650TIP3    H141365   4.017   2.136   2.587  0.2879  0.2400 -0.8320
 6650TIP3    H241366   4.093   2.011   2.624  1.0943  0.6876 -0.9484
 6651TIP3   OH241367   2.000   4.096   0.938 -0.0421 -0.5035  0.2734
 6651TIP3    H141368   2.005   4.046   1.019  0.0644  0.5188  0.9117
 6651TIP3    H241369   2.058   4.171   0.952  1.2329 -1.1259 -1.3547
 6652TIP3   OH241370   5.261   0.089  13.293 -0.0428  0.7402 -0.0789
 6652TIP3    H141371   5.344   0.089  13.245  1.1939 -1.2837  1.8698
 6652TIP3    H241372   5.284   0.117  13.381 -1.4841  0.3950  0.4367
 6653TIP3   OH241373   2.067   3.093  12.504  0.7248  0.3306 -0.1146
 6653TIP3    H141374   1.995   3.031  12.517  0.1483  0.8973 -0.5864
 6653TIP3    H241375   2.078   3.135  12.589 -1.4173  2.2832 -0.7089
 6654TIP3   OH241376   3.168   1.475  10.950 -0.4276  0.1793 -0.1029
 6654TIP3    H141377   3.178   1.440  11.039  2.4344  1.6559  0.2762
 6654TIP3    H241378   3.190   1.402  10.893 -0.2708 -0.2230  0.4581
 6655TIP3   OH241379   2.136   4.236  15.045 -0.3515  0.9959  0.3241
 6655TIP3    H141380   2.085   4.190  14.979 -0.8691  0.7324  0.8941
 6655TIP3    H241381   2.078   4.306  15.075  0.9066  2.9199 -1.4833
 6656TIP3   OH241382   2.525   0.839   0.316 -0.4387  0.2133  0.3490
 6656TIP3    H141383   2.548   0.925   0.352 -3.1893  0.6905  1.1653
 6656TIP3    H241384   2.570   0.777   0.373  0.3871  1.0606  0.6562
 6657TIP3   OH241385   0.229   4.818  15.212 -0.4067 -0.9015 -0.1036
 6657TIP3    H141386   0.283   4.895  15.194 -0.6481 -0.6954  0.0379
 6657TIP3    H241387   0.287   4.744  15.199  0.1939 -0.6474  0.9924
 6658TIP3   OH241388   4.540   0.760   3.170 -0.1820 -0.3387 -0.4554
 6658TIP3    H141389   4.548   0.855   3.167 -1.8972 -0.0627  1.4249
 6658TIP3    H241390   4.625   0.729   3.201  0.3451  0.5697 -0.9490
 6659TIP3   OH241391   4.816   1.100  13.313 -0.6020  0.7870  0.3391
 6659TIP3    H141392   4.746   1.122  13.374 -0.3017  1.3234  0.4892
 6659TIP3    H241393   4.848   1.015  13.343 -0.2578  1.1832  1.1091
 6660TIP3   OH241394   5.106   2.030   5.496 -0.6122 -0.3674 -0.2687
 6660TIP3    H141395   5.037   2.062   5.438 -0.5164 -0.6110 -0.5232
 6660TIP3    H241396   5.167   1.985   5.438 -0.0713  0.1211 -0.0899
 6661TIP3   OH241397   1.224   3.319  13.452  0.6539 -0.0774  0.1259
 6661TIP3    H141398   1.238   3.252  13.519  0.0304  0.6791  1.0452
 6661TIP3    H241399   1.163   3.279  13.389  0.0467 -0.2834  0.8310
 6662TIP3   OH241400   1.235   0.108   1.796  0.3654  0.0143 -0.5600
 6662TIP3    H141401   1.224   0.033   1.854 -1.4764  0.1617 -0.6496
 6662TIP3    H241402   1.301   0.162   1.840  1.2760 -1.3361 -0.1975
 6663TIP3   OH241403   0.082   1.039   2.270 -0.3345 -0.2706  0.4305
 6663TIP3    H141404   0.036   1.078   2.196  1.5171  1.7001  0.2275
 6663TIP3    H241405   0.128   1.113   2.311  0.5978 -1.7179  2.1286
 6664TIP3   OH241406   1.466   3.811  14.488  0.3472 -0.1853  0.3052
 6664TIP3    H141407   1.402   3.871  14.449 -0.7285 -1.0280  0.7384
 6664TIP3    H241408   1.414   3.741  14.525  1.4953 -0.5676  1.2532
 6665TIP3   OH241409   5.492   0.393  15.962  0.3336  0.4312  0.0531
 6665TIP3    H141410   5.555   0.451  15.919  0.8787  0.0074  0.2658
 6665TIP3    H241411   5.494   0.313  15.910 -0.3881  0.5826 -0.2166
 6666TIP3   OH241412   6.497   5.655   4.061  0.2982 -0.0243 -0.1054
 6666TIP3    H141413   6.456   5.664   4.148 -0.0381  0.5828 -0.3253
 6666TIP3    H241414   6.480   5.738   4.018  1.1942 -0.0169 -0.4552
 6667TIP3   OH241415   6.508   5.204   3.319 -0.4897  0.4256  0.1425
 6667TIP3    H141416   6.499   5.166   3.231  0.0803  2.4577 -0.8502
 6667TIP3    H241417   6.597   5.238   3.321 -0.7892  1.1749  1.1876
 6668TIP3   OH241418   2.483   0.181   4.617  0.5939 -0.6563  0.1931
 6668TIP3    H141419   2.535   0.243   4.668 -0.2226 -0.1845  0.4690
 6668TIP3    H241420   2.398   0.224   4.606  0.2817 -1.3805 -0.3132
 6669TIP3   OH241421   5.631   3.135  15.416  0.3323  0.1104  0.4101
 6669TIP3    H141422   5.716   3.179  15.418  0.9030 -0.9673  2.3677
 6669TIP3    H241423   5.648   3.048  15.450 -1.5102 -0.2561  0.5119
 6670TIP3   OH241424   3.928   0.750  14.976 -0.0661 -0.1905  0.6900
 6670TIP3    H141425   4.020   0.727  14.971 -0.1188 -0.7636  1.9938
 6670TIP3    H241426   3.885   0.695  14.911  0.2053 -1.7003  1.7388
 6671TIP3   OH241427   3.185   1.857   1.108  0.7874 -0.1701 -0.3189
 6671TIP3    H141428   3.230   1.938   1.134  1.5777 -0.8676  0.5707
 6671TIP3    H241429   3.137   1.830   1.186  2.4616 -1.8149  0.2302
 6672TIP3   OH241430   0.145   3.899  11.342 -0.0058  0.3721 -0.0815
 6672TIP3    H141431   0.082   3.971  11.350 -0.8516 -0.4318  0.7459
 6672TIP3    H241432   0.147   3.880  11.248 -0.0483  1.2257 -0.2663
 6673TIP3   OH241433   1.681   4.415   2.948 -0.0539 -0.8397  0.1152
 6673TIP3    H141434   1.727   4.353   3.004  2.9229 -1.1750 -2.4025
 6673TIP3    H241435   1.748   4.479   2.924 -2.2837  1.7587  0.2689
 6674TIP3   OH241436   6.399   4.442  13.731  0.0993  0.5635  0.6189
 6674TIP3    H141437   6.445   4.466  13.812 -0.7192 -0.3168  1.3784
 6674TIP3    H241438   6.466   4.401  13.677  0.3111 -0.4872  1.6173
 6675TIP3   OH241439   2.342   5.221  11.962  0.3138 -0.5554 -0.5301
 6675TIP3    H141440   2.283   5.243  12.034 -0.7504  0.2086 -1.5964
 6675TIP3    H241441   2.289   5.170  11.901  1.4093 -1.8674 -0.4445
 6676TIP3   OH241442   1.150   5.526  16.934  0.2743  0.2351  0.2459
 6676TIP3    H141443   1.241   5.550  16.914 -0.2931  1.8075 -0.6145
 6676TIP3    H241444   1.127   5.582  17.008 -1.3576  3.3783 -2.3555
 6677TIP3   OH241445   0.284   4.590  16.688  0.2325  0.3669  0.2567
 6677TIP3    H141446   0.366   4.616  16.647  0.1913  1.5096  0.8605
 6677TIP3    H241447   0.217   4.633  16.635  0.0621  0.0332  0.2007
 6678TIP3   OH241448   5.635   1.668   1.161 -0.2323 -0.1542  0.4423
 6678TIP3    H141449   5.703   1.655   1.094 -0.7709 -0.5941 -0.0244
 6678TIP3    H241450   5.606   1.758   1.149 -0.5589 -0.3319 -0.1424
 6679TIP3   OH241451   4.499   2.332   3.741 -0.1296  0.4875 -0.4309
 6679TIP3    H141452   4.563   2.400   3.717 -0.3246  0.2975 -1.5408
 6679TIP3    H241453   4.415   2.367   3.713 -0.1185 -0.6151 -1.9570
 6680TIP3   OH241454   4.200   6.736  12.774  0.4118  0.2843  0.2668
 6680TIP3    H141455   4.152   6.802  12.824  1.4003 -0.8808  2.9546
 6680TIP3    H241456   4.280   6.780  12.746  0.2678  0.7165  0.5354
 6681TIP3   OH241457   6.739   1.221   5.334 -0.0925 -0.1434  0.2285
 6681TIP3    H141458   6.803   1.277   5.378  0.4071 -1.3305  1.0571
 6681TIP3    H241459   6.757   1.235   5.241  1.4111 -0.4471  0.4329
 6682TIP3   OH241460   6.563   4.216   3.016 -0.2949  0.2573  0.2224
 6682TIP3    H141461   6.499   4.244   2.951 -0.3423  0.2387  0.2610
 6682TIP3    H241462   6.638   4.184   2.965 -0.2806  0.3627  0.1782
 6683TIP3   OH241463   2.694   4.582  14.240  0.6063  0.1959  0.0472
 6683TIP3    H141464   2.637   4.568  14.315  1.3570  0.4991  0.6948
 6683TIP3    H241465   2.755   4.651  14.268  2.1926 -1.0803 -0.0711
 6684TIP3   OH241466   5.012   4.286  16.752 -0.1099 -0.2262 -0.6948
 6684TIP3    H141467   4.981   4.204  16.790  2.1876 -0.4444  0.9480
 6684TIP3    H241468   5.098   4.265  16.715 -0.0377  1.1697 -1.4153
 6685TIP3   OH241469   6.431   1.596  13.036 -0.4359  0.4730 -0.5558
 6685TIP3    H141470   6.436   1.571  13.128  1.1176 -2.4295 -1.3180
 6685TIP3    H241471   6.432   1.692  13.038  2.4631  0.5775  2.3815
 6686TIP3   OH241472   5.145   1.097  12.979  0.4780 -0.8096  0.2220
 6686TIP3    H141473   5.121   1.045  13.055  2.1780  0.5025  1.7378
 6686TIP3    H241474   5.079   1.167  12.976  0.2172 -1.0514  0.2828
 6687TIP3   OH241475   3.323   1.446  13.972  0.3734  0.4042  0.1666
 6687TIP3    H141476   3.294   1.370  14.023 -1.2934  0.3860 -0.7157
 6687TIP3    H241477   3.384   1.492  14.029  1.3451 -1.5331  0.7629
 6688TIP3   OH241478   5.522   0.892  10.957  0.1373  0.2480 -0.9438
 6688TIP3    H141479   5.484   0.855  10.878  1.9010 -0.8784 -1.3191
 6688TIP3    H241480   5.491   0.835  11.028 -2.6270  2.0706 -0.4764
 6689TIP3   OH241481   5.229   0.862  16.806 -0.3634 -1.1448 -0.1261
 6689TIP3    H141482   5.280   0.933  16.765  1.3157 -1.6124  1.0449
 6689TIP3    H241483   5.203   0.807  16.732  3.0093 -2.2296 -0.6901
 6690TIP3   OH241484   0.032   5.810  14.122 -0.7302 -0.2245 -0.6215
 6690TIP3    H141485  -0.062   5.809  14.104 -0.7140  0.9043 -0.8740
 6690TIP3    H241486   0.048   5.897  14.159  0.7450  0.9005 -3.6222
 6691TIP3   OH241487   6.702   3.201  12.967 -0.1313  0.1255  0.8865
 6691TIP3    H141488   6.710   3.207  13.062  3.0657  1.1581  0.6839
 6691TIP3    H241489   6.711   3.108  12.948 -0.4477 -0.0495  1.5805
 6692TIP3   OH241490   0.053   6.285   0.117  0.2098  0.1663 -0.0955
 6692TIP3    H141491   0.050   6.191   0.096 -0.6611  0.2561 -0.4451
 6692TIP3    H241492   0.136   6.315   0.080  0.3938 -0.4236 -0.1783
 6693TIP3   OH241493   1.814   2.268  14.047 -0.1784  0.2566  0.0988
 6693TIP3    H141494   1.777   2.195  14.098  0.4618  0.0102  0.2172
 6693TIP3    H241495   1.750   2.339  14.057 -0.3425  0.0234  0.7756
 6694TIP3   OH241496   6.065   3.040  11.485 -0.0967 -0.4598  0.3553
 6694TIP3    H141497   6.099   3.109  11.542 -1.5872  1.0607 -0.5012
 6694TIP3    H241498   5.990   3.080  11.441  0.6648 -1.7220 -2.2978
 6695TIP3   OH241499   3.376   3.155  16.896 -0.0860  0.2931 -0.5281
 6695TIP3    H141500   3.341   3.067  16.910 -0.7565  0.5926 -0.2960
 6695TIP3    H241501   3.373   3.167  16.801  2.1721 -0.7953 -0.8138
 6696TIP3   OH241502   4.511   3.173  15.225  0.0628  0.3374  0.4411
 6696TIP3    H141503   4.467   3.093  15.195 -0.8707  0.3547  1.6774
 6696TIP3    H241504   4.568   3.197  15.152 -0.8713 -0.5255 -0.6267
 6697TIP3   OH241505   5.132   3.604  16.382  0.1233  0.6337 -0.3741
 6697TIP3    H141506   5.075   3.621  16.458  0.3271 -1.3066  0.2838
 6697TIP3    H241507   5.071   3.591  16.309 -0.3670 -1.4724  0.3323
 6698TIP3   OH241508   2.518   6.480  14.804 -0.4357  0.0458 -0.5107
 6698TIP3    H141509   2.509   6.545  14.734 -0.3955  1.4762  0.7824
 6698TIP3    H241510   2.492   6.397  14.762 -2.2928  1.1484 -1.7087
 6699TIP3   OH241511   3.710   2.600  11.152 -0.0284  0.4652 -0.3379
 6699TIP3    H141512   3.671   2.608  11.064  1.6939 -1.1750 -1.3206
 6699TIP3    H241513   3.673   2.519  11.186  2.8663 -1.5586 -1.6019
 6700TIP3   OH241514   6.037   4.882  15.365  0.0930  0.2352  0.0447
 6700TIP3    H141515   6.102   4.952  15.369  2.0943 -1.5285  0.5744
 6700TIP3    H241516   6.023   4.867  15.272 -0.1834  1.1519 -0.0717
 6701TIP3   OH241517   5.582   5.786   0.343 -0.0152  0.0391 -0.0606
 6701TIP3    H141518   5.569   5.849   0.272  2.0611 -0.5146 -1.0199
 6701TIP3    H241519   5.517   5.809   0.408 -0.8263  1.7050 -1.3827
 6702TIP3   OH241520   3.348   0.103  15.353 -0.0885  0.6682  0.3742
 6702TIP3    H141521   3.308   0.017  15.360  1.0064  0.1429  0.3362
 6702TIP3    H241522   3.398   0.113  15.434  1.6302  0.2871 -0.5964
 6703TIP3   OH241523   5.133   2.349   0.858  0.1470  0.3632  0.0588
 6703TIP3    H141524   5.180   2.304   0.788  0.7411  0.5103  0.3590
 6703TIP3    H241525   5.041   2.323   0.846  0.4345 -0.6627  0.0272
 6704TIP3   OH241526   3.556   5.253  12.934 -0.4288  0.1565  0.8736
 6704TIP3    H141527   3.495   5.327  12.938  0.0022  0.5990 -0.5000
 6704TIP3    H241528   3.558   5.228  12.842  0.6775 -0.5332  1.0748
 6705TIP3   OH241529   6.683   3.946   3.317 -0.0930 -0.6367 -0.0021
 6705TIP3    H141530   6.647   4.035   3.318 -1.8559 -1.3241  0.3286
 6705TIP3    H241531   6.615   3.893   3.275  1.3086 -1.7038 -1.0394
 6706TIP3   OH241532   5.723   4.111   4.811  0.2391 -0.3085  0.0135
 6706TIP3    H141533   5.664   4.178   4.776 -2.1040 -1.3577  1.6937
 6706TIP3    H241534   5.748   4.059   4.735  0.7804  1.4227 -1.0663
 6707TIP3   OH241535   0.877   6.094   5.724  0.5992 -0.3484 -0.4416
 6707TIP3    H141536   0.941   6.157   5.756  0.3950 -0.2873 -0.1489
 6707TIP3    H241537   0.904   6.011   5.762  2.0170 -0.8433 -2.3771
 6708TIP3   OH241538   6.157   2.513  15.494  0.1223  0.5172 -0.0252
 6708TIP3    H141539   6.239   2.475  15.461  0.5001  3.1955 -2.5833
 6708TIP3    H241540   6.184   2.586  15.549 -0.5862 -0.1656  1.2707
 6709TIP3   OH241541   4.557   1.678  14.835  0.0651  0.7356 -0.0268
 6709TIP3    H141542   4.552   1.603  14.775 -2.4890  1.4829 -0.8922
 6709TIP3    H241543   4.642   1.717  14.818  1.3343 -1.7255  0.2000
 6710TIP3   OH241544   3.838   4.946  15.453  0.6121  0.0795 -0.6153
 6710TIP3    H141545   3.865   4.859  15.422  2.8528  0.4721  0.1124
 6710TIP3    H241546   3.806   4.990  15.374  0.1042 -1.1409 -1.1237
 6711TIP3   OH241547   4.609   6.088   2.494 -0.0791  0.3366 -0.1084
 6711TIP3    H141548   4.584   6.162   2.438 -0.1683 -0.4571 -1.1402
 6711TIP3    H241549   4.578   6.011   2.447  0.4124 -0.3924  0.7402
 6712TIP3   OH241550   0.398   6.086  14.637 -0.1787 -0.2770  0.5171
 6712TIP3    H141551   0.362   5.997  14.634 -0.3215 -0.2167  0.4129
 6712TIP3    H241552   0.327   6.139  14.673 -0.4426 -0.0393 -0.3310
 6713TIP3   OH241553   5.853   2.921  13.561  0.0851 -0.2100 -0.2373
 6713TIP3    H141554   5.862   2.831  13.593  0.0298 -0.1635 -0.0899
 6713TIP3    H241555   5.761   2.943  13.578  0.4617  0.4104  1.1411
 6714TIP3   OH241556   4.701   1.241  14.087 -0.6313  0.0090 -0.3175
 6714TIP3    H141557   4.742   1.316  14.129 -0.6045 -0.3523  0.3187
 6714TIP3    H241558   4.613   1.271  14.063 -1.2550 -0.2672  1.5217
 6715TIP3   OH241559   4.839   6.547   3.780  0.6927 -0.8268  0.1446
 6715TIP3    H141560   4.912   6.596   3.817  0.9754 -0.8598 -0.3588
 6715TIP3    H241561   4.762   6.599   3.801  0.4962 -2.1644  3.1568
 6716TIP3   OH241562   4.367   3.351  12.840 -0.0032 -0.5280 -0.1210
 6716TIP3    H141563   4.446   3.344  12.787  0.9847  2.3724  0.7883
 6716TIP3    H241564   4.372   3.277  12.901  0.9288 -1.5321 -1.3675
 6717TIP3   OH241565   5.480   6.531  15.305 -0.2027 -0.4018  0.4131
 6717TIP3    H141566   5.489   6.614  15.352 -0.3983 -1.4583  2.4100
 6717TIP3    H241567   5.564   6.488  15.316 -0.0176 -0.4136 -0.8310
 6718TIP3   OH241568   4.291   0.261  13.093  0.2672 -0.0548  0.0881
 6718TIP3    H141569   4.248   0.251  13.178 -0.9470  0.4419 -0.4576
 6718TIP3    H241570   4.264   0.348  13.063 -0.8737 -0.9858 -1.6758
 6719TIP3   OH241571   0.653   5.270  16.306  0.2958 -0.2203  0.2035
 6719TIP3    H141572   0.654   5.321  16.225 -1.3397 -0.0211  0.2846
 6719TIP3    H241573   0.730   5.214  16.299  0.3358 -0.0268 -1.3752
 6720TIP3   OH241574   2.173   3.330  14.724 -0.1097 -0.3632  0.8483
 6720TIP3    H141575   2.247   3.381  14.691 -0.0596 -1.0553 -0.1805
 6720TIP3    H241576   2.197   3.239  14.705 -1.5374 -0.5570 -0.2182
 6721TIP3   OH241577   5.352   1.115  10.919  0.1966  0.2194 -0.1954
 6721TIP3    H141578   5.411   1.044  10.944  0.8754  0.2945 -1.5113
 6721TIP3    H241579   5.308   1.083  10.841 -0.5391  0.6975  0.0109
 6722TIP3   OH241580   5.677   3.667   5.945 -0.6944  0.6162 -0.3692
 6722TIP3    H141581   5.590   3.635   5.969  0.4559 -2.0042  0.6543
 6722TIP3    H241582   5.708   3.713   6.023 -0.6461  0.3907 -0.2554
 6723TIP3   OH241583   0.629   1.132   0.660  0.0614  0.0133  0.3467
 6723TIP3    H141584   0.599   1.061   0.603  2.4275 -0.0055 -1.0344
 6723TIP3    H241585   0.657   1.089   0.741 -1.4415 -0.2073  0.7698
 6724TIP3   OH241586   3.867   6.241   0.379  0.7026 -0.2264 -0.2721
 6724TIP3    H141587   3.956   6.276   0.376  1.0571 -0.9602  0.9168
 6724TIP3    H241588   3.878   6.152   0.413 -0.2527 -1.2370 -2.4454
 6725TIP3   OH241589   4.605   2.944   1.581  0.4939  0.3094 -0.6411
 6725TIP3    H141590   4.527   2.975   1.536 -0.2482  3.6731  2.4897
 6725TIP3    H241591   4.666   3.017   1.576  1.8686 -0.6962  0.4663
 6726TIP3   OH241592   1.983   0.740  16.007  0.1073  0.9479  0.0313
 6726TIP3    H141593   2.025   0.695  15.934  0.6214  2.3780 -0.5960
 6726TIP3    H241594   2.049   0.802  16.038 -0.0165  0.2095  1.8821
 6727TIP3   OH241595   0.671   4.155  16.570 -0.0297  0.2473  0.6107
 6727TIP3    H141596   0.678   4.184  16.479  5.0634  0.2626  0.6874
 6727TIP3    H241597   0.639   4.232  16.617 -2.3149  0.3760 -0.9732
 6728TIP3   OH241598   6.387   3.779  16.504  0.2317 -0.0648 -0.2697
 6728TIP3    H141599   6.383   3.874  16.491 -0.3242 -0.0117  0.2017
 6728TIP3    H241600   6.328   3.744  16.437 -0.4556  0.0095  0.2869
 6729TIP3   OH241601   5.066   5.927  14.719 -0.3159  0.1289 -0.2579
 6729TIP3    H141602   5.134   5.863  14.696  0.6050  1.2066 -0.6456
 6729TIP3    H241603   5.040   5.965  14.635  0.3866  1.4530  0.0908
 6730TIP3   OH241604   6.785   2.021  16.121 -0.4878 -0.3850  0.3327
 6730TIP3    H141605   6.744   1.935  16.125 -0.4835 -0.4553 -0.7188
 6730TIP3    H241606   6.803   2.044  16.212  0.0460 -1.7456  0.5843
 6731TIP3   OH241607   5.271   2.206  16.556  0.2703 -0.2644  0.5594
 6731TIP3    H141608   5.291   2.194  16.464  1.1809  2.1871  0.3712
 6731TIP3    H241609   5.241   2.120  16.585 -0.1991 -1.0651 -2.0281
 6732TIP3   OH241610   5.560   3.033   2.043  0.1946  0.2124 -0.8151
 6732TIP3    H141611   5.639   2.992   2.078 -0.1425 -0.8685 -1.2701
 6732TIP3    H241612   5.591   3.113   2.002  0.8989  0.3594 -0.0221
 6733TIP3   OH241613   3.877   6.188  13.219 -0.4701  0.0962 -0.2955
 6733TIP3    H141614   3.827   6.224  13.146 -1.8163  1.2048  1.0825
 6733TIP3    H241615   3.818   6.123  13.258  0.6472 -1.2481 -0.7912
 6734TIP3   OH241616   4.913   3.641  14.253  0.3145 -1.3447  0.1593
 6734TIP3    H141617   4.991   3.647  14.307  2.0826 -3.6207 -1.9319
 6734TIP3    H241618   4.860   3.572  14.295 -1.1725  0.8184  2.1002
 6735TIP3   OH241619   1.454   3.325  13.170 -0.1489  0.2902 -0.3601
 6735TIP3    H141620   1.444   3.248  13.114  1.3173  0.6548 -1.1763
 6735TIP3    H241621   1.480   3.290  13.255 -0.0752 -0.1396 -0.5582
 6736TIP3   OH241622   6.344   1.955   2.504 -0.2073  0.2631  0.2362
 6736TIP3    H141623   6.274   1.984   2.446 -0.0969  0.4253  0.1833
 6736TIP3    H241624   6.305   1.951   2.591  0.3365  2.7069  0.6447
 6737TIP3   OH241625   2.308   0.647  14.985  0.0932 -0.4370  0.1302
 6737TIP3    H141626   2.328   0.728  15.033  1.5144 -0.2321 -0.7211
 6737TIP3    H241627   2.319   0.671  14.893 -1.1736 -1.1805 -0.2314
 6738TIP3   OH241628   3.952   1.527   5.136  0.2091 -0.0244  0.2869
 6738TIP3    H141629   3.887   1.561   5.197 -1.3159 -0.7905 -0.8441
 6738TIP3    H241630   4.009   1.601   5.117 -0.2564  0.6385  1.3924
 6739TIP3   OH241631   5.964   5.362  11.653  0.3839  0.5532  0.1040
 6739TIP3    H141632   5.894   5.369  11.718  1.3176  0.7438  1.1169
 6739TIP3    H241633   5.943   5.284  11.603 -0.0613  0.0820  1.0051
 6740TIP3   OH241634   5.874   3.142  17.171  0.5945  0.2019  0.3326
 6740TIP3    H141635   5.888   3.118  17.079 -1.1835  3.6476 -1.0195
 6740TIP3    H241636   5.781   3.126  17.186  0.6358  0.6856  1.1817
 6741TIP3   OH241637   6.139   0.656   2.741 -0.5160  0.5637 -0.0156
 6741TIP3    H141638   6.167   0.696   2.658 -2.1790 -1.0207 -1.4374
 6741TIP3    H241639   6.218   0.617   2.777  0.3134  1.5762 -0.6759
 6742TIP3   OH241640   3.375   5.272   0.262  0.0975 -0.4813 -0.1111
 6742TIP3    H141641   3.386   5.218   0.340  1.9509 -2.3351 -1.5618
 6742TIP3    H241642   3.356   5.210   0.192 -1.7178  1.1519 -1.1711
 6743TIP3   OH241643   0.945   1.740   3.773 -0.4262 -0.2081 -0.6467
 6743TIP3    H141644   0.912   1.821   3.811  0.8061  0.3261 -0.6772
 6743TIP3    H241645   1.025   1.721   3.822  0.8615  0.1630 -2.5173
 6744TIP3   OH241646   6.653   5.360  12.214 -0.7273  0.4406  0.3653
 6744TIP3    H141647   6.712   5.363  12.289  1.2993 -3.9675 -0.6558
 6744TIP3    H241648   6.703   5.399  12.143 -0.6944  0.3954  0.3630
 6745TIP3   OH241649   5.948   0.456  13.805 -0.5790 -0.0107 -0.4612
 6745TIP3    H141650   5.898   0.538  13.804  0.0474  0.4004  0.5157
 6745TIP3    H241651   5.907   0.403  13.737  0.3594  1.8912 -2.6400
 6746TIP3   OH241652   2.619   6.228   2.067  0.3923  0.1450 -0.0702
 6746TIP3    H141653   2.644   6.315   2.036  0.5989  0.1261  0.0371
 6746TIP3    H241654   2.697   6.197   2.113  0.9834 -0.8494 -1.6606
 6747TIP3   OH241655   5.019   6.206  13.363  0.3965  0.2153  0.3623
 6747TIP3    H141656   5.075   6.148  13.312  1.2516  1.0538  0.3050
 6747TIP3    H241657   4.998   6.278  13.303 -0.4334  0.1078  0.5098
 6748TIP3   OH241658   6.386   0.453   1.403  0.4795  0.0179 -0.6831
 6748TIP3    H141659   6.387   0.379   1.463  0.7811  0.3265 -0.3049
 6748TIP3    H241660   6.450   0.430   1.335  0.4394 -0.1451 -0.6658
 6749TIP3   OH241661   5.855   6.224   4.657 -0.1403 -0.2029 -0.2949
 6749TIP3    H141662   5.823   6.136   4.677  0.5271 -0.7502 -1.5305
 6749TIP3    H241663   5.775   6.278   4.650 -0.6011 -0.8856 -0.3484
 6750TIP3   OH241664   3.604   3.993   1.033 -0.1399 -0.0247 -0.0414
 6750TIP3    H141665   3.550   4.036   1.099 -0.4003 -0.2603 -0.1024
 6750TIP3    H241666   3.688   3.978   1.076 -1.1860 -2.8293  1.2334
 6751TIP3   OH241667   5.884   1.248  10.624 -0.1682 -0.7652  0.6561
 6751TIP3    H141668   5.846   1.191  10.557  1.1255  0.3457 -1.0984
 6751TIP3    H241669   5.811   1.300  10.656 -0.4333  0.4371 -1.7316
 6752TIP3   OH241670   5.394   6.428   0.830 -0.0840 -0.3105 -0.0013
 6752TIP3    H141671   5.430   6.463   0.749 -1.3984  0.3751 -0.3243
 6752TIP3    H241672   5.443   6.347   0.845  1.2026  0.3244 -0.6632
 6753TIP3   OH241673   2.354   6.007   1.012  0.4402 -0.3355  0.2050
 6753TIP3    H141674   2.380   5.929   1.062  0.4447 -1.4381 -1.4562
 6753TIP3    H241675   2.302   5.973   0.940  0.1211  1.2586 -0.3448
 6754TIP3   OH241676   6.371   2.512  16.271 -0.0127  0.0379 -0.3018
 6754TIP3    H141677   6.445   2.510  16.332  0.6793 -0.2869 -1.1357
 6754TIP3    H241678   6.302   2.463  16.316  0.0071  0.9670  0.8013
 6755TIP3   OH241679   6.563   6.476  16.146 -0.0042 -0.2773 -0.1813
 6755TIP3    H141680   6.516   6.555  16.118 -0.9719 -0.7155  0.1726
 6755TIP3    H241681   6.595   6.497  16.234  0.4154 -0.0046 -0.3942
 6756TIP3   OH241682   5.944   0.892   3.869  0.1509  0.0305 -0.3308
 6756TIP3    H141683   5.945   0.901   3.774  0.4021  1.6032 -0.2017
 6756TIP3    H241684   5.918   0.979   3.901 -0.1867 -0.5483  1.0303
 6757TIP3   OH241685   4.407   1.876  15.009 -0.2321 -0.0361  0.5318
 6757TIP3    H141686   4.335   1.923  15.052  0.5787  2.1120 -0.3122
 6757TIP3    H241687   4.368   1.842  14.929 -0.1188  2.1635 -0.5359
 6758TIP3   OH241688   0.500   0.491  14.038  0.3693  0.3272 -0.2247
 6758TIP3    H141689   0.490   0.441  14.119  0.3587 -0.8505 -0.9236
 6758TIP3    H241690   0.591   0.477  14.013 -0.3586 -1.8066 -1.9462
 6759TIP3   OH241691   5.538   1.740   0.059  0.9069 -0.3592  0.9137
 6759TIP3    H141692   5.626   1.772   0.040  0.6895 -0.4414 -0.2899
 6759TIP3    H241693   5.480   1.802   0.014  0.4246 -1.4232  0.0157
 6760TIP3   OH241694   4.552   6.363  11.874  0.3917 -0.2380  0.0910
 6760TIP3    H141695   4.463   6.377  11.906  0.3585 -0.8130  0.2607
 6760TIP3    H241696   4.593   6.450  11.879 -0.7894  0.5297 -2.0253
 6761TIP3   OH241697   5.729   0.796  16.169  0.1091 -0.1146 -0.2375
 6761TIP3    H141698   5.696   0.750  16.246 -1.3033  0.2993 -0.5652
 6761TIP3    H241699   5.761   0.726  16.112  1.2295 -0.4195  0.7239
 6762TIP3   OH241700   2.192   3.388  12.668 -0.0270 -0.2190  0.0087
 6762TIP3    H141701   2.126   3.329  12.705  0.0320  1.5082  3.2615
 6762TIP3    H241702   2.272   3.369  12.718  0.0257  2.3723  1.0490
 6763TIP3   OH241703   2.300   1.008   1.338 -0.4867 -0.0860 -0.6823
 6763TIP3    H141704   2.390   0.997   1.306 -0.0101 -0.9170  0.8233
 6763TIP3    H241705   2.297   0.956   1.419 -1.2088  2.8269  1.3233
 6764TIP3   OH241706   2.805   3.169  15.498 -0.6038 -0.2731 -0.1277
 6764TIP3    H141707   2.715   3.176  15.532 -0.3794  1.0499  0.2525
 6764TIP3    H241708   2.814   3.243  15.438  0.9276  0.9860  1.5529
 6765TIP3   OH241709   3.012   3.891   3.761  0.2664  0.0825  0.3866
 6765TIP3    H141710   2.995   3.809   3.806  1.1478 -0.7420 -0.7105
 6765TIP3    H241711   2.925   3.924   3.737 -0.1023 -0.4532  0.9758
 6766TIP3   OH241712   5.122   5.290   4.793  0.1449  0.9553 -0.2768
 6766TIP3    H141713   5.069   5.344   4.852 -1.6192 -1.3774  0.4207
 6766TIP3    H241714   5.058   5.239   4.743  1.6371 -2.2793  0.8255
 6767TIP3   OH241715   4.069   4.965   3.285  0.4053  0.5968  0.7572
 6767TIP3    H141716   4.098   4.997   3.199 -0.2155  1.2009  0.7661
 6767TIP3    H241717   4.144   4.916   3.318  1.3760  1.9651  0.6938
 6768TIP3   OH241718   6.455   6.066   4.261  0.3251  0.3831 -0.6290
 6768TIP3    H141719   6.423   6.154   4.277 -0.4706 -0.1641  0.9933
 6768TIP3    H241720   6.407   6.011   4.323  1.7918 -0.9975 -0.6535
 6769TIP3   OH241721   4.515   0.623  11.005  0.1046 -0.2785  0.2290
 6769TIP3    H141722   4.517   0.624  11.100  0.5338  0.3051  0.2235
 6769TIP3    H241723   4.450   0.557  10.982 -0.9434  0.4757  0.9395
 6770TIP3   OH241724   3.974   1.267  11.115  1.0153  0.2576 -0.0139
 6770TIP3    H141725   3.887   1.228  11.119  1.4301 -0.6000  1.2925
 6770TIP3    H241726   3.964   1.341  11.055 -0.4998 -0.0731 -0.2187
 6771TIP3   OH241727   5.608   6.175  16.861  0.6591 -0.5773 -0.1451
 6771TIP3    H141728   5.631   6.166  16.769 -3.9819  0.0058 -1.6394
 6771TIP3    H241729   5.597   6.085  16.891  1.0900 -0.7543 -0.5047
 6772TIP3   OH241730   2.846   5.032  15.410  0.1598 -0.1967 -0.4904
 6772TIP3    H141731   2.895   5.044  15.329 -0.0078  2.0333 -0.3002
 6772TIP3    H241732   2.885   5.093  15.472 -1.2950 -0.1097  0.3973
 6773TIP3   OH241733   2.615   4.391   1.778  0.3696  0.4600  0.0923
 6773TIP3    H141734   2.579   4.315   1.734 -1.2659  1.9758 -1.3454
 6773TIP3    H241735   2.651   4.357   1.860 -0.5492 -1.7853 -0.3743
 6774TIP3   OH241736   2.576   6.031   5.784  0.1117  0.5561 -0.6008
 6774TIP3    H141737   2.667   6.028   5.755 -0.1221  0.7544 -1.3860
 6774TIP3    H241738   2.529   6.071   5.711 -0.7090 -0.1494 -0.4806
 6775TIP3   OH241739   0.667   5.531  16.330  0.1940 -0.2773 -0.2941
 6775TIP3    H141740   0.675   5.438  16.350 -1.6155 -1.1691 -3.0604
 6775TIP3    H241741   0.574   5.544  16.311  0.8043  1.3784 -2.7427
 6776TIP3   OH241742   6.224   5.932  10.897  0.1153  0.0873 -0.0922
 6776TIP3    H141743   6.151   5.962  10.950  0.0626  2.0477 -1.1494
 6776TIP3    H241744   6.199   5.845  10.867 -1.5080  0.4614  0.1032
 6777TIP3   OH241745   3.313   1.713  10.920 -0.4314 -0.2271 -0.1557
 6777TIP3    H141746   3.315   1.618  10.919 -0.7664 -0.2906  1.5921
 6777TIP3    H241747   3.227   1.736  10.886 -0.2887 -0.5181 -0.7392
 6778TIP3   OH241748   0.841   3.528  15.781 -0.6115 -0.0289 -0.1631
 6778TIP3    H141749   0.853   3.613  15.824  0.2041 -0.9355  1.4660
 6778TIP3    H241750   0.806   3.471  15.849  0.1783 -1.3631 -0.8404
 6779TIP3   OH241751   3.381   3.990   1.557 -0.4444 -0.1658 -0.4900
 6779TIP3    H141752   3.297   3.948   1.538 -0.7660  0.0174  0.4670
 6779TIP3    H241753   3.441   3.917   1.572 -0.6590 -0.2926 -0.2385
 6780TIP3   OH241754   3.173   4.564   0.398 -0.4125  0.0276 -0.2070
 6780TIP3    H141755   3.119   4.560   0.318 -0.9220  1.1632  0.0570
 6780TIP3    H241756   3.130   4.631   0.451 -0.8107 -1.5753  1.5729
 6781TIP3   OH241757   0.408   4.936   2.751 -0.0612  0.1872  0.1192
 6781TIP3    H141758   0.349   4.917   2.823 -0.2795  0.5160  0.0293
 6781TIP3    H241759   0.452   4.853   2.733  1.1667  0.4704  1.6661
 6782TIP3   OH241760   3.817   1.914  14.525 -0.1366 -0.2235 -1.0435
 6782TIP3    H141761   3.797   1.828  14.486  0.3880 -0.1958 -1.3824
 6782TIP3    H241762   3.778   1.910  14.612 -0.1319 -0.8044 -1.0625
 6783TIP3   OH241763   6.644   6.061   0.172 -0.0349 -0.1658 -0.4273
 6783TIP3    H141764   6.663   6.026   0.085  0.1968  0.7544 -0.7654
 6783TIP3    H241765   6.655   5.987   0.231  3.3775 -0.0755 -0.7261
 6784TIP3   OH241766   4.508   1.538  13.122 -0.2231 -0.0239 -0.2149
 6784TIP3    H141767   4.511   1.547  13.217 -1.6257 -0.0560 -0.1488
 6784TIP3    H241768   4.441   1.472  13.106  0.8122 -0.8786 -1.1992
 6785TIP3   OH241769   0.102   0.231  14.442 -0.0206 -0.5940 -0.1041
 6785TIP3    H141770   0.165   0.161  14.455  1.0375 -0.0129 -1.7955
 6785TIP3    H241771   0.119   0.293  14.513  2.0316  0.0241 -1.0673
 6786TIP3   OH241772   1.817   3.269  14.353  0.7322  0.2348 -0.0894
 6786TIP3    H141773   1.806   3.361  14.375  0.1291 -0.0023  0.6227
 6786TIP3    H241774   1.912   3.255  14.355  0.7296  0.3126  2.0355
 6787TIP3   OH241775   5.401   0.410   5.142 -0.4178  0.5781 -0.4079
 6787TIP3    H141776   5.431   0.340   5.083  0.7654  0.2630  0.5286
 6787TIP3    H241777   5.309   0.421   5.121 -0.1733  0.0583 -1.9050
 6788TIP3   OH241778   4.472   0.853   5.274  0.2977  0.3054  0.3675
 6788TIP3    H141779   4.409   0.920   5.298  0.2289  0.4302 -0.1396
 6788TIP3    H241780   4.429   0.804   5.203 -0.5700 -1.6705  2.1493
 6789TIP3   OH241781   2.205   3.408   6.010 -0.3727 -0.1748 -0.2674
 6789TIP3    H141782   2.116   3.421   6.043 -0.0291 -0.1116  0.6906
 6789TIP3    H241783   2.204   3.443   5.921 -0.1862  4.0115  1.1734
 6790TIP3   OH241784   0.849   4.801  15.052  0.4561 -0.0220 -0.6892
 6790TIP3    H141785   0.861   4.741  15.125 -1.5110  0.2851 -0.0511
 6790TIP3    H241786   0.770   4.770  15.008 -1.8625  3.1118  0.8521
 6791TIP3   OH241787   3.477   5.804  15.395  0.2774 -0.5377 -0.2336
 6791TIP3    H141788   3.478   5.848  15.480 -1.5807  1.7825 -1.3062
 6791TIP3    H241789   3.562   5.759  15.391  1.0851  0.5846  2.1717
 6792TIP3   OH241790   5.268   5.329   5.045 -1.0847  0.0703  0.5323
 6792TIP3    H141791   5.313   5.410   5.021  0.2778 -0.7549  0.2228
 6792TIP3    H241792   5.195   5.323   4.983  0.3176 -0.2333 -1.1447
 6793TIP3   OH241793   4.095   5.767   1.108 -0.5837  0.4929 -0.1976
 6793TIP3    H141794   4.032   5.737   1.173  1.2293  0.3760  1.6239
 6793TIP3    H241795   4.177   5.722   1.131  0.1184  0.3598 -2.6673
 6794TIP3   OH241796   5.686   5.703  14.633 -0.0157  0.0747 -0.1343
 6794TIP3    H141797   5.675   5.789  14.675 -1.6325  1.1489 -2.5001
 6794TIP3    H241798   5.632   5.709  14.555  1.9251 -2.2050 -1.7630
 6795TIP3   OH241799   3.793   6.644   1.451  0.3898 -0.6832 -0.4074
 6795TIP3    H141800   3.866   6.604   1.404  0.6764  0.7412 -1.2154
 6795TIP3    H241801   3.822   6.645   1.542  1.5274  0.1616 -0.7621
 6796TIP3   OH241802   3.321   5.231  15.867 -0.2437  0.4816  0.1150
 6796TIP3    H141803   3.360   5.145  15.853 -2.4210 -0.6410  0.4995
 6796TIP3    H241804   3.269   5.247  15.788  1.2546  2.1413 -0.5947
 6797TIP3   OH241805   1.245   4.999   4.269  0.1432 -0.5426 -0.0572
 6797TIP3    H141806   1.230   4.998   4.174 -0.9595 -1.7442  0.1056
 6797TIP3    H241807   1.193   5.074   4.300  0.7897  0.0726 -0.4283
 6798TIP3   OH241808   5.884   3.418  11.523  0.4029 -0.4616 -0.2802
 6798TIP3    H141809   5.920   3.371  11.599 -0.1410 -2.1239 -0.9948
 6798TIP3    H241810   5.947   3.403  11.453  0.6516  0.6386 -0.3058
 6799TIP3   OH241811   1.409   2.571  16.637  0.2101 -0.4728  0.7090
 6799TIP3    H141812   1.459   2.645  16.604  0.0077  0.3106  2.1038
 6799TIP3    H241813   1.439   2.497  16.584  1.6141  0.2884  0.3849
 6800TIP3   OH241814   0.540   6.579  15.923  0.0230  0.1214 -0.1271
 6800TIP3    H141815   0.566   6.646  15.859 -1.1403 -0.0138 -0.7819
 6800TIP3    H241816   0.510   6.629  15.999  0.1389  0.3213 -0.2105
 6801TIP3   OH241817   6.577   0.582  15.507  0.2578  0.5360  0.2336
 6801TIP3    H141818   6.665   0.605  15.537 -0.7346  0.5856  3.5784
 6801TIP3    H241819   6.522   0.653  15.539 -1.5380 -1.5649  2.1873
 6802TIP3   OH241820   2.431   2.066  16.614  0.1665  0.4511  0.5643
 6802TIP3    H141821   2.347   2.071  16.569  0.8705  0.4124 -0.8121
 6802TIP3    H241822   2.445   1.972  16.629 -0.3276  0.5006  1.4100
 6803TIP3   OH241823   6.037   4.746  14.875 -0.7077  0.0454  0.1862
 6803TIP3    H141824   6.066   4.792  14.797 -0.7034  1.4342  0.9629
 6803TIP3    H241825   5.964   4.692  14.846  0.2030 -0.5706 -1.0400
 6804TIP3   OH241826   1.934   5.937  11.184  0.1821 -0.1883 -0.0426
 6804TIP3    H141827   1.998   5.984  11.131  0.7134 -0.2448  0.5308
 6804TIP3    H241828   1.909   5.862  11.130  0.3201  0.0339 -0.4212
 6805TIP3   OH241829   3.071   2.649  14.787 -0.1216 -0.1382  0.1440
 6805TIP3    H141830   3.108   2.721  14.838 -0.6557 -0.9061  1.6921
 6805TIP3    H241831   3.127   2.642  14.709  2.4019 -0.6052  1.8829
 6806TIP3   OH241832   1.108   3.482  10.571 -0.0874 -0.2205 -0.0550
 6806TIP3    H141833   1.058   3.464  10.651  0.5156 -0.8088  0.1941
 6806TIP3    H241834   1.115   3.578  10.568 -1.3324 -0.1124 -0.1640
 6807TIP3   OH241835   5.732   5.027   1.093  0.3325  0.1213 -0.3794
 6807TIP3    H141836   5.736   4.958   1.026 -0.0036  1.0853 -1.4089
 6807TIP3    H241837   5.643   5.023   1.126  0.8977 -1.3394  1.1116
 6808TIP3   OH241838   1.161   1.724   3.964 -0.2332  1.0418  0.0983
 6808TIP3    H141839   1.137   1.786   4.032 -1.4704 -0.2506  0.8969
 6808TIP3    H241840   1.247   1.754   3.933 -1.0667  3.4983 -0.0300
 6809TIP3   OH241841   1.806   4.920   5.680  0.3279 -0.1807 -0.0947
 6809TIP3    H141842   1.712   4.918   5.663  0.3996  1.3148 -0.8336
 6809TIP3    H241843   1.814   4.970   5.762  0.4762 -0.4303  0.0439
 6810TIP3   OH241844   2.301   0.847  11.610  0.2780  0.2689 -0.7756
 6810TIP3    H141845   2.256   0.905  11.672  1.1096  0.2427 -0.1304
 6810TIP3    H241846   2.389   0.883  11.603 -0.3590  1.5256 -3.5939
 6811TIP3   OH241847   4.020   3.961   4.414 -0.1695 -0.1253  0.5547
 6811TIP3    H141848   3.935   4.005   4.413 -1.2751 -1.9994 -2.4897
 6811TIP3    H241849   4.001   3.872   4.384  2.9048 -0.5795 -0.3819
 6812TIP3   OH241850   5.110   5.766  12.913 -0.2593  0.0170  0.2254
 6812TIP3    H141851   5.154   5.687  12.944 -0.7207 -0.5026 -0.4182
 6812TIP3    H241852   5.025   5.736  12.880 -0.0821  0.6327 -0.8634
 6813TIP3   OH241853   4.595   1.996   4.342 -0.0139 -0.1048 -0.0362
 6813TIP3    H141854   4.548   2.022   4.262 -0.0246 -0.4439 -0.1394
 6813TIP3    H241855   4.669   1.945   4.311  0.8130  0.9967  0.0829
 6814TIP3   OH241856   1.008   0.503   6.007 -0.2077 -0.5673 -0.2997
 6814TIP3    H141857   0.995   0.458   5.924 -0.8494 -0.6468 -0.1642
 6814TIP3    H241858   0.920   0.532   6.032  0.1864  0.8747 -0.4482
 6815TIP3   OH241859   1.401   4.326   0.604 -0.4884 -0.1554 -0.8825
 6815TIP3    H141860   1.475   4.344   0.545 -0.4150 -2.9454 -1.7751
 6815TIP3    H241861   1.355   4.253   0.563 -0.4621 -2.2762  2.4575
 6816TIP3   OH241862   6.111   0.325   4.213 -0.7113 -0.1832 -0.8085
 6816TIP3    H141863   6.087   0.341   4.304  0.2158 -0.3227 -0.5253
 6816TIP3    H241864   6.193   0.373   4.202 -2.0155  1.8768 -2.2833
 6817TIP3   OH241865   5.910   0.080   6.418 -0.0104 -0.2461  0.3993
 6817TIP3    H141866   6.003   0.103   6.425  0.3460 -1.1279 -1.0000
 6817TIP3    H241867   5.866   0.163   6.401  0.3350  0.3775  2.3141
 6818TIP3   OH241868   0.552   4.655  15.388 -0.1235 -0.1292 -0.2694
 6818TIP3    H141869   0.634   4.688  15.425 -0.5627 -0.3317  0.9118
 6818TIP3    H241870   0.553   4.561  15.406 -0.9883 -0.0011  0.4877
 6819TIP3   OH241871   6.646   2.771  13.609 -0.6864  0.2144 -0.1428
 6819TIP3    H141872   6.672   2.688  13.568  1.3757  0.7736 -0.0817
 6819TIP3    H241873   6.561   2.753  13.649 -1.5222 -1.1225 -2.3522
 6820TIP3   OH241874   4.243   0.898  15.273 -0.6536  0.1446 -0.0931
 6820TIP3    H141875   4.237   0.994  15.273 -2.4138  0.0614  0.3297
 6820TIP3    H241876   4.322   0.880  15.222  1.9894  1.8953  3.0238
 6821TIP3   OH241877   1.980   4.845   0.388 -0.3862 -0.7326  0.1515
 6821TIP3    H141878   1.911   4.785   0.362  0.1661 -0.5364 -1.9191
 6821TIP3    H241879   1.947   4.887   0.468 -0.9237 -3.4442  1.4586
 6822TIP3   OH241880   6.590   6.559  14.669 -0.2303 -0.0058 -0.3289
 6822TIP3    H141881   6.499   6.564  14.697  0.2964  1.2776  1.3650
 6822TIP3    H241882   6.609   6.466  14.665 -1.0552 -0.2959  1.3889
 6823TIP3   OH241883   6.749   6.619   0.780 -0.1719  0.1819  0.0584
 6823TIP3    H141884   6.814   6.580   0.720  1.8507  0.5613  1.8858
 6823TIP3    H241885   6.670   6.566   0.767  0.6287 -0.6534 -1.8593
 6824TIP3   OH241886   3.076   3.219   5.692 -0.1934  0.8937 -0.0515
 6824TIP3    H141887   3.127   3.183   5.618 -0.6801 -0.1604  0.1081
 6824TIP3    H241888   3.136   3.281   5.734  1.0656 -0.4648  0.2554
 6825TIP3   OH241889   0.909   3.122  11.246 -0.0510  0.5745 -0.7703
 6825TIP3    H141890   0.910   3.217  11.235 -1.5089  0.8600  1.0153
 6825TIP3    H241891   0.816   3.098  11.243  0.1478 -0.5214  0.5185
 6826TIP3   OH241892   4.339   4.434  11.557 -0.2644 -0.1231  0.2446
 6826TIP3    H141893   4.423   4.398  11.586 -0.4815 -1.1851 -0.3694
 6826TIP3    H241894   4.357   4.527  11.541  0.9601 -0.4591 -0.4584
 6827TIP3   OH241895   4.390   1.909   4.494  0.3514 -0.2612 -0.2154
 6827TIP3    H141896   4.375   1.855   4.572 -0.7300  1.3727  0.7748
 6827TIP3    H241897   4.478   1.885   4.465  0.8690 -0.7784  1.6264
 6828TIP3   OH241898   1.512   0.936   3.594  0.1429 -0.3897  0.2066
 6828TIP3    H141899   1.587   0.992   3.574  0.8757 -1.6016 -0.5897
 6828TIP3    H241900   1.468   0.924   3.511 -0.7160 -0.0307  0.5973
 6829TIP3   OH241901   2.905   3.712   5.029  0.3001  0.3473  0.1446
 6829TIP3    H141902   2.857   3.795   5.027 -1.3527 -0.5825 -0.5773
 6829TIP3    H241903   2.964   3.717   4.953  0.2227  0.8666  0.1146
 6830TIP3   OH241904   3.724   3.135  15.176 -0.5946  0.1986  0.0524
 6830TIP3    H141905   3.811   3.149  15.139 -0.2335  1.4252  1.2903
 6830TIP3    H241906   3.681   3.220  15.170 -1.9254 -0.5056 -0.9997
 6831TIP3   OH241907   2.505   4.479  14.423  0.2385  0.8441  0.2031
 6831TIP3    H141908   2.531   4.388  14.420 -0.2167  0.6675  1.1530
 6831TIP3    H241909   2.425   4.480  14.477  0.0770  1.7590 -0.0244
 6832TIP3   OH241910   4.073   2.558  16.014  0.2617  0.0779 -0.1013
 6832TIP3    H141911   4.066   2.581  16.107  0.3593 -0.9658  0.1798
 6832TIP3    H241912   4.166   2.538  16.001  0.7339  2.5381 -1.0194
 6833TIP3   OH241913   1.252   6.671  14.705 -0.0030  0.0613 -0.0048
 6833TIP3    H141914   1.246   6.677  14.800  0.5566  0.9444 -0.0087
 6833TIP3    H241915   1.342   6.642  14.688 -0.1380 -0.2136 -0.2578
 6834TIP3   OH241916   3.050   4.768  14.679  0.6149 -0.3982 -0.0733
 6834TIP3    H141917   2.997   4.692  14.656  0.9537 -0.7668  0.3655
 6834TIP3    H241918   3.029   4.787  14.770  0.7563 -0.1481 -0.0898
 6835TIP3   OH241919   5.579   1.632  13.512 -0.3829  0.2133 -0.3654
 6835TIP3    H141920   5.506   1.582  13.548 -0.0788  0.1267  0.1398
 6835TIP3    H241921   5.576   1.716  13.557  0.9702 -0.4699  1.1016
 6836TIP3   OH241922   3.688   4.123  16.601  0.0976  0.4830 -0.0761
 6836TIP3    H141923   3.660   4.060  16.534  0.5917  0.4972 -0.2986
 6836TIP3    H241924   3.690   4.207  16.554 -1.8392  0.9180  0.5291
 6837TIP3   OH241925   3.436   1.657   5.234  0.2902  0.3350 -0.3239
 6837TIP3    H141926   3.392   1.739   5.211 -0.2488 -0.2355 -1.4294
 6837TIP3    H241927   3.437   1.656   5.329  1.0024  1.9877 -0.2789
 6838TIP3   OH241928   3.628   4.517  12.277  0.3417  0.1518  0.1797
 6838TIP3    H141929   3.655   4.505  12.186  0.2740  0.8258  0.0661
 6838TIP3    H241930   3.638   4.611  12.293 -1.1241  0.2993  0.3766
 6839TIP3   OH241931   5.866   2.487  16.414 -0.0827  0.7988  0.7063
 6839TIP3    H141932   5.904   2.543  16.482 -0.1001  0.2883  1.1429
 6839TIP3    H241933   5.877   2.398  16.447  1.1176  0.4423 -0.5728
 6840TIP3   OH241934   2.917   4.309   4.135  0.0940 -0.0711 -0.5403
 6840TIP3    H141935   2.932   4.394   4.094 -2.6466  0.1384 -1.3040
 6840TIP3    H241936   3.003   4.267   4.136  1.4166  2.4330 -0.6944
 6841TIP3   OH241937   6.139   2.141  10.871 -0.6524  0.0588  0.5155
 6841TIP3    H141938   6.138   2.175  10.781 -0.5293 -2.5607 -0.5711
 6841TIP3    H241939   6.230   2.147  10.898 -0.5951  0.3564  0.2636
 6842TIP3   OH241940   4.861   4.092  13.658 -0.3500  0.0605 -0.1172
 6842TIP3    H141941   4.921   4.133  13.720 -1.2875  0.6856  0.4132
 6842TIP3    H241942   4.915   4.069  13.582  1.1523 -2.1784  1.5323
 6843TIP3   OH241943   6.008   0.142  15.448 -0.6187 -0.3104 -0.6051
 6843TIP3    H141944   6.064   0.073  15.411  0.2049  1.1146 -2.1386
 6843TIP3    H241945   5.996   0.116  15.539  1.8276 -1.1368 -0.4383
 6844TIP3   OH241946   3.954   3.528   3.330  0.2028  0.6335 -0.0150
 6844TIP3    H141947   3.910   3.467   3.270 -1.3041  2.3216 -0.6916
 6844TIP3    H241948   3.955   3.611   3.283  1.2382  1.4058  1.3274
 6845TIP3   OH241949   3.025   1.949  13.664 -0.0881 -0.3261  0.1617
 6845TIP3    H141950   3.082   1.894  13.611 -0.9837  0.1199 -1.3030
 6845TIP3    H241951   2.936   1.917  13.645 -0.6486  1.6837 -0.8504
 6846TIP3   OH241952   6.299   5.698   4.288 -0.5632  0.0626 -0.6824
 6846TIP3    H141953   6.364   5.662   4.348  0.3698  0.8092 -1.2050
 6846TIP3    H241954   6.240   5.749   4.344  1.5240  2.5406 -0.5183
 6847TIP3   OH241955   0.772   6.717  11.613  0.0632  0.0238  0.2611
 6847TIP3    H141956   0.795   6.631  11.576 -0.9878  0.3994 -1.4288
 6847TIP3    H241957   0.678   6.724  11.597 -0.3378  0.5221  2.5507
 6848TIP3   OH241958   2.263   1.927  15.084  0.5276  0.0126  0.1167
 6848TIP3    H141959   2.316   1.847  15.085 -1.0485 -1.0858  0.4069
 6848TIP3    H241960   2.317   1.991  15.039  1.2780 -1.6230 -1.4374
 6849TIP3   OH241961   3.811   4.165  14.190  0.4216  0.0312  0.0237
 6849TIP3    H141962   3.816   4.082  14.236 -0.4846  0.1003  0.2659
 6849TIP3    H241963   3.729   4.205  14.220 -1.0037 -0.5852 -2.7149
 6850TIP3   OH241964   2.533   0.399  13.705 -0.0153 -0.4712  0.0888
 6850TIP3    H141965   2.438   0.411  13.706  0.0847  0.4989 -0.2404
 6850TIP3    H241966   2.554   0.360  13.789 -0.5341  0.8692  0.8710
 6851TIP3   OH241967   4.807   2.102   0.595 -0.0494  0.7268 -0.4296
 6851TIP3    H141968   4.721   2.143   0.588  0.4654  1.8635 -0.4355
 6851TIP3    H241969   4.838   2.096   0.505 -0.5035 -0.5644 -0.5124
 6852TIP3   OH241970   6.311   2.992  13.253  0.8766 -0.0097 -0.8442
 6852TIP3    H141971   6.377   3.057  13.229  1.4366 -0.2324  0.0536
 6852TIP3    H241972   6.361   2.919  13.290  0.0929  0.1863  0.6870
 6853TIP3   OH241973   0.243   6.684   5.442  0.4903 -0.5712 -0.4553
 6853TIP3    H141974   0.242   6.625   5.367  0.8018  0.4061 -1.2519
 6853TIP3    H241975   0.152   6.686   5.472  0.6146 -2.0287  0.0608
 6854TIP3   OH241976   5.024   2.805  13.184  0.1950 -0.2661 -0.2224
 6854TIP3    H141977   5.025   2.715  13.215 -0.0472 -0.2495 -0.1630
 6854TIP3    H241978   4.978   2.801  13.100 -0.6211 -0.0686  0.2033
 6855TIP3   OH241979   1.743   0.220  13.569 -0.3049  0.1404  0.1725
 6855TIP3    H141980   1.802   0.288  13.536 -0.9617 -0.0150 -1.4067
 6855TIP3    H241981   1.672   0.269  13.610 -0.0482  0.3636  0.3594
 6856TIP3   OH241982   3.439   5.201  15.102 -0.0815  0.4433  0.0706
 6856TIP3    H141983   3.427   5.113  15.066 -0.8734 -0.6398  2.7218
 6856TIP3    H241984   3.352   5.226  15.134  0.4738  1.4593  0.8495
 6857TIP3   OH241985   5.021   4.836  15.371  0.8083 -0.4380  0.4281
 6857TIP3    H141986   4.934   4.864  15.400  0.8360 -0.2583  0.3357
 6857TIP3    H241987   5.029   4.747  15.405  1.4803  0.3170  2.4000
 6858TIP3   OH241988   5.767   0.319   0.558  0.0635  0.0876  0.6195
 6858TIP3    H141989   5.834   0.250   0.553  0.9916  0.9507  0.6799
 6858TIP3    H241990   5.754   0.332   0.652 -1.2994 -1.0796  0.6326
 6859TIP3   OH241991   5.672   5.756   3.441 -0.1470 -0.0711 -0.0519
 6859TIP3    H141992   5.682   5.841   3.399 -3.8266 -0.1803 -1.5305
 6859TIP3    H241993   5.628   5.701   3.376  0.5794 -2.6331  1.4515
 6860TIP3   OH241994   2.173   3.746  15.434 -0.7206 -0.3705 -0.0074
 6860TIP3    H141995   2.214   3.685  15.494 -2.2603 -1.7106 -0.2580
 6860TIP3    H241996   2.222   3.737  15.352 -1.4313 -1.8987 -0.2883
 6861TIP3   OH241997   0.651   6.426   1.356 -0.1805  0.2981 -0.5350
 6861TIP3    H141998   0.713   6.490   1.321 -0.7042  0.9854 -0.2111
 6861TIP3    H241999   0.589   6.477   1.408 -1.9924 -0.1539 -2.1262
 6862TIP3   OH242000   0.819   5.224   3.325 -0.1616 -0.0782  0.2302
 6862TIP3    H142001   0.829   5.316   3.348 -0.3973 -0.0090  0.0563
 6862TIP3    H242002   0.811   5.179   3.410  1.6105 -0.1501  0.3997
 6863TIP3   OH242003   6.693   5.046   2.398 -0.5355 -0.0405 -0.0416
 6863TIP3    H142004   6.721   5.113   2.336  0.1750  0.1602  0.4816
 6863TIP3    H242005   6.728   4.964   2.363  0.9681  0.2368  0.7275
 6864TIP3   OH242006   6.444   4.754  13.164  0.4600  0.5414  0.8267
 6864TIP3    H142007   6.489   4.708  13.235  0.5490  0.0745  0.4752
 6864TIP3    H242008   6.497   4.736  13.086 -0.3956 -0.1108  0.3841
 6865TIP3   OH242009   6.533   2.557   3.239 -0.6636  0.0675  0.2861
 6865TIP3    H142010   6.503   2.647   3.252 -0.5256  0.1106  0.3045
 6865TIP3    H242011   6.459   2.513   3.195  0.1637  0.8337 -1.9959
 6866TIP3   OH242012   1.176   0.305   1.208 -0.0273  0.0199  0.4702
 6866TIP3    H142013   1.251   0.253   1.177  0.0301  0.4604 -0.1296
 6866TIP3    H242014   1.130   0.245   1.267 -0.0345 -0.7705 -0.3076
 6867TIP3   OH242015   1.843   4.078  12.868  0.0450 -0.1144 -0.1096
 6867TIP3    H142016   1.917   4.087  12.808 -0.5765 -0.2128 -0.9296
 6867TIP3    H242017   1.808   4.167  12.877  0.5438  0.0079  0.6582
 6868TIP3   OH242018   2.262   2.964  15.495  0.0246 -0.5778  0.3280
 6868TIP3    H142019   2.223   3.047  15.469 -0.0918  0.4313  3.3677
 6868TIP3    H242020   2.338   2.989  15.547  0.8266 -2.4377  0.1262
 6869TIP3   OH242021   5.506   3.812   0.481  0.1771  0.1059 -0.1084
 6869TIP3    H142022   5.465   3.834   0.565 -1.4746 -2.7731 -0.0125
 6869TIP3    H242023   5.540   3.724   0.494 -0.0821 -0.3897 -2.4326
 6870TIP3   OH242024   2.679   4.928  11.258 -0.1196  0.5628 -0.2841
 6870TIP3    H142025   2.774   4.943  11.259  0.0056 -0.1846 -0.3794
 6870TIP3    H242026   2.665   4.872  11.182 -0.5206 -0.0837  0.2608
 6871TIP3   OH242027   6.629   6.437  13.883 -0.2160  0.3887  0.2667
 6871TIP3    H142028   6.579   6.365  13.845 -2.5347  2.3531 -0.6688
 6871TIP3    H242029   6.590   6.450  13.969  0.8338 -0.0311  0.8262
 6872TIP3   OH242030   4.733   1.023  15.699 -0.1027 -0.1622  0.3978
 6872TIP3    H142031   4.750   1.024  15.604  0.2557 -1.0055  0.4412
 6872TIP3    H242032   4.742   0.931  15.723  1.0853  0.2280  1.4886
 6873TIP3   OH242033   0.994   1.137   4.471 -0.4082  0.3858 -0.1850
 6873TIP3    H142034   0.927   1.105   4.411 -1.2120 -0.2570  1.0252
 6873TIP3    H242035   1.038   1.207   4.422 -0.4007 -0.7384 -1.8720
 6874TIP3   OH242036   5.402   0.205  16.355 -0.2392 -0.0653 -0.4658
 6874TIP3    H142037   5.310   0.189  16.376  0.0506 -0.3165  0.6352
 6874TIP3    H242038   5.439   0.247  16.433  0.3716  0.8915 -1.2319
 6875TIP3   OH242039   3.100   3.526  15.080  0.0313  0.0586 -0.0242
 6875TIP3    H142040   3.066   3.610  15.049 -0.0026 -0.5908 -1.8714
 6875TIP3    H242041   3.182   3.549  15.125  0.8538  0.9775 -1.8867
 6876TIP3   OH242042   3.519   5.228  12.662 -0.0231  0.2714  0.0345
 6876TIP3    H142043   3.505   5.256  12.571 -1.7784 -2.6113 -0.6896
 6876TIP3    H242044   3.550   5.138  12.655 -0.3649 -0.0845  2.3137
 6877TIP3   OH242045   0.737   4.005  14.372 -0.2958  0.4132  0.2385
 6877TIP3    H142046   0.743   3.958  14.455  0.1249 -1.4641 -0.7856
 6877TIP3    H242047   0.827   4.027  14.349  0.0212 -2.0649 -1.2610
 6878TIP3   OH242048   4.102   4.766  12.656 -0.0621 -0.1473 -0.0773
 6878TIP3    H142049   4.090   4.762  12.751  1.8049  0.1974  0.2207
 6878TIP3    H242050   4.196   4.750  12.643 -0.5669 -1.9641 -2.0170
 6879TIP3   OH242051   5.538   4.412  13.177  0.1353  0.1775  0.4347
 6879TIP3    H142052   5.550   4.369  13.092  0.5105  2.3166 -0.6668
 6879TIP3    H242053   5.571   4.349  13.241  2.1993 -0.5213 -1.2069
 6880TIP3   OH242054   6.612   4.656  10.441 -0.3147  0.1914  0.3255
 6880TIP3    H142055   6.527   4.614  10.452  0.3775 -0.8862  1.9283
 6880TIP3    H242056   6.592   4.746  10.416 -1.9473  0.1740  1.4559
 6881TIP3   OH242057   0.319   5.837  13.023  0.1937 -0.1893 -0.2326
 6881TIP3    H142058   0.309   5.922  12.979 -1.1632 -0.5267 -0.6074
 6881TIP3    H242059   0.333   5.775  12.951  2.4771 -0.1475  0.1032
 6882TIP3   OH242060   4.948   2.304  15.579 -0.5399 -0.1721 -0.5401
 6882TIP3    H142061   4.977   2.214  15.592 -0.1600  0.1720  1.1198
 6882TIP3    H242062   4.854   2.303  15.601 -0.5089 -0.1346 -0.4072
 6883TIP3   OH242063   5.985   0.637  16.450  0.3180 -0.2174 -0.2751
 6883TIP3    H142064   5.983   0.659  16.357 -0.1515  0.5018 -0.1083
 6883TIP3    H242065   6.077   0.644  16.475  0.3962 -0.0648 -0.6084
 6884TIP3   OH242066   4.338   3.566   2.760  0.2968 -0.1673  0.6473
 6884TIP3    H142067   4.403   3.624   2.720  0.0582 -1.5006 -1.9033
 6884TIP3    H242068   4.272   3.626   2.795 -0.0520  1.1975 -2.0553
 6885TIP3   OH242069   1.265   3.492  11.679  0.2224 -0.2844 -0.3030
 6885TIP3    H142070   1.230   3.434  11.610 -1.5778  0.7978 -0.3730
 6885TIP3    H242071   1.263   3.438  11.758  1.7347 -1.3492 -0.9548
 6886TIP3   OH242072   4.057   1.387  16.489  0.2730 -0.1492  0.2559
 6886TIP3    H142073   4.003   1.370  16.566  2.0801 -0.2940  1.5685
 6886TIP3    H242074   4.121   1.316  16.488  1.3452  0.7760 -0.3778
 6887TIP3   OH242075   1.011   1.254   0.554  0.2336 -0.7259  0.9398
 6887TIP3    H142076   0.929   1.248   0.503 -0.2890  0.7803  1.5505
 6887TIP3    H242077   0.991   1.315   0.625  2.0415  0.0891  0.8052
 6888TIP3   OH242078   2.602   1.372   1.652 -0.0776 -0.7592  0.9082
 6888TIP3    H142079   2.535   1.305   1.665 -0.8664  0.3105  2.7353
 6888TIP3    H242080   2.680   1.324   1.626 -1.6947 -2.0091 -2.2416
 6889TIP3   OH242081   4.424   2.914   5.412  0.0170  0.0887 -0.0626
 6889TIP3    H142082   4.329   2.923   5.417 -0.1299 -1.4805  0.3373
 6889TIP3    H242083   4.458   2.993   5.455 -1.1265 -0.9582  3.0236
 6890TIP3   OH242084   5.976   4.262  15.899 -0.2361  0.0028  0.2597
 6890TIP3    H142085   5.984   4.341  15.846 -1.9242 -0.8463 -1.3516
 6890TIP3    H242086   6.044   4.203  15.866 -0.1696  0.1057  0.2151
 6891TIP3   OH242087   3.418   3.273   2.675 -0.5660 -0.3608 -0.1013
 6891TIP3    H142088   3.450   3.228   2.753  0.9695 -1.8419 -1.4996
 6891TIP3    H242089   3.496   3.289   2.622 -1.5583  0.5378 -1.3687
 6892TIP3   OH242090   5.076   3.049   4.611  0.2589 -0.0658  0.6075
 6892TIP3    H142091   5.014   3.062   4.538  1.5620 -1.0665 -0.7461
 6892TIP3    H242092   5.066   3.127   4.665 -0.4951  0.8959 -0.8543
 6893TIP3   OH242093   5.240   0.770  11.376 -0.3089  0.1134 -0.1056
 6893TIP3    H142094   5.157   0.799  11.339 -0.2731  1.3900  0.7303
 6893TIP3    H242095   5.289   0.851  11.390  1.2363 -0.6365 -0.9223
 6894TIP3   OH242096   6.343   2.045  11.735  0.2636  0.2650 -0.6564
 6894TIP3    H142097   6.300   2.042  11.650 -2.2078 -0.5174  0.5154
 6894TIP3    H242098   6.435   2.061  11.715 -0.3067  0.5966 -3.4189
 6895TIP3   OH242099   2.420   0.618   2.905 -0.2526  0.6379 -0.0490
 6895TIP3    H142100   2.399   0.701   2.862  0.9267  0.9488 -0.0632
 6895TIP3    H242101   2.464   0.566   2.837  0.4269  0.6228  0.3891
 6896TIP3   OH242102   2.061   1.587   2.559  0.2098  0.7910  0.1681
 6896TIP3    H142103   1.969   1.578   2.584  0.4266 -2.1568  0.2373
 6896TIP3    H242104   2.058   1.628   2.472 -1.3570 -1.2789 -0.8288
 6897TIP3   OH242105   1.252   1.284  14.347 -0.6027  0.0304  0.1745
 6897TIP3    H142106   1.272   1.314  14.259  1.0408 -2.6610 -0.4757
 6897TIP3    H242107   1.264   1.362  14.402 -1.2133  1.6580 -1.8485
 6898TIP3   OH242108   2.474   1.840  15.826  0.6600 -0.7351  0.0569
 6898TIP3    H142109   2.564   1.849  15.794 -0.5359 -0.2349 -3.5767
 6898TIP3    H242110   2.435   1.772  15.771 -0.9659 -1.7406  2.2750
 6899TIP3   OH242111   5.287   3.408  12.300  0.2953 -0.1997  0.0887
 6899TIP3    H142112   5.328   3.416  12.387  0.0760 -0.9471  0.2713
 6899TIP3    H242113   5.269   3.314  12.292  0.2214 -0.1158 -0.7254
 6900TIP3   OH242114   0.504   5.280   3.545 -0.1259  0.0622 -0.7997
 6900TIP3    H142115   0.439   5.350   3.547  0.0482  0.2714 -1.7309
 6900TIP3    H242116   0.534   5.278   3.454  0.3532 -0.7819 -0.6380
 6901TIP3   OH242117   0.941   3.728   5.509  0.0516 -0.1576 -0.3375
 6901TIP3    H142118   1.018   3.681   5.477 -2.0005 -2.4025 -2.4691
 6901TIP3    H242119   0.874   3.660   5.519 -2.2606  1.9223 -0.6609
 6902TIP3   OH242120   3.822   5.883  11.319 -0.4245  0.8323  0.3731
 6902TIP3    H142121   3.899   5.858  11.371 -1.1116 -0.9728  0.6036
 6902TIP3    H242122   3.848   5.964  11.275  2.0709 -0.3418 -0.5022
 6903TIP3   OH242123   3.020   4.370   5.428  0.1311  0.1099  0.1430
 6903TIP3    H142124   3.081   4.310   5.385 -0.6706 -0.4571 -0.2421
 6903TIP3    H242125   3.062   4.456   5.423  2.2417 -0.6559  2.4461
 6904TIP3   OH242126   5.485   4.496  12.694 -0.7036  0.7934  0.0050
 6904TIP3    H142127   5.449   4.520  12.609  0.4799  0.9169 -0.4762
 6904TIP3    H242128   5.507   4.403  12.685 -2.4053  0.2611  0.8523
 6905TIP3   OH242129   0.703   4.098   4.448 -0.4237 -0.3714  0.2056
 6905TIP3    H142130   0.720   4.176   4.501 -2.1439  0.0177  0.2507
 6905TIP3    H242131   0.681   4.132   4.361 -1.7668 -0.7242  0.3748
 6906TIP3   OH242132   6.436   1.965  16.658 -0.8415  0.3999 -0.8321
 6906TIP3    H142133   6.459   1.945  16.568 -0.9612  1.0624 -1.0170
 6906TIP3    H242134   6.480   2.047  16.677  0.0558 -0.2572  0.0759
 6907TIP3   OH242135   1.777   2.037  12.514 -0.3186  0.0244  0.0807
 6907TIP3    H142136   1.714   2.094  12.560 -2.6351 -1.7133 -0.7539
 6907TIP3    H242137   1.723   1.986  12.454  1.7203 -2.6907  0.4095
 6908TIP3   OH242138   4.215   6.455  16.337 -0.4438  0.0414  0.6153
 6908TIP3    H142139   4.230   6.383  16.399  2.0714 -1.3230 -1.3878
 6908TIP3    H242140   4.232   6.534  16.387 -1.3057 -0.8160  2.3666
 6909TIP3   OH242141   0.603   5.985   0.035  0.1814 -0.2841 -0.1612
 6909TIP3    H142142   0.566   5.968  -0.052 -1.0091 -0.0537  0.2731
 6909TIP3    H242143   0.561   6.067   0.063 -1.6055 -1.7224  1.7250
 6910TIP3   OH242144   5.856   0.691   4.804  0.1874  0.2321 -0.3309
 6910TIP3    H142145   5.823   0.716   4.718  1.5023  0.9067 -0.6723
 6910TIP3    H242146   5.871   0.774   4.849 -0.4265 -0.1148  0.5348
 6911TIP3   OH242147   5.305   3.393  16.476 -0.4336  0.6254 -0.4515
 6911TIP3    H142148   5.376   3.437  16.430  0.2942 -0.3085 -0.2686
 6911TIP3    H242149   5.238   3.460  16.488  0.8812  1.8496  0.3582
 6912TIP3   OH242150   1.115   1.675   2.843  0.3307  0.2416 -0.0053
 6912TIP3    H142151   1.175   1.648   2.912  0.0532 -0.8565 -0.1861
 6912TIP3    H242152   1.133   1.769   2.831 -1.5348  1.2185  3.5371
 6913TIP3   OH242153   4.254   5.473   0.193 -0.5102  0.0338 -0.1711
 6913TIP3    H142154   4.301   5.390   0.191  0.4492  0.5729 -0.6974
 6913TIP3    H242155   4.202   5.473   0.112 -1.8555 -0.7800  0.6474
 6914TIP3   OH242156   5.063   4.007  15.611  0.0639  0.1422 -0.0750
 6914TIP3    H142157   5.046   4.097  15.583  2.3849  0.6637  0.0227
 6914TIP3    H242158   5.082   4.014  15.705  0.0728 -0.4928 -0.0216
 6915TIP3   OH242159   0.651   0.824  13.858 -0.2470  0.2728 -0.1800
 6915TIP3    H142160   0.700   0.791  13.934 -0.3179  0.1026 -0.2066
 6915TIP3    H242161   0.718   0.839  13.792  0.0241  1.9454  0.4221
 6916TIP3   OH242162   6.381   0.833  11.443  0.3099  0.0574 -0.3601
 6916TIP3    H142163   6.290   0.862  11.449  0.1171  0.4479 -3.4980
 6916TIP3    H242164   6.400   0.795  11.529 -2.4751  0.8289  0.7027
 6917TIP3   OH242165   4.997   3.109  14.694  1.2458 -0.0448  0.2673
 6917TIP3    H142166   5.048   3.043  14.647 -0.8971 -0.9304 -0.9497
 6917TIP3    H242167   4.922   3.061  14.729  0.5694  1.4310  0.9344
 6918TIP3   OH242168   0.820   5.835   0.129  1.5101  0.4307  0.0564
 6918TIP3    H142169   0.882   5.905   0.110  0.7702  0.9280 -0.5989
 6918TIP3    H242170   0.740   5.861   0.084  0.5185  0.2717  1.6467
 6919TIP3   OH242171   6.121   5.714   5.626 -0.4998  0.5734  0.1281
 6919TIP3    H142172   6.029   5.710   5.653 -1.0262 -0.4004 -1.6771
 6919TIP3    H242173   6.169   5.725   5.708 -2.0398 -1.7084  1.4616
 6920TIP3   OH242174   0.759   1.139  11.363  0.3115  0.5391 -0.7134
 6920TIP3    H142175   0.695   1.206  11.387  0.0278  0.2682 -0.6946
 6920TIP3    H242176   0.709   1.078  11.309  0.0937 -0.6247  0.7343
 6921TIP3   OH242177   2.051   3.170  16.101 -0.3606 -0.5101  0.0257
 6921TIP3    H142178   1.993   3.207  16.035  0.4126  1.8066  0.5429
 6921TIP3    H242179   1.992   3.145  16.173 -0.7794  2.0200  0.6458
 6922TIP3   OH242180   4.885   0.828  14.382  0.1695 -0.0674  0.1275
 6922TIP3    H142181   4.975   0.851  14.405  0.5566 -1.3815  0.0327
 6922TIP3    H242182   4.855   0.900  14.326  1.4159  0.0403 -0.4334
 6923TIP3   OH242183   0.404   1.443  12.394  0.2763 -0.3049  0.6496
 6923TIP3    H142184   0.329   1.385  12.383 -1.3203  1.7823 -0.1321
 6923TIP3    H242185   0.464   1.419  12.324 -0.0452 -1.4056  0.7352
 6924TIP3   OH242186   0.758   0.572   1.031  0.0838 -0.0331 -0.4708
 6924TIP3    H142187   0.837   0.612   1.068 -0.3244  2.0549 -1.6938
 6924TIP3    H242188   0.686   0.623   1.068 -0.6332 -0.9780 -0.5152
 6925TIP3   OH242189   0.645   1.160   5.566 -0.4527 -0.0717 -0.4777
 6925TIP3    H142190   0.652   1.183   5.659 -1.2368  1.0087 -0.6677
 6925TIP3    H242191   0.690   1.076   5.559  1.3353  0.7187  0.5212
 6926TIP3   OH242192   0.882   6.005  14.047 -0.1544  0.6667  0.6640
 6926TIP3    H142193   0.952   6.006  13.981 -1.9577  1.1816 -1.3507
 6926TIP3    H242194   0.907   5.936  14.107  1.8750  0.5440 -0.2293
 6927TIP3   OH242195   6.302   5.079  12.980  0.2979 -0.0823 -0.7405
 6927TIP3    H142196   6.340   5.109  12.897  2.0598 -1.6924 -0.5815
 6927TIP3    H242197   6.219   5.039  12.956  0.7171 -0.3970 -1.7203
 6928TIP3   OH242198   4.571   3.025   3.461  0.4407  0.1464 -0.3426
 6928TIP3    H142199   4.555   3.117   3.438  1.5054  0.3523 -0.3296
 6928TIP3    H242200   4.611   2.988   3.383 -1.1960 -0.6839 -0.8309
 6929TIP3   OH242201   2.142   1.939  16.146 -0.1584 -0.1046  0.0294
 6929TIP3    H142202   2.151   1.875  16.076 -1.7814 -1.8338  1.3091
 6929TIP3    H242203   2.090   2.010  16.107 -1.5416 -1.3036 -0.3875
 6930TIP3   OH242204   1.677   4.743   0.160 -0.6865 -0.0799  0.1603
 6930TIP3    H142205   1.612   4.730   0.091 -0.3841 -0.1294 -0.1186
 6930TIP3    H242206   1.660   4.831   0.193 -0.1285  0.3756 -0.7300
 6931TIP3   OH242207   6.321   3.704   1.838  0.3332 -1.4004 -0.4094
 6931TIP3    H142208   6.380   3.772   1.806  1.1931 -2.1168 -0.4000
 6931TIP3    H242209   6.311   3.722   1.931  0.0903 -0.9608 -0.5166
 6932TIP3   OH242210   3.408   3.715  16.950  0.5015 -0.4613  0.4903
 6932TIP3    H142211   3.445   3.762  16.875 -0.5383  0.1538  0.3473
 6932TIP3    H242212   3.484   3.691  17.003  1.3683 -1.8259 -1.2550
 6933TIP3   OH242213   2.101   1.992   0.174  0.1809 -0.2355 -0.5609
 6933TIP3    H142214   2.185   2.009   0.131  0.2465 -1.6116 -1.0365
 6933TIP3    H242215   2.122   1.994   0.267  0.2702  1.6394 -0.5927
 6934TIP3   OH242216   5.769   0.891   2.651  0.3341  0.5449  1.0366
 6934TIP3    H142217   5.690   0.859   2.607  0.6359  1.8661 -0.5691
 6934TIP3    H242218   5.742   0.972   2.694  1.0504  1.6828 -0.5747
 6935TIP3   OH242219   0.078   6.755   4.025 -0.3915  0.5360  0.1852
 6935TIP3    H142220   0.079   6.846   3.997 -0.7050  0.9342  1.3855
 6935TIP3    H242221   0.052   6.705   3.947 -0.3550  1.4790 -0.4418
 6936TIP3   OH242222   4.031   2.503   3.246  0.1684 -0.2514  0.5791
 6936TIP3    H142223   4.121   2.484   3.221 -0.6280 -1.6760 -1.4844
 6936TIP3    H242224   4.017   2.594   3.220  0.0868 -0.9961 -2.2608
 6937TIP3   OH242225   5.309   0.880   3.130  0.3362  0.0412  0.1330
 6937TIP3    H142226   5.351   0.949   3.077  0.2600  0.8506  1.0955
 6937TIP3    H242227   5.221   0.873   3.093  0.1917  0.7944  0.3009
 6938TIP3   OH242228   2.938   6.542   5.163  0.6373  0.1286 -0.0212
 6938TIP3    H142229   3.029   6.535   5.192  0.7075  0.8829 -0.0285
 6938TIP3    H242230   2.886   6.533   5.243  0.8273  2.1315  0.3855
 6939TIP3   OH242231   3.682   3.456   0.529 -0.4548  0.1667 -1.2333
 6939TIP3    H142232   3.637   3.536   0.502 -0.9518  0.6535  0.8022
 6939TIP3    H242233   3.731   3.482   0.607  0.0092 -1.3314 -0.9993
 6940TIP3   OH242234   5.448   5.533   4.939 -1.0823  0.4156  0.2023
 6940TIP3    H142235   5.515   5.503   5.001 -1.7249 -1.0669  0.2118
 6940TIP3    H242236   5.437   5.626   4.960  0.4598  0.5247  0.6643
 6941TIP3   OH242237   3.264   6.252   0.024  0.4159  0.6064  0.5371
 6941TIP3    H142238   3.240   6.289  -0.061  1.8440  1.5626  0.5130
 6941TIP3    H242239   3.198   6.287   0.085 -1.2115 -0.8836 -0.2964
 6942TIP3   OH242240   3.925   2.626  17.188 -0.2659 -0.0084  0.0773
 6942TIP3    H142241   3.871   2.551  17.216  0.3826 -1.2567 -1.8113
 6942TIP3    H242242   3.987   2.638  17.259  1.6214 -3.3399 -0.7716
 6943TIP3   OH242243   4.614   4.905   1.498  0.0032  0.1777  0.1078
 6943TIP3    H142244   4.604   4.939   1.409  0.9470  0.0333 -0.0711
 6943TIP3    H242245   4.549   4.953   1.550  1.1920  2.2086 -0.1519
 6944TIP3   OH242246   1.060   3.513  16.731 -0.1212 -0.6783 -0.0453
 6944TIP3    H142247   1.138   3.511  16.675  0.3231  0.7239  0.4665
 6944TIP3    H242248   1.067   3.435  16.785  0.6025 -0.8962 -0.4451
 6945TIP3   OH242249   6.647   4.877   4.936 -0.0252  0.0237 -0.2007
 6945TIP3    H142250   6.586   4.902   4.866  0.4170 -1.3707 -1.1249
 6945TIP3    H242251   6.608   4.799   4.975  0.1192  0.3522  0.6207
 6946TIP3   OH242252   1.697   1.801  14.991 -0.5194  0.0446 -0.1519
 6946TIP3    H142253   1.759   1.850  15.046 -0.1868 -0.9333  0.3594
 6946TIP3    H242254   1.629   1.772  15.052 -1.5880  1.2238 -0.7263
 6947TIP3   OH242255   2.066   1.543   4.816  0.2843  0.1338 -0.6696
 6947TIP3    H142256   2.015   1.509   4.890  0.9034  1.7204  0.5227
 6947TIP3    H242257   2.003   1.595   4.766  0.3382  0.7236 -0.1286
 6948TIP3   OH242258   3.155   4.074  13.694  0.9050  0.0815  0.2662
 6948TIP3    H142259   3.178   4.153  13.646  1.1261 -0.1442  0.0013
 6948TIP3    H242260   3.191   4.087  13.781  0.4518  0.5175  0.3909
 6949TIP3   OH242261   1.957   1.355  16.130 -0.2405 -0.0428 -1.0174
 6949TIP3    H142262   1.999   1.387  16.050 -1.8986  1.9650 -1.1703
 6949TIP3    H242263   1.898   1.426  16.156 -1.4434 -1.5891  0.7253
 6950TIP3   OH242264   1.631   2.986   0.865 -0.1972 -0.2679  0.3045
 6950TIP3    H142265   1.711   2.972   0.915  0.8120  1.3662 -0.7761
 6950TIP3    H242266   1.599   2.897   0.846  2.0702 -1.0081 -0.3612
 6951TIP3   OH242267   0.477   0.433   0.688  0.3873 -0.3280 -0.3458
 6951TIP3    H142268   0.490   0.523   0.720 -0.3231 -0.8788  1.6752
 6951TIP3    H242269   0.382   0.423   0.684  0.4608 -0.6148 -1.7961
 6952TIP3   OH242270   2.765   6.291   4.041 -0.0452  0.0685  0.1863
 6952TIP3    H142271   2.859   6.293   4.023 -0.2234 -0.5344 -0.8962
 6952TIP3    H242272   2.736   6.381   4.026  0.0395 -0.1364 -1.4372
 6953TIP3   OH242273   4.827   5.250   1.552 -0.2548 -0.0116  0.1108
 6953TIP3    H142274   4.732   5.263   1.548 -0.0899  1.5573  0.9309
 6953TIP3    H242275   4.841   5.208   1.637 -0.5420 -3.9490 -1.5714
 6954TIP3   OH242276   2.510   0.874  13.790 -0.5302 -0.0031 -0.3277
 6954TIP3    H142277   2.530   0.897  13.880 -1.7371  3.0732 -0.6959
 6954TIP3    H242278   2.569   0.927  13.737 -1.2249 -0.1839 -1.3399
 6955TIP3   OH242279   1.121   0.132  17.063 -0.6830 -0.0329 -0.2469
 6955TIP3    H142280   1.149   0.219  17.092  0.2911 -1.5714  4.0550
 6955TIP3    H242281   1.026   0.134  17.074 -0.4541 -0.2095  2.5357
 6956TIP3   OH242282   4.089   4.911   1.972  0.0500 -0.2261  0.6654
 6956TIP3    H142283   4.090   4.922   2.067 -1.2918 -0.7541  0.7632
 6956TIP3    H242284   4.057   4.995   1.938 -1.7917 -0.8213  0.8532
 6957TIP3   OH242285   1.872   6.364  16.382 -0.1976  0.1620 -0.0570
 6957TIP3    H142286   1.819   6.432  16.340  1.2451  0.3026 -1.7705
 6957TIP3    H242287   1.961   6.382  16.355  0.5737 -0.8910  1.6239
 6958TIP3   OH242288   0.866   4.066  14.818 -0.3732 -0.0608  0.0460
 6958TIP3    H142289   0.898   3.976  14.817 -1.4354 -0.4448 -0.5179
 6958TIP3    H242290   0.925   4.113  14.760 -0.3529 -0.5946 -0.3765
 6959TIP3   OH242291   0.591   5.397   5.369 -0.3094 -0.1138  0.2032
 6959TIP3    H142292   0.595   5.489   5.343 -0.3207  0.4397  2.0695
 6959TIP3    H242293   0.530   5.357   5.307  2.0540  0.3822 -2.6530
 6960TIP3   OH242294   3.203   0.741   3.765  0.2470  0.7296 -0.2568
 6960TIP3    H142295   3.245   0.656   3.759  0.4659  0.7216  1.0711
 6960TIP3    H242296   3.255   0.789   3.829 -0.4252  1.5354 -0.2992
 6961TIP3   OH242297   4.736   5.051   4.742  0.1333 -0.1968 -0.0255
 6961TIP3    H142298   4.786   4.985   4.694 -1.9057 -1.6254 -0.3316
 6961TIP3    H242299   4.780   5.058   4.827  0.6806 -1.6005 -0.1714
 6962TIP3   OH242300   6.446   1.332   4.495 -0.3681 -0.5569  0.1897
 6962TIP3    H142301   6.385   1.400   4.525  0.0999  0.0490 -0.2010
 6962TIP3    H242302   6.422   1.254   4.545 -0.0645  0.2412  1.6202
 6963TIP3   OH242303   6.021   3.702  14.048  0.5243 -0.6838 -0.3024
 6963TIP3    H142304   5.983   3.621  14.081 -0.8169  0.2974  0.6618
 6963TIP3    H242305   5.949   3.746  14.003  0.5268  1.0823  1.2914
 6964TIP3   OH242306   1.024   3.735  16.119 -0.2897  0.0929  0.2424
 6964TIP3    H142307   0.962   3.716  16.189 -0.2412 -0.5411  0.1211
 6964TIP3    H242308   0.971   3.771  16.048 -0.3821  0.4334  0.4796
 6965TIP3   OH242309   4.551   1.933   5.329 -0.2997  0.1839  0.2327
 6965TIP3    H142310   4.564   1.858   5.387 -3.5575 -0.6603  0.0160
 6965TIP3    H242311   4.560   2.009   5.387 -1.4528 -0.5655  1.4568
 6966TIP3   OH242312   4.543   2.816   4.686  0.2308 -0.1721  0.3457
 6966TIP3    H142313   4.484   2.889   4.669  0.2424  0.2214  1.8781
 6966TIP3    H242314   4.529   2.757   4.612 -0.3323  1.0099 -0.5334
 6967TIP3   OH242315   3.464   6.047   1.155  0.1486 -0.1954 -0.2541
 6967TIP3    H142316   3.395   5.983   1.139  1.1470 -1.0007 -1.4439
 6967TIP3    H242317   3.532   6.026   1.092  0.4938  2.0770 -0.7217
 6968TIP3   OH242318   4.734   5.309  11.207  0.5750 -0.1183 -0.2162
 6968TIP3    H142319   4.743   5.359  11.126 -2.0718 -1.2338 -1.3011
 6968TIP3    H242320   4.640   5.295  11.216  0.7581  0.0800  3.1703
 6969TIP3   OH242321   5.435   5.698  14.464  0.0192  0.4124  0.5592
 6969TIP3    H142322   5.379   5.627  14.433  0.2497  0.1165  0.8078
 6969TIP3    H242323   5.392   5.778  14.434 -0.7778  0.2102  1.1485
 6970TIP3   OH242324   4.617   1.261  15.813  0.1878  0.0825  0.1811
 6970TIP3    H142325   4.525   1.235  15.805  0.3718 -0.1684 -1.6683
 6970TIP3    H242326   4.663   1.204  15.751  1.7320 -0.3176  1.6149
 6971TIP3   OH242327   5.941   6.738   2.020  0.0157  0.2690  0.1883
 6971TIP3    H142328   5.862   6.789   2.041  0.8936  1.9968 -0.5302
 6971TIP3    H242329   5.908   6.661   1.973 -1.2371  0.9139 -0.0221
 6972TIP3   OH242330   4.331   3.952  15.569 -0.1032 -0.8223  0.2332
 6972TIP3    H142331   4.339   3.883  15.503 -1.3587 -2.4909  1.7290
 6972TIP3    H242332   4.254   4.002  15.542  1.5509  0.9159 -1.5749
 6973TIP3   OH242333   3.586   4.327   0.160  0.2766 -0.1155  0.6184
 6973TIP3    H142334   3.526   4.364   0.224 -0.3132 -0.5712  0.3353
 6973TIP3    H242335   3.557   4.236   0.149  0.3720 -0.0427 -0.2859
 6974TIP3   OH242336   3.982   4.655   3.407 -0.1431 -0.1793 -0.0821
 6974TIP3    H142337   4.063   4.702   3.426  2.3646 -3.6938 -0.9304
 6974TIP3    H242338   3.961   4.680   3.317 -0.9490  1.9032  0.6394
 6975TIP3   OH242339   2.115   0.592   4.627  0.2214  0.1240 -0.5969
 6975TIP3    H142340   2.062   0.650   4.572  0.1575 -0.6513 -1.3774
 6975TIP3    H242341   2.203   0.596   4.589  0.4625  0.5213 -0.0051
 6976TIP3   OH242342   4.765   5.884   4.748  0.0454 -0.1733 -0.2009
 6976TIP3    H142343   4.671   5.902   4.746 -0.0844 -0.0919  2.6148
 6976TIP3    H242344   4.772   5.797   4.785  1.0917 -0.1312 -0.2791
 6977TIP3   OH242345   4.721   4.735   0.518  0.3834 -0.0211  0.1985
 6977TIP3    H142346   4.699   4.813   0.466  0.2848  0.1163  0.4413
 6977TIP3    H242347   4.770   4.679   0.459  0.8959  0.4500  0.1681
 6978TIP3   OH242348   1.730   5.179  16.794 -0.5858 -0.7253 -0.3165
 6978TIP3    H142349   1.778   5.128  16.730  0.0801 -0.5704  0.0460
 6978TIP3    H242350   1.784   5.175  16.873 -1.3204 -0.7958  0.1943
 6979TIP3   OH242351   3.897   0.381  13.740 -0.2669  0.4192  0.2307
 6979TIP3    H142352   3.859   0.384  13.652 -1.0963  1.1431  0.6036
 6979TIP3    H242353   3.881   0.291  13.769  1.6327 -0.3978 -1.0265
 6980TIP3   OH242354   0.102   2.950  14.306 -0.5409 -0.5222 -0.2925
 6980TIP3    H142355   0.096   3.023  14.244 -0.6357  0.6003  0.9922
 6980TIP3    H242356   0.188   2.912  14.290 -0.1879  0.3390 -0.4786
 6981TIP3   OH242357   4.218   1.428  13.535  0.3396 -0.2770  0.4950
 6981TIP3    H142358   4.136   1.446  13.580 -0.3697 -0.7024 -0.5878
 6981TIP3    H242359   4.195   1.428  13.442  1.1837 -2.1212  0.2354
 6982TIP3   OH242360   5.171   0.001   0.294  0.2805  0.2143 -0.1337
 6982TIP3    H142361   5.212   0.050   0.366  1.4090 -0.4315 -0.3168
 6982TIP3    H242362   5.241  -0.014   0.231  0.5247 -3.2625  0.7505
 6983TIP3   OH242363   5.785   1.984  13.606 -0.3990  0.3235  0.1348
 6983TIP3    H142364   5.784   1.982  13.510 -4.3806  2.5635 -0.1149
 6983TIP3    H242365   5.800   2.076  13.628 -1.1243  0.1358  1.5502
 6984TIP3   OH242366   6.455   5.580   5.858 -0.1144  0.4046 -0.2392
 6984TIP3    H142367   6.428   5.491   5.835 -0.7695  1.0895 -2.3613
 6984TIP3    H242368   6.497   5.571   5.944  1.0408 -2.1507 -0.9891
 6985TIP3   OH242369   3.897   0.905   2.191 -0.6921  0.7748  0.1226
 6985TIP3    H142370   3.968   0.957   2.228 -0.9060  0.7304  0.6028
 6985TIP3    H242371   3.854   0.865   2.266 -0.9239  0.4090 -0.1977
 6986TIP3   OH242372   2.906   4.938  11.558  0.2182  0.0886 -0.1255
 6986TIP3    H142373   2.837   4.876  11.535 -0.5341  1.5035 -1.9392
 6986TIP3    H242374   2.970   4.929  11.487  0.4835  0.8216  0.0181
 6987TIP3   OH242375   4.378   6.710  16.037  0.1602  0.0953 -0.2946
 6987TIP3    H142376   4.461   6.681  15.998 -0.0168 -0.1160 -0.5197
 6987TIP3    H242377   4.312   6.687  15.972  0.1232  2.0424 -0.9879
 6988TIP3   OH242378   1.916   4.515  11.178  0.1766  0.7588  0.1551
 6988TIP3    H142379   1.856   4.587  11.158 -2.7139 -1.4531  0.3079
 6988TIP3    H242380   1.900   4.450  11.110  0.1935 -1.1330  1.8716
 6989TIP3   OH242381   5.323   4.478  12.895 -0.0157  0.4834 -0.1026
 6989TIP3    H142382   5.382   4.498  12.822  0.2316 -0.6478 -0.2290
 6989TIP3    H242383   5.380   4.474  12.972 -0.0149 -0.0351 -0.1297
 6990TIP3   OH242384   1.919   2.991   4.356 -0.2207  0.5691 -0.5203
 6990TIP3    H142385   1.825   2.995   4.371 -0.8542  0.7634 -3.7116
 6990TIP3    H242386   1.958   2.995   4.443 -3.1544 -0.2445  0.9558
 6991TIP3   OH242387   5.698   6.079  17.200 -0.2062 -0.2921 -0.0411
 6991TIP3    H142388   5.684   6.063  17.107 -0.4742 -1.3260  0.1658
 6991TIP3    H242389   5.779   6.129  17.204 -0.2704 -0.1171 -0.8353
 6992TIP3   OH242390   1.530   1.064   2.545 -0.2271  0.1348 -0.0284
 6992TIP3    H142391   1.461   1.130   2.549  1.0723  1.6373 -1.4282
 6992TIP3    H242392   1.563   1.069   2.456  3.4883  1.3606  1.2666
 6993TIP3   OH242393   6.625   4.276  16.658 -0.2518 -0.6309 -0.0949
 6993TIP3    H142394   6.580   4.216  16.599 -1.0702 -0.7713  0.6558
 6993TIP3    H242395   6.565   4.287  16.732 -0.9789  2.5031 -1.0077
 6994TIP3   OH242396   6.741   1.642  10.725  0.8098 -0.1125  0.7982
 6994TIP3    H142397   6.749   1.737  10.735  1.5094 -0.1694  0.8734
 6994TIP3    H242398   6.828   1.615  10.694  0.9280 -0.8525  1.7380
 6995TIP3   OH242399   6.062   2.905   4.012 -0.5034  0.1549  0.2767
 6995TIP3    H142400   5.996   2.940   4.071 -0.8853  0.0921 -0.1035
 6995TIP3    H242401   6.047   2.810   4.011 -0.5561  0.1642  0.0138
 6996TIP3   OH242402   0.222   3.670   5.881  0.0064 -0.4218 -0.3505
 6996TIP3    H142403   0.208   3.729   5.807 -0.2442  0.0811  0.0897
 6996TIP3    H242404   0.297   3.708   5.928 -1.3953  0.7125  1.0658
 6997TIP3   OH242405   2.002   4.299   2.513 -0.7125  0.8116 -0.3003
 6997TIP3    H142406   2.072   4.364   2.501  0.6339 -0.2797  1.1354
 6997TIP3    H242407   2.027   4.252   2.592 -2.3974 -0.5332 -0.5122
 6998TIP3   OH242408   0.339   3.011  12.401 -0.2676 -0.0684 -0.0653
 6998TIP3    H142409   0.346   3.104  12.382 -0.2297 -0.0318  0.1319
 6998TIP3    H242410   0.251   2.987  12.369 -0.4206  0.1131  0.2137
 6999TIP3   OH242411   4.552   1.337  10.393 -0.1720 -0.7180 -0.0254
 6999TIP3    H142412   4.567   1.312  10.484 -0.3954 -2.0137 -0.3105
 6999TIP3    H242413   4.474   1.287  10.368  0.1423 -0.7214 -1.0424
 7000TIP3   OH242414   5.366   4.044  14.562  0.2903 -0.1970 -0.7862
 7000TIP3    H142415   5.405   3.998  14.488  0.7158  0.2111 -0.8242
 7000TIP3    H242416   5.349   3.976  14.627 -1.2965 -0.7667 -1.7364
 7001TIP3   OH242417   2.916   4.524  14.478  0.1744 -0.0153 -0.0662
 7001TIP3    H142418   2.962   4.581  14.416 -0.7098  1.6041  0.7038
 7001TIP3    H242419   2.879   4.455  14.424 -0.1439  1.0732 -1.2906
 7002TIP3   OH242420   3.883   4.085  10.873  0.3262 -0.6958  0.4892
 7002TIP3    H142421   3.842   4.172  10.881 -0.9315 -1.2325  0.1812
 7002TIP3    H242422   3.809   4.024  10.877  1.1109 -1.7095 -0.1032
 7003TIP3   OH242423   0.582   1.239  12.540  0.1613  0.0051  0.3982
 7003TIP3    H142424   0.536   1.305  12.488  0.0025  0.1775  0.7545
 7003TIP3    H242425   0.592   1.165  12.480 -0.1658  0.1398  0.1696
 7004TIP3   OH242426   2.716   6.226   0.644  0.6284 -0.3012 -0.4746
 7004TIP3    H142427   2.631   6.183   0.636 -0.2589  1.1822  0.5966
 7004TIP3    H242428   2.750   6.229   0.555 -0.8706 -0.0894 -1.0669
 7005TIP3   OH242429   0.954   6.743   2.270  0.9344  0.1216 -0.0357
 7005TIP3    H142430   0.904   6.784   2.341 -0.8010  0.4149 -1.3624
 7005TIP3    H242431   0.994   6.817   2.224 -0.4602  0.2251 -1.1549
 7006TIP3   OH242432   1.195   0.257   1.533  0.5156  0.0005 -0.0937
 7006TIP3    H142433   1.103   0.270   1.511  0.6993  2.2313  0.2619
 7006TIP3    H242434   1.193   0.197   1.608 -0.6993  0.7277  0.4881
 7007TIP3   OH242435   2.510   4.215   5.491  0.2128 -0.2305  0.7012
 7007TIP3    H142436   2.441   4.227   5.426  1.0614  1.0299 -0.0171
 7007TIP3    H242437   2.571   4.286   5.474  1.3935 -0.9643  1.7099
 7008TIP3   OH242438   6.294   4.961   0.777 -0.4431  0.1067 -0.1020
 7008TIP3    H142439   6.351   4.951   0.701 -1.0369 -1.4952 -0.3691
 7008TIP3    H242440   6.301   4.878   0.824 -1.3565  0.4639  0.7042
 7009TIP3   OH242441   3.101   0.141   3.202 -0.0876 -0.0116  0.1555
 7009TIP3    H142442   3.094   0.162   3.296 -2.3182  2.6582 -0.4651
 7009TIP3    H242443   3.057   0.214   3.158  1.3244 -0.9219 -3.0520
 7010TIP3   OH242444   2.363   5.701  12.593 -0.1600 -0.1007  0.5592
 7010TIP3    H142445   2.381   5.614  12.629 -0.6755 -0.7442 -0.6681
 7010TIP3    H242446   2.376   5.761  12.666  0.3172 -1.2027  1.3963
 7011TIP3   OH242447   3.981   4.630   4.036  0.3309 -0.3509 -0.4555
 7011TIP3    H142448   3.902   4.607   4.085  1.2243 -0.7425  0.8646
 7011TIP3    H242449   4.050   4.635   4.103  0.9625  2.4886 -1.1765
 7012TIP3   OH242450   6.162   6.611   3.416 -0.3323  0.4749  0.5383
 7012TIP3    H142451   6.156   6.637   3.324 -1.0681 -0.0238  0.4401
 7012TIP3    H242452   6.247   6.644   3.445 -0.7653  2.0587  0.1216
 7013TIP3   OH242453   0.951   6.219  14.208  0.1509 -0.5410  0.4051
 7013TIP3    H142454   1.024   6.265  14.167 -0.1067 -0.1006  0.4400
 7013TIP3    H242455   0.910   6.171  14.136 -0.9883  1.1155 -0.1131
 7014TIP3   OH242456   1.676   4.906  14.442 -0.2068 -0.7644  0.3315
 7014TIP3    H142457   1.582   4.894  14.433 -0.0339 -1.6116 -0.4821
 7014TIP3    H242458   1.714   4.826  14.406  0.8379 -0.2266  0.2068
 7015TIP3   OH242459   3.996   3.283  10.348 -0.1370  0.1938  0.8179
 7015TIP3    H142460   3.999   3.188  10.339 -0.1327  0.3925 -2.9699
 7015TIP3    H242461   3.913   3.301  10.391 -0.1573 -1.4732  1.5662
 7016TIP3   OH242462   2.104   4.370   0.470  0.0998 -0.3318 -0.7142
 7016TIP3    H142463   2.040   4.392   0.402 -0.1386  2.7602  0.3789
 7016TIP3    H242464   2.058   4.384   0.552  0.6750 -3.1282  0.2084
 7017TIP3   OH242465   2.097   5.180   1.982  0.1076  0.1074 -0.5398
 7017TIP3    H142466   2.095   5.271   1.953  0.5757  0.3782  0.2642
 7017TIP3    H242467   2.190   5.157   1.984  0.0257 -0.1941 -0.1298
 7018TIP3   OH242468   2.781   5.110   0.176 -0.2738 -0.0626  0.5084
 7018TIP3    H142469   2.843   5.072   0.113 -1.4080 -1.3772  0.1257
 7018TIP3    H242470   2.762   5.196   0.141  0.3491 -0.1471 -0.0693
 7019TIP3   OH242471   5.356   5.924  12.181 -0.3621  0.3432  0.4741
 7019TIP3    H142472   5.389   5.834  12.182 -0.7405  0.2044  1.3620
 7019TIP3    H242473   5.327   5.937  12.090 -0.7738 -0.6165  0.4495
 7020TIP3   OH242474   5.276   2.167  13.643 -0.0736 -0.4634 -0.0808
 7020TIP3    H142475   5.231   2.100  13.591 -2.3451 -0.0290  1.1964
 7020TIP3    H242476   5.206   2.213  13.689  1.7019  0.3924  1.9376
 7021TIP3   OH242477   0.087   4.753   2.841  1.0753  0.1653 -0.7519
 7021TIP3    H142478   0.144   4.796   2.905 -1.5539  1.4305  0.8882
 7021TIP3    H242479   0.104   4.799   2.759 -0.2471  3.2307  0.5292
 7022TIP3   OH242480   3.160   4.877  12.701 -0.3985  1.2505 -0.4611
 7022TIP3    H142481   3.191   4.963  12.673 -1.0658  1.5608 -0.2680
 7022TIP3    H242482   3.179   4.875  12.795 -0.6188  1.2937 -0.4151
 7023TIP3   OH242483   4.383   0.068  12.555  0.5883  0.5383  0.2957
 7023TIP3    H142484   4.330   0.139  12.519  0.7679  0.7756  0.4997
 7023TIP3    H242485   4.415   0.021  12.478 -1.3310 -0.6716  0.1570
 7024TIP3   OH242486   3.290   4.401  14.512  0.4829 -0.7709  0.2128
 7024TIP3    H142487   3.234   4.388  14.588 -1.5284 -1.5287 -1.3185
 7024TIP3    H242488   3.305   4.496  14.509 -0.6486 -0.5670  0.6935
 7025TIP3   OH242489   5.874   1.960  11.329  0.5095 -0.2768 -0.0150
 7025TIP3    H142490   5.826   2.040  11.353  0.4251  0.0625 -1.2062
 7025TIP3    H242491   5.948   1.992  11.277  1.0588 -0.9214  0.3530
 7026TIP3   OH242492   2.406   1.944   1.379 -0.2494 -0.6737 -0.5754
 7026TIP3    H142493   2.363   1.868   1.418 -0.7889 -1.2364 -2.1777
 7026TIP3    H242494   2.490   1.910   1.347  1.0851  0.2260  1.7627
 7027TIP3   OH242495   2.741   2.337  12.750 -0.0204 -0.1261 -0.0755
 7027TIP3    H142496   2.792   2.349  12.831 -1.9392 -0.4107  1.2426
 7027TIP3    H242497   2.700   2.422  12.736  1.9172  0.5726 -1.9966
 7028TIP3   OH242498   3.163   6.557   2.283 -0.0562  0.2245 -0.1795
 7028TIP3    H142499   3.257   6.571   2.274  0.2265 -1.3776  0.0760
 7028TIP3    H242500   3.131   6.636   2.328  1.1978  0.6243  0.0397
 7029TIP3   OH242501   0.732   3.453  14.838 -0.0380 -0.2194  0.6874
 7029TIP3    H142502   0.637   3.462  14.839 -0.0800 -0.6643  1.9067
 7029TIP3    H242503   0.748   3.361  14.859  0.6716  0.0121  1.1862
 7030TIP3   OH242504   1.770   5.721   3.157  0.6868  0.5793  0.1954
 7030TIP3    H142505   1.805   5.637   3.128  0.8301  0.4949  0.6153
 7030TIP3    H242506   1.803   5.732   3.246  1.0023  1.2659  0.0043
 7031TIP3   OH242507   2.865   3.117  16.768  0.9910 -0.2469  0.4556
 7031TIP3    H142508   2.907   3.159  16.843 -0.8308  0.0792  1.3506
 7031TIP3    H242509   2.882   3.023  16.781  2.3797 -0.0572  0.1614
 7032TIP3   OH242510   1.027   6.712  14.330  0.0722  0.2183 -0.6033
 7032TIP3    H142511   0.985   6.649  14.271  2.1816 -1.3661 -0.5430
 7032TIP3    H242512   1.076   6.657  14.391  1.9450  1.9318 -0.4897
 7033TIP3   OH242513   4.395   0.351  14.530 -0.6379  0.5717  0.1366
 7033TIP3    H142514   4.322   0.297  14.501  0.2219  0.1165 -1.2589
 7033TIP3    H242515   4.449   0.292  14.583 -1.5005  1.0441  1.6157
 7034TIP3   OH242516   2.012   4.545  14.491 -0.3692 -0.4814 -0.0556
 7034TIP3    H142517   2.019   4.514  14.400  1.4565  1.2318 -0.5705
 7034TIP3    H242518   1.983   4.468  14.540  1.0420 -2.1737 -1.7167
 7035TIP3   OH242519   5.061   6.113   2.940  0.5729  0.6777  0.1533
 7035TIP3    H142520   5.055   6.164   3.021 -1.1738  2.1998 -0.8611
 7035TIP3    H242521   5.100   6.030   2.967  0.7746  1.4313  2.4008
 7036TIP3   OH242522   3.259   6.541   0.223 -0.3790  0.3234 -0.5609
 7036TIP3    H142523   3.336   6.493   0.193 -1.2159 -0.5924 -1.2976
 7036TIP3    H242524   3.184   6.489   0.193 -1.3134  1.7628 -0.8591
 7037TIP3   OH242525   1.672   4.505   0.971 -0.2904  0.2557 -0.2061
 7037TIP3    H142526   1.730   4.443   1.014 -1.0637  0.3512  1.0417
 7037TIP3    H242527   1.605   4.452   0.929  1.6684  0.0180 -3.3570
 7038TIP3   OH242528   6.283   3.587  12.867  0.9075  0.3665  0.3660
 7038TIP3    H142529   6.316   3.662  12.818 -1.2524  2.5107  1.9452
 7038TIP3    H242530   6.328   3.592  12.951  0.1206  0.4358  0.7920
 7039TIP3   OH242531   4.514   4.309  11.884  0.1119 -0.5651  0.6541
 7039TIP3    H142532   4.468   4.387  11.914  0.9394  0.7673 -1.2602
 7039TIP3    H242533   4.595   4.308  11.934  0.7246  0.6648 -0.2489
 7040TIP3   OH242534   2.112   4.009  11.103 -0.0538 -0.2828 -0.3517
 7040TIP3    H142535   2.195   4.042  11.068  0.2351  0.6163  1.0982
 7040TIP3    H242536   2.129   3.916  11.119  0.5492 -0.1962 -0.4605
 7041TIP3   OH242537   5.255   3.895   4.679 -0.0204 -0.4233 -0.7960
 7041TIP3    H142538   5.344   3.924   4.699 -0.2862  0.2847 -0.6291
 7041TIP3    H242539   5.235   3.935   4.595 -0.9478  1.1440  0.1362
 7042TIP3   OH242540   6.755   5.800   5.542 -0.2094 -0.1185 -0.1254
 7042TIP3    H142541   6.797   5.717   5.520 -0.1174 -0.0586 -0.1816
 7042TIP3    H242542   6.681   5.777   5.597 -0.7513 -0.3215 -0.9227
 7043TIP3   OH242543   5.085   2.757  15.159  0.2686 -0.5033  0.3976
 7043TIP3    H142544   5.148   2.687  15.147 -0.3344 -1.0828  0.5437
 7043TIP3    H242545   5.000   2.712  15.167 -0.4184  0.3135 -1.5959
 7044TIP3   OH242546   1.132   3.617   5.791  0.3337 -1.1243 -0.2002
 7044TIP3    H142547   1.044   3.652   5.803  0.8400 -0.0512  0.5964
 7044TIP3    H242548   1.119   3.526   5.765 -0.9914 -1.2473  0.8156
 7045TIP3   OH242549   0.383   6.698   1.876 -0.4903  0.4294 -0.1228
 7045TIP3    H142550   0.446   6.767   1.857  2.0994 -1.5451  0.6877
 7045TIP3    H242551   0.302   6.744   1.899  0.1716  3.0641 -2.4944
 7046TIP3   OH242552   1.591   5.557  15.602 -0.7965  0.1741  0.3862
 7046TIP3    H142553   1.536   5.554  15.524 -0.7739 -1.0900  0.3884
 7046TIP3    H242554   1.572   5.641  15.643  0.5287  1.7201 -1.9366
 7047TIP3   OH242555   2.697   2.229  12.489 -0.5602 -0.0579  0.1899
 7047TIP3    H142556   2.691   2.298  12.423  2.0994  0.3516  0.2613
 7047TIP3    H242557   2.706   2.276  12.572 -2.3580 -0.5686  0.7211
 7048TIP3   OH242558   2.521   0.800   3.737 -0.0241 -0.3204 -0.9380
 7048TIP3    H142559   2.461   0.786   3.810  0.6196  2.1256  0.1740
 7048TIP3    H242560   2.605   0.765   3.767  0.0606 -0.0176 -0.8219
 7049TIP3   OH242561   4.113   4.200   2.918 -0.0847  0.7085 -0.3353
 7049TIP3    H142562   4.186   4.240   2.870  1.5737 -0.9381  0.7071
 7049TIP3    H242563   4.070   4.274   2.961 -0.1483  1.9264 -2.3395
 7050TIP3   OH242564   3.241   0.980  11.622 -0.8234 -0.4177  0.8490
 7050TIP3    H142565   3.253   0.886  11.605  1.2422 -0.4958  2.3035
 7050TIP3    H242566   3.268   0.991  11.713 -0.5129  1.6814  0.5460
 7051TIP3   OH242567   0.982   0.715  11.996 -0.2235 -0.3908  0.0969
 7051TIP3    H142568   0.933   0.633  11.993  2.2373 -1.9624 -0.0578
 7051TIP3    H242569   0.985   0.744  11.905 -1.4031  0.1169  0.1970
 7052TIP3   OH242570   4.264   0.467  12.801 -0.5264 -0.3079  0.3855
 7052TIP3    H142571   4.304   0.380  12.799 -0.2353 -0.2008 -2.2297
 7052TIP3    H242572   4.194   0.463  12.736  0.3791  1.7503 -0.8491
 7053TIP3   OH242573   2.302   4.142   1.042 -0.0520 -0.4228 -0.4377
 7053TIP3    H142574   2.326   4.202   1.113 -1.5456  0.3523 -0.5514
 7053TIP3    H242575   2.381   4.090   1.028  0.0985 -1.1368  2.3271
 7054TIP3   OH242576   4.134   6.318   0.450 -0.3715  0.1791 -0.5904
 7054TIP3    H142577   4.180   6.369   0.516  1.0020  0.0188 -1.3770
 7054TIP3    H242578   4.116   6.234   0.492  0.6819  0.0018 -0.4576
 7055TIP3   OH242579   5.775   2.026   3.314  0.1848 -0.2823  0.2876
 7055TIP3    H142580   5.815   1.970   3.381  0.8928 -2.5182 -1.8915
 7055TIP3    H242581   5.835   2.022   3.240 -0.9812  1.4753 -0.8298
 7056TIP3   OH242582   1.857   1.268  13.693  0.3859 -0.4020  0.0655
 7056TIP3    H142583   1.834   1.359  13.709 -1.1012 -0.6248 -0.5520
 7056TIP3    H242584   1.835   1.223  13.774  1.2047 -0.2123  0.4019
 7057TIP3   OH242585   4.645   5.434  13.392  0.0839  0.5069  0.1051
 7057TIP3    H142586   4.661   5.381  13.314  1.7181  1.7683 -0.4811
 7057TIP3    H242587   4.550   5.436  13.401 -0.1760  0.7816 -2.1985
 7058TIP3   OH242588   2.126   1.127  16.517 -0.2465 -0.1298  0.1079
 7058TIP3    H142589   2.209   1.166  16.544 -0.3642  0.4815 -0.4099
 7058TIP3    H242590   2.131   1.037  16.549  0.5077 -0.0245  0.3033
 7059TIP3   OH242591   5.501   6.005   2.146 -0.5700  0.1373  0.1149
 7059TIP3    H142592   5.494   5.909   2.148  0.4532  0.0316 -0.9909
 7059TIP3    H242593   5.448   6.031   2.071  0.3812  0.3146 -0.5010
 7060TIP3   OH242594   0.509   2.986   5.706 -0.3410  0.5267 -0.2969
 7060TIP3    H142595   0.426   3.034   5.709  0.9002  2.9039 -1.3472
 7060TIP3    H242596   0.556   3.014   5.784 -0.6664 -1.2209  0.5800
 7061TIP3   OH242597   4.210   0.780   4.321 -0.9132 -0.7578 -0.3729
 7061TIP3    H142598   4.178   0.825   4.399 -0.6415  1.0421 -1.2671
 7061TIP3    H242599   4.299   0.814   4.308 -0.8352 -1.2770 -1.2826
 7062TIP3   OH242600   4.115   1.409   5.351 -0.0523 -0.4648 -0.1580
 7062TIP3    H142601   4.053   1.454   5.294 -0.0913 -0.1765  0.1102
 7062TIP3    H242602   4.084   1.428   5.440  0.8698  0.3319  0.0027
 7063TIP3   OH242603   1.737   0.330   5.143 -0.2210 -0.1101 -0.0056
 7063TIP3    H142604   1.768   0.366   5.060 -2.2246  0.9588 -0.3612
 7063TIP3    H242605   1.772   0.241   5.145  1.0324  0.3191 -1.3128
 7064TIP3   OH242606   2.396   1.347   3.120  0.1147  0.0442  0.2452
 7064TIP3    H142607   2.455   1.365   3.194 -1.3630 -0.1517  1.5258
 7064TIP3    H242608   2.350   1.429   3.106 -1.1661 -0.5119  1.0216
 7065TIP3   OH242609   4.173   2.804  15.622  0.4099 -0.4264 -0.3295
 7065TIP3    H142610   4.093   2.751  15.618  0.8452 -1.0180 -1.8054
 7065TIP3    H242611   4.163   2.866  15.550  1.3704 -0.6485 -0.6586
 7066TIP3   OH242612   6.233   1.024  14.983 -0.0014  0.1153 -0.3195
 7066TIP3    H142613   6.210   1.021  14.890 -0.1801  0.3696 -0.2868
 7066TIP3    H242614   6.260   0.935  15.004 -0.3173 -0.0334 -0.5246
 7067TIP3   OH242615   2.042   0.525  13.112  0.3403 -0.1578 -0.3465
 7067TIP3    H142616   2.046   0.457  13.179  1.6338 -0.3606 -0.6129
 7067TIP3    H242617   2.063   0.480  13.030  1.5439  0.6019 -0.4796
 7068TIP3   OH242618   3.315   1.958   2.974  0.4416 -0.1651  0.3928
 7068TIP3    H142619   3.291   2.006   3.054  0.5995 -1.5485  1.3153
 7068TIP3    H242620   3.260   1.879   2.977  2.2491 -1.4790  0.4877
 7069TIP3   OH242621   3.787   3.711   1.173  0.1492 -0.0605  0.5841
 7069TIP3    H142622   3.753   3.633   1.128  3.0997 -1.1813  0.0830
 7069TIP3    H242623   3.812   3.770   1.102 -0.1275  0.4588  0.9170
 7070TIP3   OH242624   6.277   6.474  11.820  0.1239  0.4036  0.2567
 7070TIP3    H142625   6.202   6.429  11.859  0.2398  0.2659  0.3210
 7070TIP3    H242626   6.256   6.480  11.727  0.5673 -0.6985  0.0730
 7071TIP3   OH242627   5.002   1.414   5.159 -0.0078 -0.4017  0.0063
 7071TIP3    H142628   4.920   1.395   5.205 -1.5210  0.8834 -1.9642
 7071TIP3    H242629   5.071   1.399   5.224 -1.9034  0.1451  2.2691
 7072TIP3   OH242630   3.728   0.059  14.779  0.0761 -0.1630  0.4204
 7072TIP3    H142631   3.663   0.010  14.829  0.0516 -0.8927 -0.3133
 7072TIP3    H242632   3.735   0.013  14.695  0.7326  0.5467  0.0638
 7073TIP3   OH242633   0.047   5.079  16.940 -0.4737 -0.1410  0.6203
 7073TIP3    H142634  -0.022   5.050  16.881  0.9131 -0.7016 -0.7938
 7073TIP3    H242635   0.004   5.090  17.025 -1.9422 -2.0917  0.1854
 7074TIP3   OH242636   3.775   2.594   0.516 -0.3074  0.1696  0.0552
 7074TIP3    H142637   3.775   2.676   0.565 -0.3711  0.9551 -1.1956
 7074TIP3    H242638   3.861   2.556   0.531 -0.2129  0.5533  0.5017
 7075TIP3   OH242639   0.656   6.134  12.572  0.6621  0.1948 -0.4553
 7075TIP3    H142640   0.714   6.066  12.607 -0.4482 -0.0889  0.8962
 7075TIP3    H242641   0.585   6.086  12.529  0.9576  0.5411 -1.3652
 7076TIP3   OH242642   0.206   3.868  12.775 -0.0973 -0.7867 -0.3810
 7076TIP3    H142643   0.208   3.890  12.868 -2.2259  1.7340 -0.8023
 7076TIP3    H242644   0.268   3.795  12.765  1.5402  0.0486  2.6645
 7077TIP3   OH242645   6.577   1.457   6.100 -0.3506 -0.1647 -0.1260
 7077TIP3    H142646   6.603   1.525   6.163 -0.8289 -0.4604  0.4045
 7077TIP3    H242647   6.622   1.378   6.129  0.9170  0.1140 -1.2718
 7078TIP3   OH242648   5.805   0.931  11.013  0.0426 -0.1319 -0.0793
 7078TIP3    H142649   5.730   0.972  10.969  0.0174  0.9194  0.9063
 7078TIP3    H242650   5.785   0.937  11.106  0.0565 -2.4148  0.1073
 7079TIP3   OH242651   4.811   6.225   2.200  0.3299  0.3930 -0.3450
 7079TIP3    H142652   4.810   6.296   2.136 -0.3361 -0.0545 -0.8504
 7079TIP3    H242653   4.829   6.146   2.148 -2.3683 -0.3030 -0.3758
 7080TIP3   OH242654   6.553   0.118  12.225  0.4319  1.1681 -0.1077
 7080TIP3    H142655   6.609   0.059  12.175  0.5226  1.5723 -0.4957
 7080TIP3    H242656   6.464   0.094  12.199  0.4693  1.2091 -0.2781
 7081TIP3   OH242657   5.636   1.185  11.154  0.1260  0.0505  1.4242
 7081TIP3    H142658   5.540   1.184  11.149  0.0994  2.4852  0.1198
 7081TIP3    H242659   5.665   1.168  11.065  0.8855  0.5322  1.5694
 7082TIP3   OH242660   1.824   0.922  11.028 -0.4057 -0.5524  0.2277
 7082TIP3    H142661   1.754   0.984  11.010  0.5254  0.5069  0.1490
 7082TIP3    H242662   1.894   0.945  10.967 -0.0967 -1.7912  0.0812
 7083TIP3   OH242663   5.496   5.785  14.124  0.0113  0.1462 -0.0067
 7083TIP3    H142664   5.575   5.814  14.078 -0.0572 -0.7880 -0.7498
 7083TIP3    H242665   5.514   5.694  14.147 -0.7531  0.0092  0.0541
 7084TIP3   OH242666   6.137   3.920  16.631 -0.2303  0.3392 -0.4674
 7084TIP3    H142667   6.185   3.970  16.564  1.4397  0.6678  0.8849
 7084TIP3    H242668   6.203   3.901  16.698 -1.5482 -1.0727  0.4978
 7085TIP3   OH242669   1.236   3.251  12.601  0.2365  0.0816  0.2701
 7085TIP3    H142670   1.167   3.260  12.535  2.0613  0.6123 -1.6803
 7085TIP3    H242671   1.253   3.340  12.630  0.9318  0.1094 -0.1944
 7086TIP3   OH242672   6.648   4.535   5.585 -0.6453  0.3877 -0.1378
 7086TIP3    H142673   6.646   4.609   5.645 -2.1484  0.4895 -0.2571
 7086TIP3    H242674   6.717   4.556   5.522  0.0735  0.8792  0.7918
 7087TIP3   OH242675   5.492   1.724  16.703 -0.6146  0.3421  0.1294
 7087TIP3    H142676   5.563   1.670  16.736 -1.5195 -1.0348 -0.1019
 7087TIP3    H242677   5.443   1.749  16.782 -0.3431  0.6182  0.2123
 7088TIP3   OH242678   4.888   0.293   2.881  0.4863 -0.0003  0.1106
 7088TIP3    H142679   4.837   0.356   2.931  0.3268 -2.0816  2.8275
 7088TIP3    H242680   4.979   0.318   2.896  0.4161  1.3246 -1.4036
 7089TIP3   OH242681   4.595   3.985  16.213 -0.6422 -0.3868 -0.1623
 7089TIP3    H142682   4.590   3.900  16.168  1.4168 -0.6724  0.0309
 7089TIP3    H242683   4.565   3.966  16.302 -2.0716 -0.4440 -0.6335
 7090TIP3   OH242684   6.291   1.680  12.440  0.3116  0.2326  0.4602
 7090TIP3    H142685   6.374   1.631  12.441  1.3656  1.8125 -1.5572
 7090TIP3    H242686   6.289   1.726  12.523  1.2387 -0.1669  0.7188
 7091TIP3   OH242687   3.774   0.821   4.739  0.3840 -0.4885 -0.4218
 7091TIP3    H142688   3.832   0.750   4.713  0.0493 -1.1218  0.5060
 7091TIP3    H242689   3.692   0.777   4.764 -0.2185  0.3161 -0.9104
 7092TIP3   OH242690   2.508   0.348   5.626 -0.0324 -0.2637  0.1619
 7092TIP3    H142691   2.493   0.407   5.552  3.1444 -1.7842 -1.9126
 7092TIP3    H242692   2.555   0.401   5.690 -0.2911  0.3355 -0.1355
 7093TIP3   OH242693   3.824   3.251   0.424 -0.3458  0.1141 -0.0600
 7093TIP3    H142694   3.894   3.244   0.489 -0.3125  1.6112  0.0919
 7093TIP3    H242695   3.785   3.337   0.438 -1.1272 -0.0136 -1.2370
 7094TIP3   OH242696   3.404   2.371  17.153 -0.2712  0.1110 -0.0585
 7094TIP3    H142697   3.329   2.347  17.099 -1.6653  0.5464  1.6142
 7094TIP3    H242698   3.447   2.288  17.174 -2.0074 -0.4660  1.3810
 7095TIP3   OH242699   3.977   4.440  12.936  0.3370  0.2490 -0.1770
 7095TIP3    H142700   3.906   4.486  12.981  0.1914 -1.2711  1.2864
 7095TIP3    H242701   3.933   4.380  12.876  0.3569 -0.6181  0.6529
 7096TIP3   OH242702   2.216   0.253   3.535  0.6426  0.3817 -0.0711
 7096TIP3    H142703   2.252   0.298   3.459  0.3923  1.0094  0.1751
 7096TIP3    H242704   2.256   0.296   3.610  0.4521  0.1485  0.1676
 7097TIP3   OH242705   0.709   4.076   0.211 -0.3287  0.3538 -0.6267
 7097TIP3    H142706   0.801   4.049   0.209 -0.6192 -0.7079 -0.2388
 7097TIP3    H242707   0.694   4.102   0.303 -0.0594  1.9002 -0.9825
 7098TIP3   OH242708   1.747   2.145  15.026  0.0583 -0.0364 -0.6936
 7098TIP3    H142709   1.768   2.233  14.997 -0.5138 -0.2947 -1.9545
 7098TIP3    H242710   1.669   2.121  14.976 -2.4419  0.3264  2.6482
 7099TIP3   OH242711   1.110   6.682   3.059  0.3279  0.1943 -0.5996
 7099TIP3    H142712   1.140   6.731   2.983  1.0985  0.3386 -0.2160
 7099TIP3    H242713   1.058   6.745   3.110  0.1957  0.2266 -0.7740
 7100TIP3   OH242714   5.680   2.460   3.799  0.3315 -0.0231 -0.7047
 7100TIP3    H142715   5.674   2.546   3.758  1.4150 -0.8144 -2.6383
 7100TIP3    H242716   5.600   2.415   3.771  0.4057 -0.1026 -0.7869
 7101TIP3   OH242717   2.482   5.043   6.189  0.4239  0.4268 -0.3801
 7101TIP3    H142718   2.421   5.066   6.119 -1.9694 -2.9757  0.3435
 7101TIP3    H242719   2.446   5.085   6.267  0.4485  0.4724 -0.3933
 7102TIP3   OH242720   0.908   5.409  16.279 -0.0649  0.2255  0.0830
 7102TIP3    H142721   0.879   5.363  16.358 -1.1230 -0.3476 -0.6071
 7102TIP3    H242722   0.838   5.471  16.260 -1.6146 -2.0088 -2.2957
 7103TIP3   OH242723   6.299   5.868   1.860  0.5287 -0.1756 -0.1828
 7103TIP3    H142724   6.286   5.810   1.784 -0.1038 -0.8614  0.4309
 7103TIP3    H242725   6.348   5.814   1.923  0.5254  0.1859  0.1299
 7104TIP3   OH242726   1.407   0.936   5.611  0.2370 -0.1894  0.1544
 7104TIP3    H142727   1.497   0.907   5.623  1.4107  1.8197 -2.5303
 7104TIP3    H242728   1.413   1.032   5.607 -1.9497 -0.0155 -0.5347
 7105TIP3   OH242729   4.362   5.288  10.849 -0.4218 -0.4816  0.3035
 7105TIP3    H142730   4.343   5.286  10.755  0.9951 -0.6753  0.0007
 7105TIP3    H242731   4.311   5.216  10.886  0.8986 -2.0138 -0.7160
 7106TIP3   OH242732   3.614   4.471  14.879 -0.4594 -0.1552  0.0637
 7106TIP3    H142733   3.616   4.383  14.915 -0.0681  0.7751  2.4863
 7106TIP3    H242734   3.523   4.500  14.891 -0.7157 -0.3608 -1.1905
 7107TIP3   OH242735   6.524   3.525   2.932  0.3029 -0.6421  0.5193
 7107TIP3    H142736   6.457   3.543   2.866 -1.7612  0.0677  2.6461
 7107TIP3    H242737   6.531   3.429   2.933  1.1850 -0.6308 -1.4213
 7108TIP3   OH242738   1.879   4.776  16.896  0.5108  0.2796 -0.4997
 7108TIP3    H142739   1.840   4.832  16.963  0.9013  0.5448 -0.4921
 7108TIP3    H242740   1.840   4.805  16.814  0.1575  0.0661 -0.4064
 7109TIP3   OH242741   6.665   5.559   3.653 -0.2406 -0.0913 -0.2257
 7109TIP3    H142742   6.614   5.583   3.575  1.0458 -1.1879 -1.4674
 7109TIP3    H242743   6.753   5.545   3.620  0.8406  1.4234  1.8098
 7110TIP3   OH242744   0.075   2.921  13.713 -0.6472  0.0322 -0.1174
 7110TIP3    H142745   0.004   2.884  13.660 -0.7519 -1.8182  1.2028
 7110TIP3    H242746   0.139   2.952  13.650 -1.7702 -0.0116 -1.3232
 7111TIP3   OH242747   5.409   2.802   2.948  0.0771 -0.9036  0.1240
 7111TIP3    H142748   5.500   2.827   2.934  0.1483 -1.4216 -0.3621
 7111TIP3    H242749   5.359   2.883   2.931  0.4654 -0.5181  0.7824
 7112TIP3   OH242750   4.844   1.908   4.330 -0.5423 -0.6733  0.1263
 7112TIP3    H142751   4.835   1.852   4.253 -0.1462 -1.5826  0.7161
 7112TIP3    H242752   4.856   1.846   4.403 -0.1893  0.1804  0.8109
 7113TIP3   OH242753   3.783   1.046  11.327  0.2454 -0.2307  0.5275
 7113TIP3    H142754   3.761   1.126  11.375  2.4588  1.1732 -0.6139
 7113TIP3    H242755   3.736   1.054  11.244  2.2790  1.1475 -0.5663
 7114TIP3   OH242756   4.685   1.607   5.613 -0.2440 -0.0984 -0.3421
 7114TIP3    H142757   4.725   1.689   5.584 -0.2720  0.7183  1.7393
 7114TIP3    H242758   4.605   1.634   5.657 -0.7331 -1.3356 -0.4438
 7115TIP3   OH242759   5.377   0.993  15.607 -0.2517  0.2626  0.1479
 7115TIP3    H142760   5.338   1.077  15.586 -0.6832  0.5342  1.8522
 7115TIP3    H242761   5.340   0.932  15.543  0.7915  1.4956 -1.7010
 7116TIP3   OH242762   2.571   1.136  13.197  0.3809 -0.1878  0.5290
 7116TIP3    H142763   2.594   1.221  13.233 -0.3723 -0.3584  1.4503
 7116TIP3    H242764   2.548   1.153  13.105 -0.1161  0.6596  0.8045
 7117TIP3   OH242765   1.240   1.945   1.734  0.4428 -0.5420 -0.2433
 7117TIP3    H142766   1.187   1.889   1.678 -1.8456 -1.9877  3.0457
 7117TIP3    H242767   1.189   2.026   1.743 -1.4411 -1.8646  2.7757
 7118TIP3   OH242768   0.890   5.034  13.163  0.2128 -0.0332  0.6026
 7118TIP3    H142769   0.866   5.071  13.078 -0.6606 -1.0882  0.3676
 7118TIP3    H242770   0.819   5.062  13.222 -0.1663 -0.8272  0.5453
 7119TIP3   OH242771   5.594   6.331   0.424 -0.3082 -0.6628 -0.4229
 7119TIP3    H142772   5.567   6.383   0.348 -0.3055 -1.1889 -0.7876
 7119TIP3    H242773   5.680   6.365   0.447 -0.4120 -0.3398 -0.5057
 7120TIP3   OH242774   2.539   4.949   0.185  0.0820  0.0811 -0.6315
 7120TIP3    H142775   2.598   5.024   0.176 -0.7990  0.6474 -2.1059
 7120TIP3    H242776   2.566   4.907   0.266  0.3077  2.2889  0.5367
 7121TIP3   OH242777   0.253   1.194   2.893  0.2405  0.2047  0.4943
 7121TIP3    H142778   0.211   1.271   2.856  0.3331 -0.6650 -1.6104
 7121TIP3    H242779   0.339   1.225   2.922 -0.0937  1.0738  0.5687
 7122TIP3   OH242780   5.403   3.001   0.628 -0.0989 -0.3486 -0.1535
 7122TIP3    H142781   5.433   2.910   0.634  0.1193 -0.2825 -0.2494
 7122TIP3    H242782   5.393   3.017   0.535 -2.5816 -1.0704 -0.0711
 7123TIP3   OH242783   4.470   3.781   0.156 -0.1165 -0.4552  0.2739
 7123TIP3    H142784   4.558   3.783   0.118 -0.0945 -2.3756  0.1206
 7123TIP3    H242785   4.449   3.873   0.174  0.2935  0.4835 -3.3861
 7124TIP3   OH242786   1.343   2.399   2.235 -0.0268 -0.0217 -0.1400
 7124TIP3    H142787   1.367   2.490   2.214 -0.0257 -0.2121 -0.9824
 7124TIP3    H242788   1.417   2.347   2.205  0.5042 -0.2259  1.4062
 7125TIP3   OH242789   1.702   4.345  12.633 -0.4313 -0.3881 -0.4292
 7125TIP3    H142790   1.670   4.373  12.719  1.2774 -2.4952  1.0170
 7125TIP3    H242791   1.791   4.381  12.629 -0.8565  0.5880 -1.8461
 7126TIP3   OH242792   5.448   5.291   3.943 -0.3310  0.8729  0.2380
 7126TIP3    H142793   5.423   5.234   4.015  0.2852  0.5166  0.1764
 7126TIP3    H242794   5.372   5.347   3.928 -0.2202  1.4253  1.6258
 7127TIP3   OH242795   3.029   6.030   0.975  0.1633 -0.3819  0.6978
 7127TIP3    H142796   3.038   6.082   1.055 -0.2131  1.0271 -0.1361
 7127TIP3    H242797   3.114   6.040   0.931 -0.0119 -0.2230  0.3949
 7128TIP3   OH242798   5.067   0.777  12.222  0.6115  0.4218  0.0120
 7128TIP3    H142799   5.024   0.775  12.136 -0.2863  1.3953  0.4144
 7128TIP3    H242800   5.158   0.757  12.203  0.4498  0.7193 -1.1939
 7129TIP3   OH242801   5.144   6.478  12.519  0.0564  0.2810  0.2942
 7129TIP3    H142802   5.162   6.443  12.606 -0.2349 -0.6675 -0.0137
 7129TIP3    H242803   5.053   6.454  12.502 -0.5899  2.3386  0.5898
 7130TIP3   OH242804   5.461   0.828  14.049 -0.4417  0.1542 -0.3299
 7130TIP3    H142805   5.370   0.817  14.077 -0.4636  0.7027 -0.1659
 7130TIP3    H242806   5.484   0.745  14.008 -1.5878  0.6126 -1.9888
 7131TIP3   OH242807   3.279   3.385   0.911  0.1548 -0.0222  0.3867
 7131TIP3    H142808   3.188   3.356   0.920  0.2059 -0.1652  0.4403
 7131TIP3    H242809   3.320   3.364   0.994  0.9100 -2.3791 -0.4859
 7132TIP3   OH242810   5.116   0.926  12.742  0.0524 -0.1940  0.0230
 7132TIP3    H142811   5.171   0.965  12.674  0.2451 -1.5213 -0.6214
 7132TIP3    H242812   5.136   0.976  12.821  3.1748 -1.3974  0.1450
 7133TIP3   OH242813   3.726   5.979   1.265 -0.3348  0.0494 -0.0219
 7133TIP3    H142814   3.757   6.032   1.339 -0.0248 -0.9910  0.6161
 7133TIP3    H242815   3.632   5.994   1.262 -0.3720 -0.0361  0.6916
 7134TIP3   OH242816   1.457   2.084   4.274  0.4818 -0.0190 -0.4858
 7134TIP3    H142817   1.544   2.124   4.279  0.9802 -1.1840  2.2432
 7134TIP3    H242818   1.455   2.041   4.188  1.8315  1.6215 -1.3951
 7135TIP3   OH242819   4.684   0.302   5.805  0.1373 -0.3519 -0.2616
 7135TIP3    H142820   4.775   0.323   5.828  0.0694 -3.1213  3.5895
 7135TIP3    H242821   4.687   0.210   5.777 -1.3449 -0.0192 -1.6837
 7136TIP3   OH242822   4.117   0.313   6.126  0.1183 -0.2004  0.4522
 7136TIP3    H142823   4.076   0.262   6.056 -0.3407  1.0681 -0.2355
 7136TIP3    H242824   4.118   0.403   6.094  2.0578  0.0702  1.1064
 7137TIP3   OH242825   5.259   1.000   2.282  0.8050 -0.0309 -0.8946
 7137TIP3    H142826   5.300   0.927   2.329 -0.8096  0.1758  0.9617
 7137TIP3    H242827   5.300   1.078   2.320  0.9819  0.0889 -1.3318
 7138TIP3   OH242828   6.204   1.241  16.320  0.0649 -0.3439  0.1937
 7138TIP3    H142829   6.268   1.171  16.331 -0.4413 -1.0786 -1.2832
 7138TIP3    H242830   6.254   1.313  16.282  0.4702 -0.0789  1.1932
 7139TIP3   OH242831   3.400   1.717  11.772  0.1836  0.1318  0.5049
 7139TIP3    H142832   3.448   1.700  11.853 -0.4363 -0.8491  0.6950
 7139TIP3    H242833   3.449   1.671  11.705  1.4046  1.9775  0.0569
 7140TIP3   OH242834   1.341   4.250   1.886 -0.0889 -0.3273  0.6819
 7140TIP3    H142835   1.350   4.310   1.961  0.9723 -0.4843  0.6949
 7140TIP3    H242836   1.394   4.174   1.910  2.5533  0.7511 -1.3526
 7141TIP3   OH242837   4.815   5.295   1.124 -0.7179 -0.8923  0.4912
 7141TIP3    H142838   4.742   5.356   1.116 -1.6672 -2.0331  0.0964
 7141TIP3    H242839   4.786   5.232   1.190 -0.1178 -1.3886  0.2898
 7142TIP3   OH242840   1.491   2.624   3.728  0.3209 -0.2366 -0.4923
 7142TIP3    H142841   1.567   2.635   3.786  0.3230  2.2583 -0.8619
 7142TIP3    H242842   1.422   2.591   3.785  1.0920 -0.5647  0.2866
 7143TIP3   OH242843   3.936   6.260  16.493 -0.4170  0.2044  0.1293
 7143TIP3    H142844   3.924   6.260  16.588 -1.9496 -0.2977 -0.0254
 7143TIP3    H242845   3.955   6.169  16.471  0.3797  0.3986 -0.0119
 7144TIP3   OH242846   2.178   4.035  13.011 -0.4985 -0.0021 -0.2603
 7144TIP3    H142847   2.108   3.972  12.992 -1.4694  0.7063  0.7863
 7144TIP3    H242848   2.131   4.117  13.030  0.5416  0.2556  1.4161
 7145TIP3   OH242849   5.085   3.051   0.452  0.3279 -0.2285  0.0043
 7145TIP3    H142850   5.173   3.081   0.426  0.6544 -0.0833  1.2437
 7145TIP3    H242851   5.100   2.972   0.503 -0.2985 -0.3915 -0.0548
 7146TIP3   OH242852   5.664   1.604   3.146 -0.3599  0.3978  0.4492
 7146TIP3    H142853   5.669   1.639   3.235  0.3530 -0.2211  0.6667
 7146TIP3    H242854   5.666   1.680   3.089 -1.6548  0.8551  0.9764
 7147TIP3   OH242855   0.258   6.522  16.302 -0.2746  0.5871 -0.4064
 7147TIP3    H142856   0.188   6.574  16.264 -0.0428  0.8088 -0.5355
 7147TIP3    H242857   0.237   6.432  16.278 -0.1787  0.7148 -0.9894
 7148TIP3   OH242858   5.506   0.835  15.390 -0.5087 -0.0697 -0.4039
 7148TIP3    H142859   5.411   0.848  15.385 -0.5371 -0.4188 -0.8465
 7148TIP3    H242860   5.521   0.753  15.344 -0.4313 -2.2457  3.1691
 7149TIP3   OH242861   1.533   0.898   2.925  0.0222  0.1236 -0.2049
 7149TIP3    H142862   1.492   0.934   3.003 -0.8237 -1.0032 -0.1025
 7149TIP3    H242863   1.460   0.875   2.867  0.5488 -0.7698 -0.5403
 7150TIP3   OH242864   0.086   0.827   4.660 -0.3436  0.1827 -0.1671
 7150TIP3    H142865   0.001   0.866   4.680  0.7784  1.7545  2.0677
 7150TIP3    H242866   0.096   0.757   4.724  0.3952  0.6054  0.1944
 7151TIP3   OH242867   4.684   0.028  12.067  0.1837 -0.1928  0.2031
 7151TIP3    H142868   4.774  -0.001  12.055 -0.0518 -1.3934  1.0784
 7151TIP3    H242869   4.655   0.057  11.981  1.4176  0.2607 -0.0693
 7152TIP3   OH242870   1.487   2.327   4.757 -0.0182  0.4971  0.2868
 7152TIP3    H142871   1.546   2.264   4.798 -1.6245 -0.7563  0.7841
 7152TIP3    H242872   1.483   2.400   4.818 -1.7100 -0.9736  2.0584
 7153TIP3   OH242873   5.371   0.541  12.527  0.8005 -1.1184 -0.2391
 7153TIP3    H142874   5.353   0.586  12.610  0.0162  0.9863 -1.4606
 7153TIP3    H242875   5.445   0.484  12.546  1.2964  0.0774  1.6820
 7154TIP3   OH242876   0.723   3.713   3.817 -0.5111  0.1552 -0.2285
 7154TIP3    H142877   0.730   3.805   3.789  0.0834 -0.0855 -0.8829
 7154TIP3    H242878   0.726   3.717   3.913 -0.6927  0.8319 -0.2423
 7155TIP3   OH242879   4.441   0.394  16.734  0.1726 -0.0792  0.1633
 7155TIP3    H142880   4.421   0.413  16.642 -0.3527 -0.1263  0.2649
 7155TIP3    H242881   4.364   0.347  16.766  1.0340 -1.5723  0.1770
 7156TIP3   OH242882   3.405   4.279   1.497  0.0739 -0.4585  0.8387
 7156TIP3    H142883   3.315   4.296   1.467  0.7925  0.9293 -0.6592
 7156TIP3    H242884   3.411   4.183   1.497 -0.7923 -0.5800 -1.0985
 7157TIP3   OH242885   2.290   5.096   2.923  0.3427  0.4426 -0.3753
 7157TIP3    H142886   2.203   5.111   2.887  0.4357 -0.8243 -1.1904
 7157TIP3    H242887   2.348   5.102   2.847  1.0047  1.4785  0.1879
 7158TIP3   OH242888   1.049   5.427   5.052  0.2201 -0.3617 -0.1892
 7158TIP3    H142889   1.094   5.445   5.135  0.7758 -0.8748 -0.3788
 7158TIP3    H242890   1.001   5.508   5.034  0.7504  0.0527  0.2120
 7159TIP3   OH242891   5.714   2.487   5.203  0.0603 -0.0034 -0.2643
 7159TIP3    H142892   5.662   2.545   5.258 -0.7052  0.9968 -1.9314
 7159TIP3    H242893   5.694   2.399   5.234  0.4679  0.5570  1.6771
 7160TIP3   OH242894   2.828   2.175   4.566  0.1665 -0.6845 -0.2273
 7160TIP3    H142895   2.878   2.222   4.633  1.2913 -2.4400  0.2372
 7160TIP3    H242896   2.749   2.228   4.553  1.4453  1.4071  0.0911
 7161TIP3   OH242897   5.716   6.009   0.751  0.3608 -0.2263  0.1952
 7161TIP3    H142898   5.718   5.934   0.811  1.7077 -0.9856 -0.7372
 7161TIP3    H242899   5.629   6.008   0.713  0.4086 -1.4196  0.0918
 7162TIP3   OH242900   4.249   4.445   0.180 -0.1102 -0.1262 -0.1658
 7162TIP3    H142901   4.305   4.458   0.103 -0.9766  1.0935 -0.6213
 7162TIP3    H242902   4.220   4.354   0.173  0.5621 -0.3066 -0.7591
 7163TIP3   OH242903   6.220   0.976   3.319  0.1579 -0.2327  0.0393
 7163TIP3    H142904   6.179   1.025   3.391 -2.1509  0.1631 -1.4599
 7163TIP3    H242905   6.185   0.888   3.328  0.7407 -0.4648  0.0385
 7164TIP3   OH242906   1.054   2.633   5.571 -0.0141  0.1369 -0.3989
 7164TIP3    H142907   1.148   2.614   5.563 -0.1288 -0.5579 -0.2334
 7164TIP3    H242908   1.020   2.557   5.619 -0.7663  0.0864 -1.0056
 7165TIP3   OH242909   2.574   2.855   5.345 -0.2387 -0.0885  0.7872
 7165TIP3    H142910   2.548   2.926   5.286 -2.8337 -1.0539  0.6186
 7165TIP3    H242911   2.551   2.888   5.432 -0.4252 -0.2898  0.8144
 7166TIP3   OH242912   4.479   0.252   5.140 -0.7585  0.9001  0.1176
 7166TIP3    H142913   4.449   0.203   5.063  1.0402  0.1951 -0.1764
 7166TIP3    H242914   4.417   0.228   5.209 -0.3751 -1.2170 -0.2266
 7167TIP3   OH242915   3.465   4.132   1.246  0.0931 -0.4202  0.2541
 7167TIP3    H142916   3.494   4.218   1.215  0.5016 -0.6720 -0.0778
 7167TIP3    H242917   3.521   4.114   1.322  0.5168 -0.7116 -0.1196
 7168TIP3   OH242918   2.379   3.886   0.012  0.7709  0.3950  0.0256
 7168TIP3    H142919   2.422   3.886   0.097  1.3089  0.4186 -0.2445
 7168TIP3    H242920   2.450   3.876  -0.051  0.4034  0.6587 -0.4365
 7169TIP3   OH242921   1.288   3.901   0.275  0.2089  0.7154  0.6178
 7169TIP3    H142922   1.311   3.910   0.183  3.5945 -0.8817  1.1517
 7169TIP3    H242923   1.365   3.931   0.323 -1.7914  2.3969  3.0351
 7170TIP3   OH242924   2.547   0.097  14.381 -0.2898  0.0603  0.6438
 7170TIP3    H142925   2.541   0.006  14.351 -1.0163  0.6963 -1.2487
 7170TIP3    H242926   2.457   0.121  14.402 -0.5882  1.1820 -1.6299
 7171TIP3   OH242927   6.633   2.373  13.242 -0.1042  0.2903 -0.4936
 7171TIP3    H142928   6.550   2.332  13.218  0.7407 -0.7224 -1.8427
 7171TIP3    H242929   6.694   2.300  13.252  0.2764  0.8767  2.1607
 7172TIP3   OH242930   2.280   0.580  15.259 -0.5925 -0.2356 -0.5239
 7172TIP3    H142931   2.215   0.639  15.296 -0.5828  0.7009 -1.9173
 7172TIP3    H242932   2.257   0.575  15.166  1.2996  0.1050 -1.0517
 7173TIP3   OH242933   6.186   0.278   1.683  0.1180  0.5555  0.1005
 7173TIP3    H142934   6.094   0.263   1.662  0.2626  1.8724 -1.6927
 7173TIP3    H242935   6.225   0.191   1.683 -0.7735  0.1368 -1.0207
 7174TIP3   OH242936   6.333   1.235   2.745 -0.5691 -0.0737 -0.1306
 7174TIP3    H142937   6.350   1.141   2.758  1.4119  0.1680 -0.7417
 7174TIP3    H242938   6.319   1.244   2.651  0.0123  0.3568 -0.1770
 7175TIP3   OH242939   2.469   6.063   1.314  0.2980 -0.3377 -0.5636
 7175TIP3    H142940   2.391   6.024   1.353  0.0465 -0.5964 -1.3107
 7175TIP3    H242941   2.435   6.131   1.255  0.5986 -0.8868 -1.3834
 7176TIP3   OH242942   0.339   2.995   3.251 -0.0794 -0.4870  0.4322
 7176TIP3    H142943   0.369   3.028   3.335  1.8347 -0.1843 -0.3080
 7176TIP3    H242944   0.244   3.001   3.254 -0.0616 -0.7389  2.6507
 7177TIP3   OH242945   5.744   5.075   2.654  0.1154  0.4647  0.2917
 7177TIP3    H142946   5.721   5.132   2.580 -0.8286  0.9834  0.9614
 7177TIP3    H242947   5.794   5.003   2.614 -1.5770 -0.0237 -1.0630
 7178TIP3   OH242948   1.852   4.137  10.633  0.0063  0.4111  0.3434
 7178TIP3    H142949   1.818   4.159  10.719 -0.3066  0.4859  0.2025
 7178TIP3    H242950   1.823   4.209  10.577 -1.8394 -0.7919 -0.3320
 7179TIP3   OH242951   4.233   6.261  17.247  0.1595  0.6879  0.2601
 7179TIP3    H142952   4.208   6.275  17.338  0.9424 -0.7012  0.7152
 7179TIP3    H242953   4.165   6.202  17.212  1.0906 -0.6417  0.6311
 7180TIP3   OH242954   4.567   0.560   5.111 -0.2024  0.2754 -0.0754
 7180TIP3    H142955   4.523   0.481   5.142 -0.6329  0.9615  1.1388
 7180TIP3    H242956   4.509   0.597   5.045 -0.2984 -0.0710 -0.1877
 7181TIP3   OH242957   2.401   0.597   3.171 -0.3776 -0.8872 -0.0737
 7181TIP3    H142958   2.448   0.602   3.087  0.3764 -0.3550  0.3734
 7181TIP3    H242959   2.392   0.688   3.198 -0.0369 -1.0919  0.7433
 7182TIP3   OH242960   6.763   0.259   2.046  0.7062 -0.3107 -0.8374
 7182TIP3    H142961   6.793   0.209   2.122 -0.8865  0.1071  0.1177
 7182TIP3    H242962   6.670   0.241   2.040 -0.1880  3.1715  0.1179
 7183TIP3   OH242963   5.930   3.420   1.056  0.1235  0.8198 -0.0809
 7183TIP3    H142964   5.949   3.376   0.973 -3.1425 -0.1040 -0.4797
 7183TIP3    H242965   5.995   3.490   1.062  2.6880 -1.2607 -1.6299
 7184TIP3   OH242966   2.188   2.935   1.514  0.5541 -0.1763 -0.1060
 7184TIP3    H142967   2.223   2.998   1.577  0.1472  2.3241 -2.2047
 7184TIP3    H242968   2.111   2.897   1.557  0.8644  0.6822  1.2610
 7185TIP3   OH242969   3.794   6.029  10.627 -0.2724 -0.1763 -0.5568
 7185TIP3    H142970   3.827   5.983  10.704 -0.5640  0.5556  0.0064
 7185TIP3    H242971   3.700   6.040  10.644 -0.4665 -0.5660 -1.3037
 7186TIP3   OH242972   6.384   0.810  16.928 -0.1410  0.8439  0.2524
 7186TIP3    H142973   6.438   0.732  16.938 -1.9641 -0.2975  2.2263
 7186TIP3    H242974   6.444   0.878  16.897  1.7009 -1.0809 -0.6214
 7187TIP3   OH242975   4.920   0.425   1.709 -0.3169 -0.5816 -0.1196
 7187TIP3    H142976   4.889   0.335   1.698  0.4679 -0.9836  0.7785
 7187TIP3    H242977   4.842   0.479   1.695 -0.8773 -1.4151 -0.3123
 7188TIP3   OH242978   4.752   2.105   4.600  0.1376  0.0700  0.4189
 7188TIP3    H142979   4.841   2.139   4.600  0.0331  0.3731  1.4264
 7188TIP3    H242980   4.755   2.030   4.540  0.9369  0.3863  0.0457
 7189TIP3   OH242981   0.467   0.841   2.925  0.2107  0.3348 -0.1432
 7189TIP3    H142982   0.482   0.869   2.835 -1.0015 -0.8325 -0.7368
 7189TIP3    H242983   0.468   0.922   2.976  0.0939  1.0977 -1.3219
 7190TIP3   OH242984   5.577   1.478   4.641  0.3220  0.1922 -0.0976
 7190TIP3    H142985   5.591   1.505   4.732 -0.2910  0.3381 -0.0387
 7190TIP3    H242986   5.594   1.384   4.641 -0.5343  0.0255  0.3675
 7191TIP3   OH242987   1.975   5.157   2.241  0.4933  0.3740 -0.4597
 7191TIP3    H142988   1.893   5.200   2.216 -0.4455 -1.0341  0.0411
 7191TIP3    H242989   2.035   5.175   2.168 -0.1732  1.6151 -0.7304
 7192TIP3   OH242990   0.778   5.597   5.950 -0.1747  0.6291 -0.3463
 7192TIP3    H142991   0.713   5.624   6.015 -1.0838 -1.7321 -0.1697
 7192TIP3    H242992   0.733   5.607   5.866 -0.1606  0.6147 -0.3556
 7193TIP3   OH242993   5.498   2.615   4.852  0.2330 -0.1598  0.3975
 7193TIP3    H142994   5.418   2.662   4.875  0.0124 -0.2743 -0.1304
 7193TIP3    H242995   5.491   2.532   4.901 -2.2768 -2.3014 -3.1259
 7194TIP3   OH242996   3.132   2.671   4.849 -0.4973 -0.6627 -0.5308
 7194TIP3    H142997   3.136   2.583   4.812 -0.0944 -0.4429 -1.0289
 7194TIP3    H242998   3.082   2.662   4.930 -1.2444 -1.1863 -1.0453
 7195TIP3   OH242999   2.908   1.679   4.557 -0.2248  0.0992 -0.6132
 7195TIP3    H143000   3.001   1.697   4.568  0.4629 -3.5370  0.8939
 7195TIP3    H243001   2.895   1.593   4.596 -4.5456  1.0132  0.5045
 7196TIP3   OH243002   0.265   2.806  15.173  0.2222 -0.2487  0.6965
 7196TIP3    H143003   0.218   2.725  15.196 -0.8459  0.4686  1.0950
 7196TIP3    H243004   0.300   2.838  15.256 -0.3740  0.3210  0.7323
 7197TIP3   OH243005   5.499   1.570  16.976 -0.2575  0.0107  0.1752
 7197TIP3    H143006   5.577   1.537  17.021 -0.9596 -1.1457  0.5664
 7197TIP3    H243007   5.509   1.665  16.980  1.5877 -0.1046 -0.6023
 7198TIP3   OH243008   3.776   5.207  13.288  0.2130 -0.4578 -0.1026
 7198TIP3    H143009   3.710   5.146  13.254  1.1101 -1.2757 -0.4282
 7198TIP3    H243010   3.811   5.164  13.366  0.2604  0.0287  0.1443
 7199TIP3   OH243011   1.439   1.930  15.500  0.5811  0.4118 -0.2651
 7199TIP3    H143012   1.360   1.879  15.516  0.6114  0.6059  0.5199
 7199TIP3    H243013   1.407   2.016  15.473  0.5151  0.6402  0.5239
 7200TIP3   OH243014   5.262   0.182   2.614  0.3033  0.3014  0.0500
 7200TIP3    H143015   5.351   0.150   2.626  1.5964  2.7729 -1.9184
 7200TIP3    H243016   5.248   0.243   2.687 -0.1765 -0.6976  0.8330
 7201TIP3   OH243017   1.923   0.862   1.321 -0.0759  0.2719 -0.1071
 7201TIP3    H143018   1.948   0.954   1.316  1.6780 -0.0977  1.0647
 7201TIP3    H243019   2.006   0.814   1.323 -0.7934 -1.0900  3.0743
 7202TIP3   OH243020   4.748   0.110  12.440 -0.2944  0.7836  0.1373
 7202TIP3    H143021   4.825   0.058  12.464 -0.0745  1.4689  0.9805
 7202TIP3    H243022   4.679   0.046  12.426 -0.1269  0.2665  1.5081
 7203TIP3   OH243023   2.534   0.304  13.950 -0.5459 -0.1708 -0.0604
 7203TIP3    H143024   2.455   0.252  13.961 -0.7519  0.3924  1.4205
 7203TIP3    H243025   2.566   0.318  14.040  0.8535  0.1743 -0.5910
 7204TIP3   OH243026   3.055   1.850  17.011 -0.3232 -0.1574 -0.4986
 7204TIP3    H143027   3.001   1.787  16.964 -0.0255  0.3205 -1.5162
 7204TIP3    H243028   3.090   1.908  16.943  2.2341 -1.0087 -0.0153
 7205TIP3   OH243029   0.088   4.604   2.182  0.1180 -0.4590  0.0809
 7205TIP3    H143030   0.099   4.569   2.093  2.3230  2.2086 -0.8603
 7205TIP3    H243031   0.066   4.696   2.168 -0.1677 -0.1333  2.3493
 7206TIP3   OH243032   4.234   2.112   1.574  0.2723 -0.0299  0.7948
 7206TIP3    H143033   4.237   2.201   1.539 -1.6558 -0.8229 -1.6769
 7206TIP3    H243034   4.281   2.059   1.509 -0.5734 -1.1234  1.0451
 7207TIP3   OH243035   0.029   3.907  10.752 -0.5761 -0.2118 -0.1658
 7207TIP3    H143036   0.105   3.952  10.788 -0.1183  0.7908 -2.2672
 7207TIP3    H243037  -0.033   3.977  10.732 -1.1603 -0.8257 -0.5286
 7208TIP3   OH243038   4.337   5.256  15.330 -0.6330 -0.1303 -0.0833
 7208TIP3    H143039   4.273   5.278  15.261 -1.0125  0.5841  0.4788
 7208TIP3    H243040   4.392   5.334  15.337  0.4832 -0.8341 -0.7321
 7209TIP3   OH243041   2.832   6.684  12.203  0.3922 -0.0273 -0.0612
 7209TIP3    H143042   2.836   6.650  12.292 -0.0041 -1.2301 -0.4828
 7209TIP3    H243043   2.876   6.618  12.150 -0.6159 -0.0154 -0.9444
 7210TIP3   OH243044   3.303   2.933   2.909 -0.5311 -0.1635  0.1820
 7210TIP3    H143045   3.230   2.952   2.968 -1.7092  0.2271 -1.3552
 7210TIP3    H243046   3.267   2.946   2.821  1.8021  1.4886 -0.5976
 7211TIP3   OH243047   3.287   1.255   0.686  0.0280 -0.1878 -0.0704
 7211TIP3    H143048   3.280   1.209   0.602  0.3487  0.6505 -0.5644
 7211TIP3    H243049   3.361   1.214   0.730  0.5569  0.1071 -0.6724
 7212TIP3   OH243050   5.712   5.545  10.931 -0.1250  0.0004  0.3972
 7212TIP3    H143051   5.702   5.456  10.895 -0.1581 -0.1922  0.8707
 7212TIP3    H243052   5.633   5.591  10.905  0.1207  0.0464 -0.2836
 7213TIP3   OH243053   2.502   6.480   5.327  0.0404 -0.3171  0.2898
 7213TIP3    H143054   2.588   6.513   5.352 -0.2642  1.5687 -0.9343
 7213TIP3    H243055   2.440   6.542   5.365 -0.5495  0.7825 -2.2569
 7214TIP3   OH243056   1.465   0.095   5.744 -0.2582  0.6244  0.9908
 7214TIP3    H143057   1.445   0.004   5.767  0.5383 -0.0412 -0.7040
 7214TIP3    H243058   1.434   0.146   5.818 -0.9436 -1.0084  1.8954
 7215TIP3   OH243059   5.521   5.521  14.745  0.6493  0.5405  0.1491
 7215TIP3    H143060   5.572   5.576  14.686  0.6891 -1.0642 -1.4072
 7215TIP3    H243061   5.581   5.498  14.816  1.5598  0.1361 -0.7304
 7216TIP3   OH243062   4.048   4.499   2.166  0.1017  0.5232  0.3306
 7216TIP3    H143063   4.117   4.501   2.232  0.1924 -0.6444  0.3004
 7216TIP3    H243064   4.028   4.406   2.156  0.7249  0.5780 -1.9253
 7217TIP3   OH243065   3.830   2.109  12.827 -0.4031  0.2006 -0.4629
 7217TIP3    H143066   3.804   2.063  12.747 -0.0103  1.0481 -1.0801
 7217TIP3    H243067   3.753   2.159  12.852 -0.0143  1.2062 -1.2249
 7218TIP3   OH243068   1.448   5.299  14.831 -0.3557  0.2972  0.1686
 7218TIP3    H143069   1.523   5.285  14.773 -1.1958  0.1185 -0.9035
 7218TIP3    H243070   1.396   5.220  14.822 -0.6368  0.3773  0.9877
 7219TIP3   OH243071   6.778   1.054  11.472  0.1075 -0.2255 -0.0060
 7219TIP3    H143072   6.708   1.049  11.407 -0.1053 -1.5399  0.3000
 7219TIP3    H243073   6.819   1.139  11.457  0.3848 -0.6938 -2.2110
 7220TIP3   OH243074   5.756   1.385   4.398  0.4188  0.8005  0.2518
 7220TIP3    H143075   5.821   1.435   4.446  1.5477  0.1938 -0.5799
 7220TIP3    H243076   5.748   1.303   4.446  0.7127  0.6451  0.0423
 7221TIP3   OH243077   1.478   1.001  11.082  0.2583 -0.0415  0.2918
 7221TIP3    H143078   1.531   1.034  11.010  0.4785 -0.2298  0.3659
 7221TIP3    H243079   1.429   0.927  11.045  1.5032 -1.1086  0.7066
 7222TIP3   OH243080   0.230   1.757  16.201 -0.6843  0.1325 -0.7050
 7222TIP3    H143081   0.229   1.852  16.196 -2.0517  0.1728  0.0719
 7222TIP3    H243082   0.319   1.736  16.229 -0.7607  1.2732  0.4914
 7223TIP3   OH243083   5.035   0.458   3.097  0.1382  0.0208  0.0219
 7223TIP3    H143084   5.016   0.403   3.173 -0.2958 -0.2414 -0.2705
 7223TIP3    H243085   4.952   0.464   3.051  0.5879 -0.5017 -0.8777
 7224TIP3   OH243086   1.361   5.825  11.585  0.0084  0.2004 -0.1247
 7224TIP3    H143087   1.363   5.904  11.531  1.2980  0.1041 -0.2537
 7224TIP3    H243088   1.426   5.840  11.653  0.1836 -0.6950 -0.0773
 7225TIP3   OH243089   1.710   2.526  10.822  0.6400 -0.5141  0.1628
 7225TIP3    H143090   1.617   2.546  10.822  0.6383 -0.4580  1.2874
 7225TIP3    H243091   1.745   2.573  10.746 -0.2114 -0.3957 -0.1627
 7226TIP3   OH243092   4.035   2.300   4.724 -0.5085 -0.3098  0.1503
 7226TIP3    H143093   4.081   2.349   4.655 -0.2329  0.5151  0.9018
 7226TIP3    H243094   4.101   2.285   4.791 -1.2608  0.7409  1.1649
 7227TIP3   OH243095   5.241   1.998   2.397  0.1427 -0.3731 -0.2644
 7227TIP3    H143096   5.275   2.082   2.366 -0.7744 -0.0644 -0.4632
 7227TIP3    H243097   5.307   1.967   2.459  0.2708  0.7183  0.1642
 7228TIP3   OH243098   4.669   1.845   0.371  0.2439  0.3752 -0.0564
 7228TIP3    H143099   4.613   1.895   0.430  0.1113  0.8358 -0.5664
 7228TIP3    H243100   4.660   1.754   0.401 -0.5042  0.4898  0.0823
 7229TIP3   OH243101   4.740   1.007  17.029 -0.2775  0.6462 -0.1076
 7229TIP3    H143102   4.759   1.098  17.054  0.2089  0.5217 -0.0329
 7229TIP3    H243103   4.788   0.994  16.947  0.4149  0.1604  0.3731
 7230TIP3   OH243104   0.319   1.389   5.285  0.0385  0.3695 -0.3085
 7230TIP3    H143105   0.257   1.431   5.344  1.4655  2.5996 -0.2903
 7230TIP3    H243106   0.396   1.372   5.339  0.2852 -0.2795 -0.8521
 7231TIP3   OH243107   4.758   2.648  16.002 -0.0561 -0.3135  0.4075
 7231TIP3    H143108   4.744   2.743  15.999 -0.7888 -0.4402 -1.3839
 7231TIP3    H243109   4.680   2.611  15.961  0.0252 -1.7448  1.4548
 7232TIP3   OH243110   5.270   3.163  16.302  0.7322  0.1836 -0.3478
 7232TIP3    H143111   5.319   3.229  16.351  1.0142  0.0294 -0.4201
 7232TIP3    H243112   5.180   3.170  16.336  0.5676  1.1839 -0.9499
 7233TIP3   OH243113   0.498   0.117   3.237 -0.2196  1.0261 -0.5724
 7233TIP3    H143114   0.560   0.102   3.165  1.6206  1.3828  0.8567
 7233TIP3    H243115   0.471   0.030   3.264 -2.0323  0.8963 -2.5145
 7234TIP3   OH243116   0.225   4.294   4.936  0.5763  0.6766  0.2290
 7234TIP3    H143117   0.313   4.268   4.964  0.2656 -0.6515  0.0072
 7234TIP3    H243118   0.167   4.263   5.006  0.1466  0.3035 -0.2867
 7235TIP3   OH243119   1.008   4.033  12.308 -0.5646 -0.1945 -0.8242
 7235TIP3    H143120   0.949   4.016  12.234  0.8578 -1.5213 -1.7263
 7235TIP3    H243121   1.076   3.967  12.300  0.6258  0.7753  0.6434
 7236TIP3   OH243122   1.022   1.378  11.178 -0.0611  0.1234  0.5516
 7236TIP3    H143123   0.957   1.393  11.109  0.0869 -0.3042  0.3186
 7236TIP3    H243124   1.042   1.285  11.173  1.2666  0.4156 -0.0073
 7237TIP3   OH243125   1.755   5.237   4.941 -0.5494  0.9495  0.2808
 7237TIP3    H143126   1.664   5.268   4.933 -1.1526 -0.5269  0.8770
 7237TIP3    H243127   1.755   5.153   4.894  0.8974  1.5871 -0.9206
 7238TIP3   OH243128   1.929   3.391   4.283 -0.2734  0.1914  0.8563
 7238TIP3    H143129   1.944   3.394   4.377 -2.4788  0.3160  1.2537
 7238TIP3    H243130   1.869   3.463   4.265 -0.6111 -0.3822 -0.4886
 7239TIP3   OH243131   1.560   4.914   0.481  0.1976  0.4394 -0.4774
 7239TIP3    H143132   1.584   4.823   0.497  0.0080  0.7315  1.7237
 7239TIP3    H243133   1.599   4.963   0.554 -1.9004  1.7480 -0.1471
 7240TIP3   OH243134   3.021   2.330  14.843 -0.3561  0.4539  0.6724
 7240TIP3    H143135   3.109   2.356  14.818  0.0289 -0.4767  1.0354
 7240TIP3    H243136   2.964   2.375  14.780  0.5598 -1.6563 -1.7920
 7241TIP3   OH243137   4.274   6.784   5.358 -0.2339  1.1113 -0.3328
 7241TIP3    H143138   4.238   6.719   5.419  1.3878  1.0071  0.5484
 7241TIP3    H243139   4.273   6.866   5.406  0.5650  1.1365 -0.3550
 7242TIP3   OH243140   0.458   6.615   0.070 -0.4738  0.3364  0.1308
 7242TIP3    H143141   0.425   6.677   0.135 -0.3313  0.1528  0.3834
 7242TIP3    H243142   0.504   6.549   0.122 -0.5968  0.0369 -0.1373
 7243TIP3   OH243143   2.081   1.386   5.301  0.2024 -0.2036 -0.3020
 7243TIP3    H143144   2.128   1.385   5.384  0.5962  2.7101 -0.3950
 7243TIP3    H243145   2.138   1.339   5.240  1.7878  1.0016  0.2066
 7244TIP3   OH243146   5.679   5.929  12.826 -0.2235  0.0585  0.0388
 7244TIP3    H143147   5.656   5.994  12.759  2.0876  0.0063 -0.9127
 7244TIP3    H243148   5.749   5.972  12.877 -1.0870 -0.3864  1.6714
 7245TIP3   OH243149   2.203   2.566   4.503  0.6356  0.2232 -0.4696
 7245TIP3    H143150   2.285   2.551   4.549 -0.9339 -3.1267  1.6381
 7245TIP3    H243151   2.213   2.652   4.463  3.9097  1.3499  2.3264
 7246TIP3   OH243152   0.324   2.945  15.403 -0.3254  0.3387  0.3131
 7246TIP3    H143153   0.331   2.939  15.498  0.7978  1.2203  0.3142
 7246TIP3    H243154   0.407   2.911  15.371 -1.3323 -1.4947 -0.4586
 7247TIP3   OH243155   5.250   1.837  16.073 -0.0766 -0.5198 -0.6740
 7247TIP3    H143156   5.345   1.837  16.090  0.2136  1.0166 -2.0904
 7247TIP3    H243157   5.219   1.757  16.116  1.6197 -0.3475  1.0509
 7248TIP3   OH243158   2.568   0.529  16.217 -0.3420  0.4587 -0.1163
 7248TIP3    H143159   2.506   0.476  16.267 -0.3169 -0.0933 -0.6546
 7248TIP3    H243160   2.612   0.467  16.160  0.7017  0.8465  0.2382
 7249TIP3   OH243161   3.159   6.351  12.048 -0.3897  0.2566 -0.1024
 7249TIP3    H143162   3.078   6.376  12.094  0.0953  0.2289  0.7834
 7249TIP3    H243163   3.145   6.260  12.023 -0.6385  0.2546  0.0341
 7250TIP3   OH243164   4.564   4.787   4.078  0.4575 -0.0100 -0.6625
 7250TIP3    H143165   4.527   4.711   4.034 -0.9749  1.3915 -2.0443
 7250TIP3    H243166   4.659   4.777   4.069  0.3364 -2.0852  0.0574
 7251TIP3   OH243167   0.607   2.651  13.113 -0.2946 -0.1558 -0.4818
 7251TIP3    H143168   0.617   2.621  13.023 -0.6221 -0.2339 -0.4920
 7251TIP3    H243169   0.544   2.590  13.152 -1.7373  1.1033 -0.7712
 7252TIP3   OH243170   0.460   1.770  14.272  0.0411 -0.1585 -0.8166
 7252TIP3    H143171   0.492   1.860  14.279 -0.9113  0.1902 -0.8543
 7252TIP3    H243172   0.452   1.754  14.178 -0.2972 -0.0992 -0.7979
 7253TIP3   OH243173   1.756   1.075   3.530 -0.1527  0.1200  0.4751
 7253TIP3    H143174   1.843   1.042   3.554  0.5043  0.8471 -0.7486
 7253TIP3    H243175   1.759   1.168   3.552 -0.5878  0.1670  0.3440
 7254TIP3   OH243176   3.884   6.569  13.819  0.1249 -0.2660 -0.1338
 7254TIP3    H143177   3.924   6.483  13.810  1.0026  0.1415 -0.2728
 7254TIP3    H243178   3.802   6.563  13.769  0.9558 -0.5404 -1.5237
 7255TIP3   OH243179   2.871   2.637  11.725  0.0062  0.2526 -0.6026
 7255TIP3    H143180   2.797   2.653  11.783  1.3680  1.3077  0.9165
 7255TIP3    H243181   2.844   2.673  11.640 -1.3602  0.2238 -0.1980
 7256TIP3   OH243182   6.439   5.935  17.212 -0.2121  0.2524  0.1668
 7256TIP3    H143183   6.425   5.885  17.292  0.5523 -1.9826 -1.0185
 7256TIP3    H243184   6.534   5.932  17.199 -0.3755  0.1140 -1.0881
 7257TIP3   OH243185   5.315   1.923   3.451  0.2997  0.8285  0.0503
 7257TIP3    H143186   5.310   2.012   3.417 -1.4078  0.4699 -0.7234
 7257TIP3    H243187   5.274   1.869   3.384 -0.6096 -0.2587  1.4131
 7258TIP3   OH243188   1.187   0.568   3.790  0.1603  0.5188  0.2062
 7258TIP3    H143189   1.214   0.479   3.811  0.1763  0.2036 -1.1117
 7258TIP3    H243190   1.109   0.583   3.844  1.3365  0.4732  1.9983
 7259TIP3   OH243191   0.559   4.477  14.056  0.3819 -0.2933 -0.0113
 7259TIP3    H143192   0.472   4.513  14.042  0.5405  0.0065 -0.2261
 7259TIP3    H243193   0.564   4.461  14.150 -0.4088 -1.5930 -0.1655
 7260TIP3   OH243194   6.472   5.942   5.959  0.0866  0.2437 -0.0978
 7260TIP3    H143195   6.504   5.890   6.032  0.1839  0.5717  0.0930
 7260TIP3    H243196   6.406   5.887   5.918  1.6008 -0.8772 -1.1346
 7261TIP3   OH243197   1.150   4.617   3.975  0.9584  0.5169  0.2190
 7261TIP3    H143198   1.094   4.663   3.912 -0.1277 -0.1426  0.6791
 7261TIP3    H243199   1.217   4.681   3.998 -1.1231  2.3386  1.6819
 7262TIP3   OH243200   2.976   4.743  11.239  0.2802  0.3359 -0.0752
 7262TIP3    H143201   3.053   4.685  11.241 -0.3891 -0.5709 -0.1958
 7262TIP3    H243202   2.913   4.698  11.183  0.4642  2.1435 -1.8243
 7263TIP3   OH243203   3.368   1.577  16.237 -0.4708  0.0736  0.1644
 7263TIP3    H143204   3.425   1.550  16.165  0.2201 -0.3918  0.8722
 7263TIP3    H243205   3.323   1.496  16.264 -0.3215  0.1316  0.6038
 7264TIP3   OH243206   5.033   4.123  13.166  0.1583  0.9634 -0.0168
 7264TIP3    H143207   5.102   4.164  13.218  0.9971 -0.7423  0.3018
 7264TIP3    H243208   4.991   4.061  13.227  1.0606 -0.9709 -1.2491
 7265TIP3   OH243209   1.918   6.240  11.625  0.1993  0.5604  0.0787
 7265TIP3    H143210   1.988   6.289  11.583  1.3208 -1.9857 -1.2142
 7265TIP3    H243211   1.848   6.238  11.560  0.6058 -0.4653 -0.3497
 7266TIP3   OH243212   0.326   6.325  14.996 -0.0714 -0.1792 -0.2245
 7266TIP3    H143213   0.305   6.356  15.085 -1.4616  0.2293 -0.6598
 7266TIP3    H243214   0.411   6.282  15.005 -0.6238 -1.0226  1.5108
 7267TIP3   OH243215   3.381   2.761   1.196  0.3053  0.4047  0.3135
 7267TIP3    H143216   3.436   2.695   1.237  0.4723  0.6483  0.4883
 7267TIP3    H243217   3.307   2.712   1.160  2.1014 -0.3938 -2.6947
 7268TIP3   OH243218   0.077   0.229   5.012 -0.0673  0.1473 -0.2527
 7268TIP3    H143219   0.081   0.207   5.105  1.8807  0.8998 -0.1107
 7268TIP3    H243220   0.168   0.226   4.982 -0.6766 -0.2954 -2.2055
 7269TIP3   OH243221   3.991   5.754  14.702  0.1840 -0.0617 -0.3273
 7269TIP3    H143222   4.053   5.802  14.757 -0.8675 -0.4129  1.2610
 7269TIP3    H243223   3.918   5.733  14.761 -0.1068 -2.2440 -1.3377
 7270TIP3   OH243224   0.836   3.316  14.562  0.0562  0.6193  0.0336
 7270TIP3    H143225   0.761   3.319  14.503 -0.0513  0.0321  0.1336
 7270TIP3    H243226   0.804   3.269  14.639  0.6433 -0.0068 -0.0992
 7271TIP3   OH243227   0.612   6.657   2.132 -0.7078 -0.0371  0.1471
 7271TIP3    H143228   0.653   6.714   2.196  1.0287 -0.2041 -0.7582
 7271TIP3    H243229   0.565   6.592   2.185  0.7632 -0.2427  1.2698
 7272TIP3   OH243230   3.655   6.662   4.188  0.1803  0.0031 -0.5780
 7272TIP3    H143231   3.690   6.726   4.126  1.3990 -0.0292  0.0521
 7272TIP3    H243232   3.732   6.627   4.233 -0.6813  0.2108  1.1415
 7273TIP3   OH243233   1.546   5.970  16.342 -0.1125  0.0774 -0.5024
 7273TIP3    H143234   1.629   5.929  16.317  0.0021 -0.6314  0.9581
 7273TIP3    H243235   1.498   5.900  16.386 -0.7087  1.0062  0.3405
 7274TIP3   OH243236   5.352   4.737  16.898  0.2413 -0.6174 -0.1937
 7274TIP3    H143237   5.259   4.741  16.922 -0.6264  1.8554 -3.3787
 7274TIP3    H243238   5.397   4.732  16.982 -2.6913 -0.5104  1.5463
 7275TIP3   OH243239   1.264   1.789   6.314  0.0399 -0.3810  0.0916
 7275TIP3    H143240   1.180   1.804   6.358 -0.6754 -3.1661 -0.2042
 7275TIP3    H243241   1.267   1.695   6.298  1.9683  0.0283 -2.5030
 7276TIP3   OH243242   5.747   0.971  11.321  0.4901  0.2838  0.1490
 7276TIP3    H143243   5.698   0.889  11.311 -0.0919  0.4405  1.4604
 7276TIP3    H243244   5.706   1.032  11.261 -1.3017  0.5604  1.5835
 7277TIP3   OH243245   1.154   4.171  11.257 -0.2942 -0.3532  0.9013
 7277TIP3    H143246   1.099   4.098  11.229 -0.0779 -0.5276  0.9325
 7277TIP3    H243247   1.209   4.135  11.326  1.1781 -0.6940 -0.3830
 7278TIP3   OH243248   1.473   6.698   5.032 -0.2983  0.5768  0.1032
 7278TIP3    H143249   1.495   6.621   5.084  0.9069  0.3061 -0.7595
 7278TIP3    H243250   1.392   6.675   4.987  0.3589 -0.4212 -0.5944
 7279TIP3   OH243251   3.580   3.040   5.689 -0.1386 -0.5487 -0.6442
 7279TIP3    H143252   3.597   2.946   5.698  0.7879 -0.2228  1.5193
 7279TIP3    H243253   3.539   3.048   5.603  0.9725 -2.7648 -1.4713
 7280TIP3   OH243254   1.979   4.032  14.575  0.4424 -0.7228  0.2557
 7280TIP3    H143255   1.920   3.967  14.615 -0.5247 -0.1781 -0.2444
 7280TIP3    H243256   1.952   4.036  14.483  1.9697 -1.2150 -0.2357
 7281TIP3   OH243257   3.077   4.479   2.688 -0.3207  0.2270 -0.1792
 7281TIP3    H143258   3.138   4.464   2.761 -0.6346 -3.1569 -0.4705
 7281TIP3    H243259   3.123   4.542   2.632  2.1137 -0.7898  0.5212
 7282TIP3   OH243260   4.152   4.953  12.025 -0.1324  0.2010  0.4021
 7282TIP3    H143261   4.200   4.949  11.942  2.6187  0.1500  1.8578
 7282TIP3    H243262   4.097   5.031  12.018  0.6977  0.6728 -1.1447
 7283TIP3   OH243263   3.478   2.251   0.378 -0.5960 -0.3749 -0.5551
 7283TIP3    H143264   3.420   2.233   0.304  0.4339 -0.0189 -1.4824
 7283TIP3    H243265   3.472   2.346   0.390 -1.1516 -0.4896  0.1743
 7284TIP3   OH243266   3.913   2.907   6.599  0.0896 -0.1875  0.1843
 7284TIP3    H143267   3.935   2.841   6.534  0.3618  0.2382 -0.1577
 7284TIP3    H243268   3.822   2.930   6.580  0.3087  0.2658 -0.3418
 7285TIP3   OH243269   6.645   5.096  11.844  0.4955  0.3025  0.2900
 7285TIP3    H143270   6.610   5.118  11.758 -1.5035  1.0156  1.2058
 7285TIP3    H243271   6.704   5.168  11.866  1.2310 -0.0290 -0.5873
 7286TIP3   OH243272   5.854   3.614   3.911  0.0958  0.1609 -0.2583
 7286TIP3    H143273   5.945   3.612   3.940  0.1888 -3.2436 -0.3789
 7286TIP3    H243274   5.803   3.621   3.992  0.4731 -1.1622  0.1225
 7287TIP3   OH243275   4.173   1.689  12.253 -0.5077 -0.5684  0.4405
 7287TIP3    H143276   4.209   1.731  12.175  0.5799 -1.6764  0.3187
 7287TIP3    H243277   4.170   1.596  12.231  0.6882 -1.0212  2.0171
 7288TIP3   OH243278   2.502   4.155   1.790  1.0316  0.4685  0.0600
 7288TIP3    H143279   2.476   4.064   1.803  0.0659  0.6046 -0.7807
 7288TIP3    H243280   2.427   4.206   1.818  0.9927  0.9432 -0.8686
 7289TIP3   OH243281   3.086   6.234  11.618  0.0265 -0.1606  0.1470
 7289TIP3    H143282   3.178   6.220  11.639 -0.5134 -0.3744  2.8062
 7289TIP3    H243283   3.054   6.147  11.593  0.2868 -0.3549  0.4761
 7290TIP3   OH243284   0.396   0.525  11.622 -0.5308 -0.0071 -0.7311
 7290TIP3    H143285   0.444   0.480  11.552 -1.2114  0.1943 -1.3419
 7290TIP3    H243286   0.305   0.525  11.592 -0.6005  1.4494 -0.5795
 7291TIP3   OH243287   5.689   2.281   5.716  0.4485 -0.5910 -0.1113
 7291TIP3    H143288   5.642   2.208   5.756 -0.5589  0.0352 -0.1169
 7291TIP3    H243289   5.781   2.265   5.737  0.0294 -0.6757  1.8349
 7292TIP3   OH243290   6.359   4.579   0.348  0.3469 -0.6660 -0.0370
 7292TIP3    H143291   6.415   4.502   0.337  1.2397  0.1371 -1.3286
 7292TIP3    H243292   6.282   4.546   0.395  1.4181 -2.0111  0.8679
 7293TIP3   OH243293   6.591   3.590  16.415  0.8884  0.8611  0.0884
 7293TIP3    H143294   6.570   3.595  16.322 -2.1396 -0.0859  0.6215
 7293TIP3    H243295   6.523   3.642  16.458  1.6144  0.4321  1.8416
 7294TIP3   OH243296   0.968   3.131  16.100 -0.6562 -0.1027 -0.0385
 7294TIP3    H143297   0.915   3.114  16.022  2.0232  0.4171 -2.1365
 7294TIP3    H243298   1.058   3.113  16.072  0.6240  1.9452  2.3613
 7295TIP3   OH243299   5.332   1.173   1.856 -0.0324 -0.3016 -0.3796
 7295TIP3    H143300   5.348   1.086   1.819  0.5605 -0.6265  0.5990
 7295TIP3    H243301   5.419   1.201   1.886 -0.2769  0.5074 -0.4199
 7296TIP3   OH243302   1.757   6.615  16.287  0.2912 -0.2319  0.0354
 7296TIP3    H143303   1.766   6.652  16.375  0.7578  0.4081 -0.2633
 7296TIP3    H243304   1.667   6.633  16.262 -0.2682 -1.6510  0.9007
 7297TIP3   OH243305   5.121   3.085   2.287 -0.8772  0.0263 -0.2681
 7297TIP3    H143306   5.098   2.996   2.262 -1.1515 -0.3822  1.3568
 7297TIP3    H243307   5.123   3.133   2.204  2.7391 -2.1999 -1.7000
 7298TIP3   OH243308   1.546   5.393   3.391  0.1643 -0.5892 -0.0498
 7298TIP3    H143309   1.629   5.396   3.439  0.7381  2.2460 -1.0266
 7298TIP3    H243310   1.479   5.392   3.459  0.9734 -0.8147  0.7607
 7299TIP3   OH243311   5.459   6.764   0.820  0.3045 -0.9004 -0.2342
 7299TIP3    H143312   5.520   6.711   0.769  0.1567 -0.8321 -0.4816
 7299TIP3    H243313   5.512   6.800   0.891  0.4224 -1.3188 -0.1067
 7300TIP3   OH243314   3.619   3.163   6.282 -0.2509 -0.2445 -0.2937
 7300TIP3    H143315   3.623   3.068   6.270  0.3498 -0.4098  1.0338
 7300TIP3    H243316   3.659   3.178   6.368 -1.3417  1.1085  0.0065
 7301TIP3   OH243317   5.711   1.488  16.791 -0.0299  0.0610 -0.2389
 7301TIP3    H143318   5.763   1.499  16.871  0.9623 -0.9466 -0.7212
 7301TIP3    H243319   5.673   1.400  16.799 -2.8105  1.2340  0.7252
 7302TIP3   OH243320   1.431   1.277   1.774  0.2963 -0.1869  0.1090
 7302TIP3    H143321   1.460   1.226   1.698  0.4256  0.8387 -0.5552
 7302TIP3    H243322   1.479   1.359   1.767 -2.3744  1.4307 -0.8105
 7303TIP3   OH243323   3.217   5.658  14.768 -0.1094  0.1934  0.2684
 7303TIP3    H143324   3.264   5.691  14.845 -1.6267  0.5406  1.0702
 7303TIP3    H243325   3.262   5.698  14.694 -0.4377  2.2365  1.1093
 7304TIP3   OH243326   3.467   6.744   0.310  0.0127  0.6104  0.7300
 7304TIP3    H143327   3.487   6.809   0.243 -0.5181  0.6587  0.6204
 7304TIP3    H243328   3.438   6.667   0.261  0.8625  0.2026  0.8462
 7305TIP3   OH243329   5.175   0.613  15.758  0.8342  0.4125 -0.1325
 7305TIP3    H143330   5.120   0.685  15.729  0.8458  0.8505  0.8917
 7305TIP3    H243331   5.255   0.621  15.705  0.7366  1.0039 -0.1937
 7306TIP3   OH243332   2.997   6.185  15.138 -0.2048 -0.1608 -0.1084
 7306TIP3    H143333   2.921   6.240  15.119 -0.0631 -0.1553 -0.6691
 7306TIP3    H243334   3.053   6.239  15.193 -1.1442 -0.5781  1.2931
 7307TIP3   OH243335   3.552   5.924   0.129 -0.1584  0.0492 -0.1878
 7307TIP3    H143336   3.500   5.960   0.202  0.1221  0.4272 -0.1743
 7307TIP3    H243337   3.514   5.837   0.115 -1.7656  0.8490 -1.1347
 7308TIP3   OH243338   6.598   0.603  13.167  0.4694 -0.3762 -0.5607
 7308TIP3    H143339   6.691   0.618  13.152  0.6031 -0.7452 -0.1160
 7308TIP3    H243340   6.594   0.518  13.211  0.1482  0.9021  2.0415
 7309TIP3   OH243341   6.415   6.117   1.699 -0.5245 -0.0371 -0.4168
 7309TIP3    H143342   6.384   6.044   1.752  0.4924  0.0713  0.3548
 7309TIP3    H243343   6.444   6.182   1.763  0.2721  0.2976 -1.0974
 7310TIP3   OH243344   4.830   2.598   0.715  0.2081  0.1496  0.2686
 7310TIP3    H143345   4.823   2.529   0.648 -0.3560  0.5809 -0.1320
 7310TIP3    H243346   4.816   2.553   0.798 -0.7928 -0.1209 -0.0371
 7311TIP3   OH243347   2.681   4.736  14.632  0.5899  0.1853  0.1359
 7311TIP3    H143348   2.643   4.758  14.716  1.9021  0.0727  0.7809
 7311TIP3    H243349   2.688   4.640  14.633  1.8244  0.2625  0.4696
 7312TIP3   OH243350   2.674   4.130  10.891  0.3511 -0.3273  0.4303
 7312TIP3    H143351   2.727   4.209  10.902  0.9606 -0.6890  0.1033
 7312TIP3    H243352   2.735   4.064  10.859 -0.2640 -0.7952  0.2035
 7313TIP3   OH243353   3.446   5.637  14.135  0.0049  0.1340 -0.0286
 7313TIP3    H143354   3.409   5.697  14.070 -0.9817 -0.6481 -0.2121
 7313TIP3    H243355   3.523   5.600  14.092  0.6545  1.2900  0.1065
 7314TIP3   OH243356   0.829   1.105   2.973 -1.2637 -0.2117  0.4598
 7314TIP3    H143357   0.802   1.045   3.043  1.9341  1.1294  3.1364
 7314TIP3    H243358   0.898   1.158   3.013 -0.9631  2.3780 -3.0560
 7315TIP3   OH243359   5.794   2.896  14.574  0.0724  0.6210 -1.2634
 7315TIP3    H143360   5.845   2.960  14.525 -0.1621  0.7990 -1.2748
 7315TIP3    H243361   5.763   2.834  14.508  0.9623  0.0462 -1.1473
 7316TIP3   OH243362   4.867   6.200   2.623  0.8165 -0.5879 -0.5292
 7316TIP3    H143363   4.952   6.156   2.619  0.1530 -1.9246 -0.5420
 7316TIP3    H243364   4.811   6.149   2.565 -0.2456 -0.2972  0.2184
 7317TIP3   OH243365   1.282   1.343  11.494  0.5643 -0.0372 -0.4428
 7317TIP3    H143366   1.331   1.271  11.455 -1.4409 -1.5011 -0.4313
 7317TIP3    H243367   1.224   1.373  11.424 -1.7283 -1.4309  0.7386
 7318TIP3   OH243368   0.927   1.500   2.128 -0.1584  0.1577  0.2455
 7318TIP3    H143369   0.866   1.481   2.200 -0.9407  2.9105  0.4432
 7318TIP3    H243370   1.013   1.501   2.170 -0.4572  0.3713  0.8719
 7319TIP3   OH243371   6.637   3.471  15.924 -0.8045  0.1554 -0.4644
 7319TIP3    H143372   6.645   3.402  15.858 -0.2309  0.1749 -0.4211
 7319TIP3    H243373   6.717   3.523  15.915 -0.1461 -0.5167  0.9914
 7320TIP3   OH243374   5.756   0.606   3.087 -0.0835 -0.4063  0.4558
 7320TIP3    H143375   5.664   0.627   3.073  0.1977  0.7028  0.1724
 7320TIP3    H243376   5.765   0.515   3.056 -0.6253  0.1781 -1.5425
 7321TIP3   OH243377   3.355   5.673  16.404 -0.5820 -0.1692  0.5096
 7321TIP3    H143378   3.298   5.659  16.328  0.5085 -0.7104 -0.2417
 7321TIP3    H243379   3.295   5.679  16.478 -1.5741 -1.7843 -0.0967
 7322TIP3   OH243380   5.735   5.332  16.553  0.1764 -0.1656  0.0760
 7322TIP3    H143381   5.749   5.303  16.463  0.1832 -0.1180  0.0614
 7322TIP3    H243382   5.669   5.400  16.547  0.5923  0.2377  0.0391
 7323TIP3   OH243383   3.312   4.822   1.606 -0.0246 -0.2140 -0.3028
 7323TIP3    H143384   3.353   4.741   1.575  2.3519  1.4463 -1.8712
 7323TIP3    H243385   3.247   4.844   1.539  0.2118 -0.1773 -0.5187
 7324TIP3   OH243386   2.172   1.512  11.052 -0.0301 -0.4062 -0.1303
 7324TIP3    H143387   2.179   1.518  11.147  1.7567 -2.0290 -0.0888
 7324TIP3    H243388   2.104   1.447  11.036  0.3459 -0.8515  0.0707
 7325TIP3   OH243389   5.678   2.987  11.891  0.6133  0.6096 -0.0142
 7325TIP3    H143390   5.645   3.006  11.979  0.4346  1.8779 -0.3420
 7325TIP3    H243391   5.760   2.939  11.907  1.5646  2.4469  0.9079
 7326TIP3   OH243392   6.375   3.691   5.860 -0.5217 -0.3119  0.4665
 7326TIP3    H143393   6.458   3.643   5.864  1.6157  2.8934 -1.3972
 7326TIP3    H243394   6.377   3.737   5.777 -3.2189  1.6219  1.3152
 7327TIP3   OH243395   4.032   5.248  13.157 -0.4158 -0.8357  0.5222
 7327TIP3    H143396   3.941   5.268  13.179 -0.4866  0.2934 -0.6780
 7327TIP3    H243397   4.070   5.333  13.135  0.6225 -1.4389 -0.0691
 7328TIP3   OH243398   2.468   4.583   2.057  0.3177  0.1161  0.1488
 7328TIP3    H143399   2.559   4.611   2.064  0.4336 -0.1048 -0.4187
 7328TIP3    H243400   2.427   4.648   1.999  0.3586 -0.3334 -0.3952
 7329TIP3   OH243401   5.128   6.527   3.495  0.3510 -0.2314  0.6706
 7329TIP3    H143402   5.153   6.607   3.540 -0.6308 -0.2708  1.3070
 7329TIP3    H243403   5.033   6.530   3.490  0.3729 -0.7366 -0.4791
 7330TIP3   OH243404   5.972   2.566   3.142 -0.7578  0.7593  0.2096
 7330TIP3    H143405   5.884   2.542   3.113 -0.9497  2.0296 -0.2934
 7330TIP3    H243406   5.981   2.522   3.227 -1.9937  0.8760  0.4205
 7331TIP3   OH243407   2.112   5.127   5.371 -0.2083  0.3239  0.1353
 7331TIP3    H143408   2.048   5.151   5.437  1.5647 -0.1313  2.1171
 7331TIP3    H243409   2.120   5.031   5.379 -0.3750  0.1862 -1.1518
 7332TIP3   OH243410   6.698   0.313  11.287  0.0424  0.2892  0.0733
 7332TIP3    H143411   6.669   0.367  11.214  0.0353 -1.4295 -1.2654
 7332TIP3    H243412   6.790   0.295  11.268  0.2249  0.3644  0.8491
 7333TIP3   OH243413   4.908   4.045  16.789  0.6093  0.3363 -0.2167
 7333TIP3    H143414   4.838   4.061  16.852  0.0803 -1.7069 -0.2199
 7333TIP3    H243415   4.864   4.008  16.713  1.1762  3.1146 -2.0692
 7334TIP3   OH243416   6.752   4.612   0.290  0.9802  0.0005  0.1186
 7334TIP3    H143417   6.689   4.682   0.275  0.0927 -0.7860  0.1196
 7334TIP3    H243418   6.703   4.543   0.335  2.0042 -0.3459  0.7528
 7335TIP3   OH243419   1.242   3.242  15.155  0.9541  0.0028  0.2622
 7335TIP3    H143420   1.324   3.207  15.119  0.1083 -1.0254 -0.7631
 7335TIP3    H243421   1.177   3.175  15.133 -0.2471  1.0314  0.6185
 7336TIP3   OH243422   5.101   0.377  12.615  0.3192  0.4274  0.0928
 7336TIP3    H143423   5.182   0.371  12.666 -0.6272  1.3749  1.7890
 7336TIP3    H243424   5.038   0.325  12.663 -0.0285 -0.5998 -1.4162
 7337TIP3   OH243425   3.938   5.072   6.028 -0.0380  0.3905  0.5579
 7337TIP3    H143426   3.942   5.074   6.123  1.9983 -2.5244  0.6499
 7337TIP3    H243427   3.852   5.035   6.008 -0.8053  1.7619  1.1582
 7338TIP3   OH243428   0.131   5.477   2.381 -0.2085  0.9111 -0.3417
 7338TIP3    H143429   0.085   5.522   2.310 -0.8661  0.3316 -0.2952
 7338TIP3    H243430   0.061   5.438   2.433  0.2289  1.8534  0.9923
 7339TIP3   OH243431   0.723   1.353  15.347  0.0859 -0.2081 -0.7655
 7339TIP3    H143432   0.719   1.423  15.283 -0.8024  0.3827 -0.0850
 7339TIP3    H243433   0.681   1.278  15.304 -0.4738  0.1724 -0.8825
 7340TIP3   OH243434   3.037   4.360   3.309  0.4079  0.4354 -1.0676
 7340TIP3    H143435   3.064   4.382   3.398  1.1354 -0.1799 -1.1196
 7340TIP3    H243436   2.955   4.406   3.296 -0.4888 -0.6274  0.4647
 7341TIP3   OH243437   4.128   4.606  16.988 -0.0331  0.0885 -0.2986
 7341TIP3    H143438   4.100   4.530  17.038  0.9828 -0.6319 -0.7931
 7341TIP3    H243439   4.214   4.629  17.024 -0.1951  0.8221 -0.3542
 7342TIP3   OH243440   3.939   0.764  12.569  0.4180  0.1126 -0.2785
 7342TIP3    H143441   3.962   0.685  12.520 -0.2570  0.4621 -1.1944
 7342TIP3    H243442   3.848   0.750  12.595  0.9177 -0.2915  1.3685
 7343TIP3   OH243443   0.646   4.837   4.645 -0.3145  0.1772 -0.0604
 7343TIP3    H143444   0.701   4.829   4.568  0.1825  0.0184  0.3084
 7343TIP3    H243445   0.560   4.805   4.617 -0.5671  1.5987 -0.9994
 7344TIP3   OH243446   0.728   1.361   1.009  0.3337  0.2023  0.3144
 7344TIP3    H143447   0.707   1.318   1.092 -1.9611  1.1123  0.2867
 7344TIP3    H243448   0.696   1.300   0.942 -1.1816  1.0278  0.2349
 7345TIP3   OH243449   2.268   2.902  16.450  0.4158  0.1555  0.3514
 7345TIP3    H143450   2.221   2.951  16.518  1.2436  0.5892  0.6198
 7345TIP3    H243451   2.243   2.811  16.464 -0.6303  0.4112  0.2568
 7346TIP3   OH243452   1.781   0.173   2.825  0.2072 -0.6032  0.2631
 7346TIP3    H143453   1.838   0.246   2.853  0.5451 -0.0816 -1.6649
 7346TIP3    H243454   1.693   0.199   2.854  0.1651  1.0723 -1.2312
 7347TIP3   OH243455   2.255   6.075  17.108  0.3882  0.2347 -0.5973
 7347TIP3    H143456   2.200   6.066  17.031 -1.6957  0.6010  0.7630
 7347TIP3    H243457   2.194   6.077  17.182  2.2296  0.6388  1.0279
 7348TIP3   OH243458   4.590   5.183   1.754 -0.8587 -0.3737  0.3266
 7348TIP3    H143459   4.585   5.104   1.807  0.0336 -0.8338 -0.2512
 7348TIP3    H243460   4.665   5.231   1.789  0.7917 -1.4670 -1.4969
 7349TIP3   OH243461   0.142   3.187  16.342  0.0895  0.1522  0.3728
 7349TIP3    H143462   0.091   3.265  16.323 -1.3191 -1.2667 -2.1650
 7349TIP3    H243463   0.231   3.208  16.312  0.0082  1.1619  0.8200
 7350TIP3   OH243464   5.457   0.557   0.585 -0.6993 -0.3465  0.0765
 7350TIP3    H143465   5.509   0.566   0.505 -1.2896  0.3714 -0.2508
 7350TIP3    H243466   5.466   0.642   0.628 -0.4175 -0.7209  0.7547
 7351TIP3   OH243467   2.593   4.586  11.295 -0.0467 -0.1751  0.4473
 7351TIP3    H143468   2.531   4.657  11.309  0.4373 -0.0167  1.9901
 7351TIP3    H243469   2.602   4.580  11.200 -1.7652  0.3511  0.2225
 7352TIP3   OH243470   3.357   6.446   0.487 -0.4479  0.3057 -0.7523
 7352TIP3    H143471   3.307   6.496   0.422 -0.8668 -0.5642 -1.1207
 7352TIP3    H243472   3.441   6.428   0.444 -0.6402 -0.0788 -0.9708
 7353TIP3   OH243473   1.565   3.005   4.661  0.3610  0.0107 -0.2763
 7353TIP3    H143474   1.494   2.941   4.653  1.2976 -0.8397 -3.2538
 7353TIP3    H243475   1.596   2.996   4.751 -1.8836 -1.0994  0.4759
 7354TIP3   OH243476   5.764   5.674  16.990  0.2509 -0.1205 -0.2559
 7354TIP3    H143477   5.756   5.766  16.966  2.9774 -0.1032 -1.4353
 7354TIP3    H243478   5.804   5.633  16.913 -0.5949 -2.2573  0.3707
 7355TIP3   OH243479   4.717   2.851  13.670 -0.3652  0.2769  0.0656
 7355TIP3    H143480   4.682   2.940  13.672  1.1500  1.0360 -2.4509
 7355TIP3    H243481   4.778   2.847  13.744 -0.8942  1.1379  0.5566
 7356TIP3   OH243482   0.003   2.067  15.668  0.1374  0.0169 -0.0815
 7356TIP3    H143483   0.018   2.155  15.634 -0.2093  0.0785 -0.0692
 7356TIP3    H243484  -0.040   2.080  15.752 -0.9062 -0.1849 -0.5737
 7357TIP3   OH243485   5.785   0.062  14.047 -0.0388  0.1764 -0.3569
 7357TIP3    H143486   5.844   0.116  14.099 -1.4062  0.6369  0.7795
 7357TIP3    H243487   5.817   0.072  13.957  0.0086  2.5501 -0.1433
 7358TIP3   OH243488   3.474   3.840   4.029  0.6835  0.3682  0.6181
 7358TIP3    H143489   3.463   3.934   4.019 -1.6582  0.0860  0.0965
 7358TIP3    H243490   3.390   3.809   4.063  1.2053 -1.6146  0.2281
 7359TIP3   OH243491   3.545   0.126  16.678  0.1439 -0.1468  1.1125
 7359TIP3    H143492   3.591   0.205  16.647  0.0812  0.4694  2.4836
 7359TIP3    H243493   3.510   0.151  16.763 -2.2181 -0.8225  0.4106
 7360TIP3   OH243494   5.023   3.646   4.448 -0.0304  0.2748 -0.2023
 7360TIP3    H143495   5.046   3.632   4.540 -1.6181  2.1065  0.5379
 7360TIP3    H243496   5.051   3.736   4.431  1.1931 -0.3765 -1.8633
 7361TIP3   OH243497   0.061   5.509  14.548  0.3433 -0.2709 -0.5270
 7361TIP3    H143498   0.128   5.507  14.479 -0.2808 -2.4423 -1.1530
 7361TIP3    H243499  -0.007   5.449  14.517 -0.5479 -0.3264  1.4004
 7362TIP3   OH243500   0.375   6.240   1.430  0.7084  0.7335  0.5805
 7362TIP3    H143501   0.280   6.235   1.428  0.5275  1.8492  3.1307
 7362TIP3    H243502   0.398   6.287   1.350 -0.9724  1.3965  0.4565
 7363TIP3   OH243503   0.455   2.356  10.968  0.5486  0.3292 -0.6386
 7363TIP3    H143504   0.437   2.399  10.885  3.3950  2.5980 -0.2495
 7363TIP3    H243505   0.533   2.302  10.952  0.0698 -0.6420  0.1513
 7364TIP3   OH243506   4.369   3.727   4.391  0.0528  0.0221 -0.2424
 7364TIP3    H143507   4.308   3.666   4.431  2.0442 -0.7892  1.7553
 7364TIP3    H243508   4.321   3.810   4.387 -2.2024 -1.2587 -1.7088
 7365TIP3   OH243509   6.019   1.360   0.347 -0.1289 -0.3974  0.4098
 7365TIP3    H143510   6.093   1.419   0.361  1.0083 -1.8546  0.7988
 7365TIP3    H243511   5.962   1.375   0.423  0.2678  0.0231  0.6291
 7366TIP3   OH243512   6.020   6.029  14.913  0.2800  0.5476  0.0900
 7366TIP3    H143513   6.014   5.954  14.853 -3.5621  0.0905  0.7823
 7366TIP3    H243514   5.949   6.086  14.885 -1.9918  0.1363  4.2980
 7367TIP3   OH243515   4.188   5.289  15.602 -0.0561  0.9277 -0.1898
 7367TIP3    H143516   4.219   5.379  15.596  0.0390  0.8569 -0.8330
 7367TIP3    H243517   4.161   5.266  15.513 -2.2251  1.0645  0.3704
 7368TIP3   OH243518   3.837   1.847  16.070  0.0713 -0.6425  0.1071
 7368TIP3    H143519   3.759   1.844  16.014 -1.6864 -0.8166  2.4394
 7368TIP3    H243520   3.854   1.941  16.082  1.0557 -0.5856 -1.4001
 7369TIP3   OH243521   3.772   6.183   2.459 -0.3835  0.1109  0.3962
 7369TIP3    H143522   3.678   6.172   2.442 -0.4919  1.1035  0.2922
 7369TIP3    H243523   3.787   6.277   2.449  1.1966 -0.3309 -2.5623
 7370TIP3   OH243524   1.723   2.158  17.019  0.3158 -0.4004  0.4045
 7370TIP3    H143525   1.797   2.098  17.023  1.2555  0.7726  1.1831
 7370TIP3    H243526   1.731   2.212  17.097 -2.2298 -1.1985  1.3269
 7371TIP3   OH243527   3.432   3.330   5.581  0.0392 -0.1029 -0.6426
 7371TIP3    H143528   3.519   3.339   5.619  0.7242  1.0787 -2.3630
 7371TIP3    H243529   3.437   3.250   5.528  0.4451  0.5225 -1.5773
 7372TIP3   OH243530   1.299   6.720   2.539  0.4381 -0.5592  0.1340
 7372TIP3    H143531   1.360   6.712   2.466 -0.5976  0.4698 -0.8745
 7372TIP3    H243532   1.221   6.674   2.510  0.4060 -1.1242  1.0692
 7373TIP3   OH243533   0.700   5.373  14.907  0.1478  0.1729 -0.7291
 7373TIP3    H143534   0.766   5.318  14.949  0.0409 -0.5152 -1.4192
 7373TIP3    H243535   0.629   5.379  14.971  1.4514  2.1437  0.6168
 7374TIP3   OH243536   5.464   5.880  11.617 -0.0579 -0.3036 -0.0333
 7374TIP3    H143537   5.486   5.973  11.603 -1.1548 -0.3429 -2.6100
 7374TIP3    H243538   5.547   5.840  11.642  0.6401  1.1934  0.1949
 7375TIP3   OH243539   2.452   2.650   2.246  0.0106  0.4874 -0.4650
 7375TIP3    H143540   2.511   2.652   2.170  1.6547 -1.0780  0.6805
 7375TIP3    H243541   2.509   2.672   2.320 -1.3980  1.2890  0.4244
 7376TIP3   OH243542   0.151   2.053   6.705  0.5410  0.2323 -0.3110
 7376TIP3    H143543   0.135   2.141   6.739  1.2134  0.3174 -0.2008
 7376TIP3    H243544   0.246   2.048   6.695  0.3758  0.1973 -2.1862
 7377TIP3   OH243545   5.622   0.629  15.889 -0.2343 -0.1260 -0.2529
 7377TIP3    H143546   5.573   0.707  15.916 -1.2734 -0.5919 -0.7293
 7377TIP3    H243547   5.707   0.663  15.861 -0.9976  0.9888 -1.3808
 7378TIP3   OH243548   5.664   0.267  14.402 -0.2555  0.0682  0.1362
 7378TIP3    H143549   5.706   0.232  14.481  0.0954  0.1773  0.0017
 7378TIP3    H243550   5.621   0.191  14.362  1.3644 -0.4621 -0.7053
 7379TIP3   OH243551   6.259   1.606   1.603  0.3716  0.0020 -0.2516
 7379TIP3    H143552   6.314   1.534   1.634 -0.3526 -0.5735 -0.2749
 7379TIP3    H243553   6.185   1.563   1.560 -0.2836  0.7447  0.0959
 7380TIP3   OH243554   5.985   0.893  13.287 -0.0612 -0.5858 -0.1754
 7380TIP3    H143555   6.049   0.955  13.253 -1.7428  2.5705  1.9235
 7380TIP3    H243556   5.917   0.889  13.220  0.0747 -0.1704 -0.3411
 7381TIP3   OH243557   5.028   3.072   2.795 -0.1317  0.6326  0.5617
 7381TIP3    H143558   4.938   3.056   2.767  0.2910  1.3357 -1.3640
 7381TIP3    H243559   5.051   3.156   2.755  0.8273  1.3154  2.4533
 7382TIP3   OH243560   5.446   0.301   0.669 -0.4224 -0.3552 -0.3366
 7382TIP3    H143561   5.496   0.276   0.746 -0.0909  1.4642  0.0793
 7382TIP3    H243562   5.472   0.391   0.651 -0.0764 -0.8723 -2.9104
 7383TIP3   OH243563   5.280   2.429   5.500 -0.2188  0.5980  0.9841
 7383TIP3    H143564   5.331   2.509   5.511  0.7974  0.0679  0.2767
 7383TIP3    H243565   5.231   2.442   5.419  0.7718  0.0945  0.2851
 7384TIP3   OH243566   5.313   6.362  15.220 -0.2175  0.9069  0.0790
 7384TIP3    H143567   5.377   6.425  15.252  0.2365 -0.1444  1.3398
 7384TIP3    H243568   5.238   6.370  15.279 -0.4678  0.8135 -0.2242
 7385TIP3   OH243569   3.227   4.929   3.031 -0.0403 -0.0073  0.0795
 7385TIP3    H143570   3.253   4.843   2.998  1.1214  0.4965 -0.3635
 7385TIP3    H243571   3.286   4.946   3.104  0.2795  0.7631 -0.3462
 7386TIP3   OH243572   2.612   2.295  14.985  0.3911 -0.1324 -0.0596
 7386TIP3    H143573   2.521   2.272  14.968 -0.1192  1.5617  0.1560
 7386TIP3    H243574   2.649   2.218  15.027 -0.9082 -0.8844 -0.2294
 7387TIP3   OH243575   1.419   0.657   4.156  0.2468  0.2732  0.3675
 7387TIP3    H143576   1.471   0.608   4.092  1.4785  0.3596  1.2701
 7387TIP3    H243577   1.345   0.690   4.106  1.7967  1.3767 -1.3219
 7388TIP3   OH243578   3.096   5.427  14.825 -0.3016 -0.0240  0.1117
 7388TIP3    H143579   3.034   5.405  14.756  0.6554 -0.9784 -0.4705
 7388TIP3    H243580   3.144   5.503  14.792 -1.5058  1.0885  0.8087
 7389TIP3   OH243581   3.177   5.348   4.526  0.6896 -0.2261 -0.0889
 7389TIP3    H143582   3.133   5.267   4.498 -0.3801  0.4513 -0.4145
 7389TIP3    H243583   3.199   5.333   4.618 -2.3989  0.2867  0.8332
 7390TIP3   OH243584   5.085   5.771  12.195  0.3257  0.3546  0.2453
 7390TIP3    H143585   5.060   5.741  12.282  0.3312 -0.6607 -0.0973
 7390TIP3    H243586   5.157   5.714  12.169  0.8417  1.1431 -0.1201
 7391TIP3   OH243587   4.456   3.366   4.382 -0.4810  0.4836 -0.2404
 7391TIP3    H143588   4.436   3.335   4.471  0.9940 -1.6935 -0.5676
 7391TIP3    H243589   4.374   3.404   4.350 -1.4942 -0.1465  1.4823
 7392TIP3   OH243590   3.794   6.731  15.618 -0.0589  0.5699 -0.8891
 7392TIP3    H143591   3.865   6.766  15.564 -0.2968 -1.1146 -2.4030
 7392TIP3    H243592   3.835   6.660  15.667 -0.5822 -0.1523 -1.4772
 7393TIP3   OH243593   2.432   3.789   6.370  0.0752 -0.2205 -0.7267
 7393TIP3    H143594   2.374   3.758   6.439 -0.1169 -0.6253 -1.0667
 7393TIP3    H243595   2.479   3.711   6.340  0.2526 -0.0282 -0.9606
 7394TIP3   OH243596   6.041   2.334  12.699 -0.6738 -0.4897  0.4875
 7394TIP3    H143597   6.036   2.298  12.610  0.6257 -0.8531  0.5366
 7394TIP3    H243598   5.954   2.320  12.736 -1.4334  0.2626 -0.9452
 7395TIP3   OH243599   0.201   5.922   5.653 -0.1499  0.2880 -0.2277
 7395TIP3    H143600   0.111   5.901   5.628 -0.7821  1.9343  0.5608
 7395TIP3    H243601   0.242   5.954   5.573 -0.3017 -0.2978 -0.5453
 7396TIP3   OH243602   4.947   1.205  14.885 -0.1070  0.2956 -0.3363
 7396TIP3    H143603   4.974   1.162  14.803  1.7209  0.7549 -0.0180
 7396TIP3    H243604   5.019   1.189  14.945 -1.0550  0.6923  0.9393
 7397TIP3   OH243605   4.029   6.373   2.315 -0.4595 -0.8022  0.3081
 7397TIP3    H143606   4.112   6.329   2.297 -0.9255 -0.5813 -2.7709
 7397TIP3    H243607   4.043   6.463   2.286 -0.9925 -0.0288  2.2738
 7398TIP3   OH243608   3.338   3.037   4.336 -0.5420 -0.0519  0.3781
 7398TIP3    H143609   3.271   3.031   4.268  2.2993  4.3090 -3.3225
 7398TIP3    H243610   3.304   3.101   4.398 -0.5205  0.9094 -0.5831
 7399TIP3   OH243611   5.419   5.213   2.423  0.0985  0.1565  0.3741
 7399TIP3    H143612   5.418   5.179   2.333  0.5777  1.8995 -0.3253
 7399TIP3    H243613   5.505   5.253   2.432 -0.4209  1.1175  1.1762
 7400TIP3   OH243614   2.921   2.364  16.977  0.6744  0.3189  0.0715
 7400TIP3    H143615   2.942   2.434  16.915  0.2828 -2.1706 -3.2002
 7400TIP3    H243616   2.826   2.351  16.968  0.5771 -0.0022  1.3637
 7401TIP3   OH243617   5.365   4.870   3.858 -0.6454 -0.0570 -0.4609
 7401TIP3    H143618   5.423   4.798   3.831  0.7998  0.6744  0.5413
 7401TIP3    H243619   5.421   4.926   3.913 -1.9092  1.4895 -0.6910
 7402TIP3   OH243620   3.166   0.281   4.815  0.2061 -0.6046 -0.1296
 7402TIP3    H143621   3.254   0.256   4.844 -0.1813 -2.5107 -0.4849
 7402TIP3    H243622   3.145   0.220   4.745 -0.2969  1.6606 -2.0781
 7403TIP3   OH243623   5.925   2.556   0.689  0.6112 -0.4284 -0.0058
 7403TIP3    H143624   5.888   2.642   0.706  0.9934 -0.2640  0.0124
 7403TIP3    H243625   5.908   2.506   0.769 -0.7457 -0.7818 -0.4812
 7404TIP3   OH243626   0.673   1.314   2.546 -0.3364 -0.2987 -0.2739
 7404TIP3    H143627   0.637   1.377   2.609 -0.4135 -0.9735  0.3701
 7404TIP3    H243628   0.703   1.241   2.600  0.0537 -0.6722 -0.9868
 7405TIP3   OH243629   2.494   0.088   2.635  0.0579  0.6876 -0.5740
 7405TIP3    H143630   2.480   0.156   2.701 -0.4178 -0.3771  0.4544
 7405TIP3    H243631   2.417   0.032   2.642  1.4212 -1.2081  0.1690
 7406TIP3   OH243632   5.366   4.735  11.890 -0.1155  0.2909 -0.0702
 7406TIP3    H143633   5.305   4.737  11.964 -0.8415  0.8034 -0.6598
 7406TIP3    H243634   5.324   4.677  11.827  1.4078 -1.7096  0.6420
 7407TIP3   OH243635   3.955   4.629   0.085  0.4750 -0.1028  0.1715
 7407TIP3    H143636   3.932   4.585   0.003  1.0269 -2.2986  1.1170
 7407TIP3    H243637   3.892   4.596   0.148 -0.1164  1.7818  0.6089
 7408TIP3   OH243638   1.048   5.626   5.970  0.3487  0.2225  0.0471
 7408TIP3    H143639   1.055   5.721   5.974  0.0162  0.2436  0.1923
 7408TIP3    H243640   0.956   5.609   5.948 -0.6001 -0.0925  3.5376
 7409TIP3   OH243641   3.096   5.103  13.540  0.1413 -0.5627 -0.6683
 7409TIP3    H143642   3.164   5.054  13.585 -0.4294 -1.0574 -0.3182
 7409TIP3    H243643   3.015   5.078  13.584 -0.3031 -0.2036 -1.2510
 7410TIP3   OH243644   4.196   1.148  15.293 -0.2624 -0.3005  0.1869
 7410TIP3    H143645   4.268   1.210  15.304  0.2006 -0.9740  1.0337
 7410TIP3    H243646   4.121   1.192  15.334  0.2542 -0.6276  1.5166
 7411TIP3   OH243647   6.589   4.553  12.269 -0.9518  0.2686 -0.5185
 7411TIP3    H143648   6.566   4.488  12.202 -1.0924 -1.8388  1.4333
 7411TIP3    H243649   6.516   4.549  12.331 -0.5124  1.6640  0.1129
 7412TIP3   OH243650   1.357   2.442   1.906 -0.1679 -0.0951  0.1785
 7412TIP3    H143651   1.306   2.481   1.834 -0.4565  0.2594  0.5724
 7412TIP3    H243652   1.295   2.433   1.978  0.1302 -0.4147  0.3994
 7413TIP3   OH243653   1.441   2.960   1.898  0.2311 -0.0122  0.3902
 7413TIP3    H143654   1.443   2.999   1.985  0.0644  1.7642 -0.3673
 7413TIP3    H243655   1.351   2.928   1.888 -0.2099  1.2008  0.2956
 7414TIP3   OH243656   1.215   0.661  11.626 -0.1288 -0.2144 -0.3114
 7414TIP3    H143657   1.138   0.718  11.624  0.3120  0.4095  0.0893
 7414TIP3    H243658   1.271   0.699  11.694  0.4353 -0.7914 -0.4442
 7415TIP3   OH243659   2.571   3.417  16.375 -0.1089  0.5189 -0.7012
 7415TIP3    H143660   2.638   3.368  16.422 -1.4349 -0.5970  0.0957
 7415TIP3    H243661   2.576   3.385  16.285  0.0844  0.0640 -0.5311
 7416TIP3   OH243662   5.849   2.742   0.134 -0.7954 -0.5342 -0.0666
 7416TIP3    H143663   5.899   2.707   0.208  0.6646  0.7179 -0.3961
 7416TIP3    H243664   5.800   2.816   0.170  0.9370  0.9182 -0.5306
 7417TIP3   OH243665   2.250   4.813   0.446  0.2910 -0.2503 -0.4437
 7417TIP3    H143666   2.272   4.875   0.516  0.0817 -0.7094  0.0322
 7417TIP3    H243667   2.159   4.833   0.424  0.5619  0.3521 -1.0706
 7418TIP3   OH243668   3.076   5.269  14.038  0.7041  0.1207  0.1605
 7418TIP3    H143669   3.092   5.298  13.948  0.5270  0.5764  0.2746
 7418TIP3    H243670   3.153   5.299  14.087 -0.3852  2.1897  0.6827
 7419TIP3   OH243671   5.751   3.124   0.386  0.4266  0.1358  0.6485
 7419TIP3    H143672   5.681   3.178   0.423  1.3438  0.6909  1.6012
 7419TIP3    H243673   5.745   3.041   0.433  0.2813  0.1063  0.5792
 7420TIP3   OH243674   1.929   3.257   5.667 -0.0565 -0.1134 -0.2753
 7420TIP3    H143675   1.869   3.252   5.741 -0.2189 -1.2697 -0.4720
 7420TIP3    H243676   1.962   3.168   5.657 -1.6629 -0.4909 -2.9414
 7421TIP3   OH243677   0.091   3.135   1.749  0.1999 -0.3205  0.4098
 7421TIP3    H143678   0.062   3.176   1.668  1.7939 -1.3642 -0.7396
 7421TIP3    H243679   0.159   3.194   1.783 -0.3686  0.0437  0.9542
 7422TIP3   OH243680   3.805   0.340   0.951 -0.4403 -0.2373 -0.1294
 7422TIP3    H143681   3.867   0.412   0.964 -0.2891 -0.4975  0.6762
 7422TIP3    H243682   3.754   0.366   0.875  2.3644 -1.1943 -2.5519
 7423TIP3   OH243683   6.603   2.560  13.433  0.2424  0.3352 -0.4405
 7423TIP3    H143684   6.612   2.496  13.362 -0.7515  0.6539 -0.8802
 7423TIP3    H243685   6.522   2.607  13.411 -0.6806 -0.2680  1.4638
 7424TIP3   OH243686   2.458   0.695  13.566  0.1315  0.0102 -0.2472
 7424TIP3    H143687   2.519   0.748  13.513 -0.6134  0.6992 -0.4411
 7424TIP3    H243688   2.482   0.715  13.656  1.0402 -0.7342 -0.3071
 7425TIP3   OH243689   5.837   6.344   5.357 -0.2020 -0.3629  0.3142
 7425TIP3    H143690   5.819   6.285   5.430  0.6744 -0.1788  0.6876
 7425TIP3    H243691   5.918   6.311   5.319 -0.4743 -0.2572 -0.3756
 7426TIP3   OH243692   2.423   1.812  12.000  0.0343  0.2155  0.1764
 7426TIP3    H143693   2.466   1.756  12.064 -0.8505  1.5628  2.0270
 7426TIP3    H243694   2.399   1.753  11.928  0.6942 -1.4121  1.2498
 7427TIP3   OH243695   4.948   0.146  10.613  0.4206 -0.4254  0.6860
 7427TIP3    H143696   4.856   0.133  10.591  0.6854 -1.4597  0.1112
 7427TIP3    H243697   4.980   0.058  10.634  1.0812  0.0385  1.7014
 7428TIP3   OH243698   4.036   5.918  15.285 -0.0245 -0.5512 -0.3607
 7428TIP3    H143699   4.013   5.996  15.337 -1.3370 -1.8380  1.0866
 7428TIP3    H243700   4.132   5.923  15.277 -0.0567  1.1045 -0.1457
 7429TIP3   OH243701   4.024   6.174  15.715  0.1537  0.2549  0.2539
 7429TIP3    H143702   4.050   6.135  15.798  0.9688 -0.2479 -0.2143
 7429TIP3    H243703   3.928   6.168  15.714  0.1202  0.5760  1.2921
 7430TIP3   OH243704   6.231   5.685  15.484  0.4012 -0.1376  0.0816
 7430TIP3    H143705   6.171   5.758  15.497  0.5442  0.4391 -2.0161
 7430TIP3    H243706   6.175   5.611  15.460  0.4547  0.3078 -1.5219
 7431TIP3   OH243707   1.438   2.708  15.109  0.0133  0.5187 -0.3465
 7431TIP3    H143708   1.404   2.619  15.116 -1.3988  1.0304 -0.4555
 7431TIP3    H243709   1.418   2.748  15.194 -1.1312  1.3106 -0.9647
 7432TIP3   OH243710   4.450   5.712  11.629 -0.2827  0.0802 -0.0819
 7432TIP3    H143711   4.393   5.743  11.699  0.4341  0.7848  0.2078
 7432TIP3    H243712   4.517   5.780  11.621 -0.6938  0.3200 -1.8746
 7433TIP3   OH243713   2.934   0.684  15.102  0.1757  0.5772 -0.3483
 7433TIP3    H143714   2.887   0.647  15.176  1.9936 -0.0324  0.5759
 7433TIP3    H243715   2.874   0.747  15.063 -0.5930  1.3751  2.0215
 7434TIP3   OH243716   5.507   3.134   4.134 -0.9093 -0.4694 -0.2308
 7434TIP3    H143717   5.507   3.105   4.043  1.1212 -3.2941  0.5438
 7434TIP3    H243718   5.423   3.105   4.168 -0.8345 -1.2933 -0.7130
 7435TIP3   OH243719   4.360   4.393   0.766  0.0078  0.0531  0.6226
 7435TIP3    H143720   4.399   4.313   0.801  2.1439  0.4642 -0.6307
 7435TIP3    H243721   4.337   4.371   0.676  0.6582  0.8254  0.2547
 7436TIP3   OH243722   0.477   4.445  12.778  0.4182  0.1916  0.2389
 7436TIP3    H143723   0.507   4.514  12.838 -0.6591  1.3332 -0.4916
 7436TIP3    H243724   0.432   4.383  12.835 -1.0183  1.5066  0.6202
 7437TIP3   OH243725   2.070   3.499   5.422 -0.1410  0.0870  0.5439
 7437TIP3    H143726   2.062   3.544   5.338  0.4037 -0.2909  0.2815
 7437TIP3    H243727   2.027   3.557   5.484 -0.7951  0.2421 -0.0401
 7438TIP3   OH243728   3.425   1.623   5.527 -0.0863 -0.1022  0.8789
 7438TIP3    H143729   3.497   1.563   5.547  2.5140  2.1056 -1.0030
 7438TIP3    H243730   3.452   1.707   5.565 -0.3462  1.4095 -2.0103
 7439TIP3   OH243731   4.601   3.971  14.434  0.0161 -0.0974 -0.3112
 7439TIP3    H143732   4.672   4.028  14.463 -1.2655  0.5734  1.7067
 7439TIP3    H243733   4.635   3.930  14.354  2.3421  0.7749  0.1378
 7440TIP3   OH243734   4.337   1.566  11.066 -0.3110  0.7388 -0.2233
 7440TIP3    H143735   4.375   1.517  11.139  0.5866  1.1889 -0.3860
 7440TIP3    H243736   4.365   1.656  11.079 -1.4751  1.1292 -0.2499
 7441TIP3   OH243737   4.146   2.088   2.960  0.0370  0.3964 -0.4126
 7441TIP3    H143738   4.183   2.037   2.888 -0.8886  0.5638 -1.0166
 7441TIP3    H243739   4.215   2.150   2.983  0.1527  0.6937 -1.5054
 7442TIP3   OH243740   4.987   0.308  16.044  0.5544 -0.2141  0.1253
 7442TIP3    H143741   5.078   0.283  16.029  0.6330  0.0029  0.2351
 7442TIP3    H243742   4.992   0.397  16.079  0.2218  0.3521 -1.2185
 7443TIP3   OH243743   4.016   2.576   6.146  0.1290 -0.5014  0.4030
 7443TIP3    H143744   4.058   2.559   6.230 -0.1023  0.0251  0.6311
 7443TIP3    H243745   4.011   2.490   6.103  1.3017 -0.5983  0.4241
 7444TIP3   OH243746   2.209   2.881   5.099  0.1121 -0.5636 -0.2169
 7444TIP3    H143747   2.165   2.863   5.182 -0.6391 -2.7349 -1.0118
 7444TIP3    H243748   2.201   2.800   5.049  2.1801  0.0555 -1.7121
 7445TIP3   OH243749   2.965   2.940   1.635  0.2550 -0.2381 -0.5897
 7445TIP3    H143750   2.910   3.006   1.593  2.8674  0.8460 -2.6397
 7445TIP3    H243751   2.962   2.864   1.576  1.0251 -0.1143 -0.8022
 7446TIP3   OH243752   2.036   5.620   5.284  0.0702 -0.4670  0.3853
 7446TIP3    H143753   2.012   5.655   5.198  2.5643 -0.0708 -0.2479
 7446TIP3    H243754   1.961   5.566   5.310  0.1338 -2.6309 -3.1746
 7447TIP3   OH243755   3.660   3.139   4.616 -0.8808  0.3076  0.0996
 7447TIP3    H143756   3.729   3.144   4.549 -1.6153  0.9161 -0.6307
 7447TIP3    H243757   3.662   3.048   4.645  0.3294  0.3451  0.2067
 7448TIP3   OH243758   5.968   3.895  16.234 -0.1894 -0.5864  0.3736
 7448TIP3    H143759   6.051   3.930  16.202  1.3975 -1.6131  3.0479
 7448TIP3    H243760   5.968   3.804  16.205 -0.5447 -0.5046  0.1124
 7449TIP3   OH243761   5.433   5.770   1.663 -0.2897 -0.1302 -0.5451
 7449TIP3    H143762   5.430   5.689   1.612 -0.5470 -1.7997  1.9410
 7449TIP3    H243763   5.409   5.838   1.601  0.4770 -1.8656 -2.8826
 7450TIP3   OH243764   5.661   0.539   0.404  0.2403 -0.0477 -0.1032
 7450TIP3    H143765   5.723   0.466   0.404 -1.2311 -1.3632  0.9933
 7450TIP3    H243766   5.701   0.605   0.461  1.4294 -0.1090 -0.8326
 7451TIP3   OH243767   6.433   1.407   1.979  0.2203 -0.0049 -0.3143
 7451TIP3    H143768   6.504   1.469   1.995 -0.0660  0.4110 -0.6267
 7451TIP3    H243769   6.469   1.322   2.004  1.9794 -0.3295 -3.4064
 7452TIP3   OH243770   2.607   3.861  16.915 -0.0765  0.0527  0.9765
 7452TIP3    H143771   2.517   3.830  16.923 -0.7627  1.4871 -0.5747
 7452TIP3    H243772   2.636   3.828  16.829  0.5267  0.4393  1.0273
 7453TIP3   OH243773   1.964   1.723   3.380  0.0947  0.5659 -0.3759
 7453TIP3    H143774   1.910   1.800   3.362  0.2071  1.0270  1.1124
 7453TIP3    H243775   1.998   1.697   3.294 -0.2051  1.9857 -0.9592
 7454TIP3   OH243776   1.861   3.394  12.652  0.2573 -0.3272 -0.1095
 7454TIP3    H143777   1.879   3.488  12.655 -0.5521 -0.0673 -1.9599
 7454TIP3    H243778   1.771   3.388  12.620 -0.1970 -1.7325  1.3042
 7455TIP3   OH243779   5.979   3.853   6.598  0.9811 -0.2552  0.5352
 7455TIP3    H143780   5.971   3.758   6.586  0.2786 -0.1913  0.4546
 7455TIP3    H243781   6.051   3.863   6.661 -0.4196 -0.9724  2.3523
 7456TIP3   OH243782   5.205   4.301  12.588 -0.9671 -0.2078 -0.5747
 7456TIP3    H143783   5.247   4.279  12.505 -0.7831 -2.0486 -0.0300
 7456TIP3    H243784   5.256   4.255  12.654 -1.6998  0.4404  0.4767
 7457TIP3   OH243785   0.421   3.601   3.072  0.4716 -0.0458  0.2493
 7457TIP3    H143786   0.463   3.667   3.016 -0.2368 -0.1775 -0.4568
 7457TIP3    H243787   0.363   3.554   3.013  1.5905 -1.8914  0.5491
 7458TIP3   OH243788   4.016   2.506   5.209  0.0233 -0.1395  0.0431
 7458TIP3    H143789   4.012   2.571   5.139  0.2877 -0.3234 -0.1423
 7458TIP3    H243790   4.056   2.553   5.283 -1.7193  0.5331  0.6142
 7459TIP3   OH243791   1.008   3.073   0.649  0.4883 -0.0796  0.1940
 7459TIP3    H143792   0.982   3.147   0.704  0.8573 -0.3387  0.7279
 7459TIP3    H243793   0.941   3.006   0.666 -0.1664  0.3268 -0.7227
 7460TIP3   OH243794   0.892   4.027  15.130 -0.1272  0.3846 -0.0334
 7460TIP3    H143795   0.904   3.932  15.125 -0.3065  0.3384  0.3978
 7460TIP3    H243796   0.921   4.059  15.044 -1.7518 -0.2355 -0.8610
 7461TIP3   OH243797   6.246   2.861  11.364  0.1857  0.0001  0.3229
 7461TIP3    H143798   6.252   2.900  11.277 -0.2329 -1.3243 -0.3191
 7461TIP3    H243799   6.181   2.915  11.410 -0.8004 -0.2598 -0.7293
 7462TIP3   OH243800   2.652   0.237  10.605  0.1143  0.1228 -0.3745
 7462TIP3    H143801   2.666   0.332  10.611  0.6871  0.0318 -0.2249
 7462TIP3    H243802   2.738   0.199  10.620 -0.3124 -0.4700  0.7219
 7463TIP3   OH243803   0.702   3.092   5.346 -0.1248  0.2453  0.0438
 7463TIP3    H143804   0.612   3.107   5.318 -0.3079  1.4485  1.1842
 7463TIP3    H243805   0.726   3.008   5.308 -2.1682 -0.7073  0.7589
 7464TIP3   OH243806   2.931   5.410  16.450 -0.5586 -0.0781 -0.1761
 7464TIP3    H143807   2.911   5.487  16.397  0.3268 -0.2814 -0.8271
 7464TIP3    H243808   3.016   5.430  16.490 -1.3928  0.2420  1.5133
 7465TIP3   OH243809   0.470   4.001  14.505 -0.1188 -0.1062  0.2243
 7465TIP3    H143810   0.394   3.978  14.451 -0.7113 -0.3303  1.1341
 7465TIP3    H243811   0.545   3.969  14.454 -0.5386  0.8977 -1.1030
 7466TIP3   OH243812   1.984   5.773   0.080 -0.7949  0.0560 -0.3572
 7466TIP3    H143813   1.972   5.759  -0.013 -0.6245  0.8992 -0.5161
 7466TIP3    H243814   1.895   5.772   0.116 -0.9431  0.6884 -0.6851
 7467TIP3   OH243815   4.733   2.552  15.321  0.0374  0.4228  0.0431
 7467TIP3    H143816   4.772   2.627  15.277  2.3853 -0.2583  0.8183
 7467TIP3    H243817   4.679   2.591  15.391  0.8343  1.3919  0.1385
 7468TIP3   OH243818   5.068   2.492  15.017 -0.1582 -0.1617  0.1969
 7468TIP3    H143819   5.138   2.439  14.979 -0.7166 -0.3931 -0.5423
 7468TIP3    H243820   5.077   2.480  15.112 -1.8094 -3.6518  0.0538
 7469TIP3   OH243821   2.789   4.331  12.197  1.4399  0.0161  0.0122
 7469TIP3    H143822   2.847   4.349  12.124  0.8472 -0.3122 -0.5441
 7469TIP3    H243823   2.705   4.309  12.157  0.6995  1.2378  0.8097
 7470TIP3   OH243824   0.963   0.846  17.044 -0.7877  0.1962  0.2582
 7470TIP3    H143825   0.922   0.848  17.130 -0.5444  0.2326  0.3724
 7470TIP3    H243826   0.962   0.937  17.014 -0.2454  0.2915  0.5169
 7471TIP3   OH243827   3.031   1.335  13.172  0.5663  0.4403 -0.3049
 7471TIP3    H143828   3.124   1.319  13.155  0.7204  0.3520  0.5660
 7471TIP3    H243829   2.986   1.303  13.094  1.0417 -2.1570  0.4004
 7472TIP3   OH243830   0.470   6.194  11.711  0.0171 -0.0460 -0.0028
 7472TIP3    H143831   0.427   6.215  11.794 -0.2804 -0.8436  0.0574
 7472TIP3    H243832   0.471   6.277  11.662  0.1676  0.4173  0.7794
 7473TIP3   OH243833   5.848   0.779  15.008 -0.4321 -0.2367  0.3608
 7473TIP3    H143834   5.793   0.703  15.028 -0.1105 -0.3738  0.7143
 7473TIP3    H243835   5.795   0.830  14.946 -0.5373 -0.8832 -0.0944
 7474TIP3   OH243836   4.214   0.290  11.707 -0.6278  0.2739  0.0214
 7474TIP3    H143837   4.180   0.277  11.796  0.0753  0.6883  0.3621
 7474TIP3    H243838   4.290   0.233  11.702 -0.8082  0.0630 -0.4106
 7475TIP3   OH243839   2.120   1.218  13.193  0.2375  0.1741 -0.5466
 7475TIP3    H143840   2.135   1.132  13.153  1.8153  1.0148 -1.9121
 7475TIP3    H243841   2.190   1.273  13.157  1.4607  1.1907  2.9696
 7476TIP3   OH243842   0.718   1.577   1.864  0.2479  0.4461 -0.3601
 7476TIP3    H143843   0.750   1.603   1.950  1.1605 -0.3924 -0.4354
 7476TIP3    H243844   0.623   1.590   1.869  0.2851  0.3564  0.7882
 7477TIP3   OH243845   5.828   0.252  16.528 -0.3741 -0.2607 -0.1703
 7477TIP3    H143846   5.799   0.161  16.526 -0.0614 -0.3724  0.3161
 7477TIP3    H243847   5.921   0.247  16.547 -0.2624  0.1451 -0.5928
 7478TIP3   OH243848   3.864   1.323  13.053  0.9012 -0.1338 -0.9109
 7478TIP3    H143849   3.881   1.242  13.102 -0.1103 -0.9835 -1.9165
 7478TIP3    H243850   3.784   1.359  13.092  0.9171 -0.0275 -0.9751
 7479TIP3   OH243851   5.211   6.267   2.768  0.3910 -0.4624  0.1697
 7479TIP3    H143852   5.165   6.244   2.687  1.1403 -1.4419 -0.0018
 7479TIP3    H243853   5.171   6.210   2.834  0.1187 -0.0141  0.3948
 7480TIP3   OH243854   0.309   6.403   3.690 -0.2044  0.0512  0.5215
 7480TIP3    H143855   0.334   6.344   3.619 -2.6906 -0.5681  0.0446
 7480TIP3    H243856   0.251   6.350   3.746  0.6314  0.9275  2.3083
 7481TIP3   OH243857   5.227   5.237   3.234 -0.4932 -0.1222 -0.1474
 7481TIP3    H143858   5.200   5.226   3.142 -0.6539  0.2974 -0.1563
 7481TIP3    H243859   5.322   5.247   3.230 -0.5240  0.1513 -0.3001
 7482TIP3   OH243860   4.191   0.466   1.427 -0.5179 -0.4257  0.0808
 7482TIP3    H143861   4.142   0.548   1.423 -0.6454 -0.4203  1.3278
 7482TIP3    H243862   4.147   0.409   1.365 -1.6396 -0.1650  0.6014
 7483TIP3   OH243863   3.226   6.574   6.021  0.2728 -0.0910  0.1812
 7483TIP3    H143864   3.266   6.661   6.015  1.7071 -0.6833  0.6233
 7483TIP3    H243865   3.152   6.586   6.080 -2.5147  1.7778 -3.2443
 7484TIP3   OH243866   1.328   6.207  15.579  0.0728  0.2530  0.3008
 7484TIP3    H143867   1.421   6.227  15.586  0.1441 -0.4244  1.4695
 7484TIP3    H243868   1.305   6.170  15.664 -0.5722 -2.4188 -0.9360
 7485TIP3   OH243869   1.117   5.123   6.033  0.0396 -0.2814  0.1979
 7485TIP3    H143870   1.072   5.092   6.112 -0.3830  2.2720  1.0731
 7485TIP3    H243871   1.121   5.218   6.044 -0.7101  0.2734 -3.2045
 7486TIP3   OH243872   1.893   1.482  12.700 -0.6226 -0.1464 -0.5222
 7486TIP3    H143873   1.860   1.490  12.611  0.8956  0.2650 -1.0746
 7486TIP3    H243874   1.977   1.527  12.699 -1.2745  1.2818  1.5448
 7487TIP3   OH243875   4.599   5.196  14.018 -0.5168 -0.4906  0.0514
 7487TIP3    H143876   4.578   5.151  14.099  1.3292  0.4408  1.1197
 7487TIP3    H243877   4.563   5.284  14.029  0.9161  0.0703  0.4882
 7488TIP3   OH243878   4.032   1.467   3.298  0.3959 -0.2413  0.0801
 7488TIP3    H143879   4.039   1.519   3.377  0.3501  1.0673 -0.7448
 7488TIP3    H243880   4.119   1.471   3.258 -0.3928  1.9536 -1.6136
 7489TIP3   OH243881   5.837   3.492   4.200  0.1245 -0.4961 -0.3821
 7489TIP3    H143882   5.862   3.441   4.277  0.7947 -1.2726 -1.0911
 7489TIP3    H243883   5.920   3.516   4.159 -0.1952  0.8962 -0.2437
 7490TIP3   OH243884   5.053   3.979  14.454  0.3081  0.2242 -0.4568
 7490TIP3    H143885   5.109   3.912  14.493 -0.8939 -0.0231  0.9974
 7490TIP3    H243886   5.073   3.977  14.361 -0.8661 -3.4224 -0.8052
 7491TIP3   OH243887   4.182   3.269  14.392  0.2316 -0.1003  0.0133
 7491TIP3    H143888   4.192   3.329  14.319 -0.2334  0.4533  0.3994
 7491TIP3    H243889   4.271   3.241  14.413  0.8101  2.5779  1.6012
 7492TIP3   OH243890   2.398   2.029   0.991 -0.7092 -0.3018 -0.5894
 7492TIP3    H143891   2.386   1.987   1.076  3.2985 -1.1580 -0.2166
 7492TIP3    H243892   2.391   1.957   0.927 -1.7121 -0.0217 -0.8109
 7493TIP3   OH243893   3.732   2.323  14.456  0.2829  0.2732 -0.0492
 7493TIP3    H143894   3.797   2.286  14.395 -1.5007 -1.5255 -1.0037
 7493TIP3    H243895   3.729   2.416  14.434  0.3145 -0.1693 -2.1688
 7494TIP3   OH243896   5.732   1.291   5.334 -0.5745  0.4079  0.0439
 7494TIP3    H143897   5.689   1.243   5.404 -1.9211 -1.8422 -2.1317
 7494TIP3    H243898   5.825   1.273   5.346 -0.4456  2.3594  2.7376
 7495TIP3   OH243899   6.612   1.606   3.093  0.1916  0.2483  0.4081
 7495TIP3    H143900   6.520   1.630   3.099 -0.7496 -2.0961 -2.4299
 7495TIP3    H243901   6.612   1.513   3.070  3.2740  0.1782  0.1996
 7496TIP3   OH243902   3.855   1.436   2.609  0.5220  0.5722  0.3088
 7496TIP3    H143903   3.827   1.482   2.530  0.9581  0.0798 -0.1459
 7496TIP3    H243904   3.815   1.484   2.681  0.7531  1.5065 -0.1663
 7497TIP3   OH243905   1.515   4.398   2.391 -0.1827  0.1340  0.8103
 7497TIP3    H143906   1.474   4.461   2.451  1.0096  0.4518  1.3085
 7497TIP3    H243907   1.605   4.391   2.422 -0.0270 -1.0517  0.1317
 7498TIP3   OH243908   5.635   2.580  16.668 -0.0044  0.2305  0.2396
 7498TIP3    H143909   5.574   2.507  16.667  1.3417 -0.9428 -0.3489
 7498TIP3    H243910   5.640   2.606  16.760 -0.6634 -0.2705  0.4223
 7499TIP3   OH243911   4.203   4.999   1.115 -0.1214  0.3969 -0.3418
 7499TIP3    H143912   4.227   5.091   1.103  1.6802 -0.0987 -0.9247
 7499TIP3    H243913   4.256   4.970   1.189  0.1728 -0.4422 -0.8641
 7500TIP3   OH243914   3.359   4.499  11.838  0.3461 -0.5311  0.2100
 7500TIP3    H143915   3.280   4.552  11.845 -1.9867 -3.6106 -0.5892
 7500TIP3    H243916   3.385   4.507  11.747  1.4057  0.9891  0.6177
 7501TIP3   OH243917   4.754   4.068   4.371 -0.5210  0.2277  0.2067
 7501TIP3    H143918   4.744   4.152   4.415  0.4954  0.7413 -0.4979
 7501TIP3    H243919   4.796   4.090   4.287 -0.6034 -0.9371 -0.1540
 7502TIP3   OH243920   0.276   5.752   5.315  0.2990 -0.1091 -0.1911
 7502TIP3    H143921   0.247   5.661   5.325  1.6295 -0.6777 -1.0886
 7502TIP3    H243922   0.370   5.749   5.332  0.5825  0.8696 -1.4252
 7503TIP3   OH243923   6.785   3.693   6.268  0.2435  0.2265  0.3195
 7503TIP3    H143924   6.781   3.644   6.186  1.7281  0.0672  0.3162
 7503TIP3    H243925   6.693   3.700   6.296 -0.2706  0.0944 -1.2232
 7504TIP3   OH243926   6.262   1.815   4.350  0.0062  0.1562  0.1543
 7504TIP3    H143927   6.231   1.857   4.430  0.5427 -1.6615  1.3736
 7504TIP3    H243928   6.357   1.825   4.353  0.0170  0.2591 -0.3881
 7505TIP3   OH243929   5.316   0.258  11.446  0.0729  0.4075 -0.2226
 7505TIP3    H143930   5.271   0.281  11.365  1.2687  0.5510 -0.8838
 7505TIP3    H243931   5.372   0.334  11.464  1.1031 -0.3289 -0.2294
 7506TIP3   OH243932   3.518   4.247  13.927 -0.1685  0.0859  0.5349
 7506TIP3    H143933   3.460   4.172  13.942 -1.6468  1.4020  1.6758
 7506TIP3    H243934   3.459   4.318  13.901  1.0456  1.2440  0.8388
 7507TIP3   OH243935   5.294   3.313  13.797 -0.1568 -0.1551  0.1831
 7507TIP3    H143936   5.211   3.333  13.840 -1.0563 -1.0633 -1.0351
 7507TIP3    H243937   5.347   3.272  13.864 -1.8564 -2.4085  0.2613
 7508TIP3   OH243938   2.602   5.437   0.928  0.0529  0.1857 -0.1390
 7508TIP3    H143939   2.614   5.502   0.998 -2.1055  0.3245  0.1660
 7508TIP3    H243940   2.667   5.460   0.862  1.8336  0.3479  1.5775
 7509TIP3   OH243941   3.875   3.337   0.979 -0.3062 -0.6008  0.5531
 7509TIP3    H143942   3.793   3.326   0.931  0.1853  0.7773 -0.6595
 7509TIP3    H243943   3.862   3.287   1.060 -1.8338 -1.4872 -0.1939
 7510TIP3   OH243944   4.250   2.751   2.248  0.1206  0.6015 -0.0945
 7510TIP3    H143945   4.247   2.792   2.334  1.0049  1.8107 -0.6111
 7510TIP3    H243946   4.280   2.661   2.265  0.7749  0.9742  0.8105
 7511TIP3   OH243947   0.263   5.659   4.240 -0.0168 -0.3158  0.1012
 7511TIP3    H143948   0.347   5.615   4.252 -0.9622 -2.2798 -0.2414
 7511TIP3    H243949   0.197   5.591   4.250 -1.5577  0.9938 -0.5515
 7512TIP3   OH243950   0.126   1.149   1.691  0.1095 -0.0853  0.3911
 7512TIP3    H143951   0.111   1.059   1.661 -0.7283  0.4183 -0.7761
 7512TIP3    H243952   0.218   1.166   1.668  0.3989 -0.7675  0.9930
 7513TIP3   OH243953   0.053   4.120   1.643  0.2166  0.2527 -0.2695
 7513TIP3    H143954   0.039   4.051   1.578  0.5010 -1.4519  1.3822
 7513TIP3    H243955   0.143   4.109   1.672  0.2360  1.2646  0.1090
 7514TIP3   OH243956   3.939   1.527  11.478 -0.5954  0.2658  0.3437
 7514TIP3    H143957   3.917   1.591  11.545 -0.7208 -1.1758  1.7407
 7514TIP3    H243958   3.896   1.560  11.399 -1.4770  1.3806  1.2445
 7515TIP3   OH243959   4.226   4.536   1.486 -0.2578 -0.3359 -0.3781
 7515TIP3    H143960   4.319   4.543   1.461 -0.0617 -0.3765  0.3098
 7515TIP3    H243961   4.193   4.463   1.434 -0.0550  0.0518 -1.0669
 7516TIP3   OH243962   1.086   6.383   3.101  0.1088  0.3931 -0.0904
 7516TIP3    H143963   1.130   6.465   3.079 -0.2107  0.4137 -0.6570
 7516TIP3    H243964   1.154   6.330   3.144  0.4287  0.7864 -0.1116
 7517TIP3   OH243965   6.160   5.779  11.694  0.1545 -0.2333 -0.0449
 7517TIP3    H143966   6.210   5.858  11.674  1.6924 -1.2788 -0.5315
 7517TIP3    H243967   6.111   5.801  11.773  0.9184  1.0532  0.0985
 7518TIP3   OH243968   3.436   4.402  17.100  0.3629 -0.0932 -0.1882
 7518TIP3    H143969   3.455   4.376  17.010  2.5919  0.2868  0.1110
 7518TIP3    H243970   3.436   4.498  17.098 -2.8284  0.0037 -0.3367
 7519TIP3   OH243971   5.287   0.977  16.093  0.1968 -0.2242 -0.1422
 7519TIP3    H143972   5.357   0.930  16.140  1.8857  1.7241 -0.5625
 7519TIP3    H243973   5.222   0.997  16.160  0.6007 -1.0405  0.5123
 7520TIP3   OH243974   4.605   4.372  14.095  0.2193 -0.5230  0.2849
 7520TIP3    H143975   4.538   4.437  14.076 -1.2338 -1.2649  2.5028
 7520TIP3    H243976   4.578   4.333  14.178  2.6387 -1.8805  0.5323
 7521TIP3   OH243977   2.572   2.476  12.376 -0.4368 -0.3482 -0.2954
 7521TIP3    H143978   2.489   2.519  12.397 -0.5052 -0.6703  0.1013
 7521TIP3    H243979   2.575   2.478  12.280  0.4959  2.2938 -0.3013
 7522TIP3   OH243980   4.558   6.419  15.640  0.1050  0.0060 -0.1725
 7522TIP3    H143981   4.505   6.437  15.563  0.3329  2.3197  0.1352
 7522TIP3    H243982   4.510   6.353  15.688 -0.2318 -1.2152 -2.0749
 7523TIP3   OH243983   1.415   2.192   2.629 -0.1316 -0.4063 -0.6552
 7523TIP3    H143984   1.355   2.196   2.554  0.3669 -0.9383 -1.0929
 7523TIP3    H243985   1.357   2.185   2.705 -0.6366 -0.4544 -1.0351
 7524TIP3   OH243986   6.705   0.535  15.059  0.5100 -0.1288 -0.3111
 7524TIP3    H143987   6.721   0.443  15.082  1.6591  0.0965 -0.1185
 7524TIP3    H243988   6.713   0.538  14.964 -0.4972 -0.3880 -0.4173
 7525TIP3   OH243989   3.937   5.142   1.163 -0.0780  1.1967 -0.1743
 7525TIP3    H143990   4.021   5.103   1.140 -0.4980 -0.6088  1.1001
 7525TIP3    H243991   3.893   5.156   1.080  0.9896  1.0251 -0.7825
 7526TIP3   OH243992   3.068   0.619   1.388 -0.3292  0.1357 -0.3732
 7526TIP3    H143993   3.095   0.546   1.332 -1.5842 -0.9355  0.3429
 7526TIP3    H243994   3.144   0.677   1.392  0.4023 -0.6932 -1.6643
 7527TIP3   OH243995   5.392   4.335  13.762 -0.0381  0.2951  0.5819
 7527TIP3    H143996   5.474   4.377  13.735 -0.3890 -0.1004 -1.2386
 7527TIP3    H243997   5.377   4.367  13.850  1.7940  0.8092  0.7574
 7528TIP3   OH243998   3.278   1.265  11.665  0.1954 -0.0130  0.9080
 7528TIP3    H143999   3.241   1.185  11.627 -0.5316  1.0929 -0.8469
 7528TIP3    H244000   3.204   1.324  11.674  1.1074  1.3825 -0.3230
 7529TIP3   OH244001   5.846   1.673  11.341 -0.0093 -0.1673 -1.2472
 7529TIP3    H144002   5.824   1.620  11.418 -1.7692 -0.9637 -2.2339
 7529TIP3    H244003   5.825   1.762  11.367  1.5627 -0.0804 -0.0767
 7530TIP3   OH244004   3.539   5.631  11.306 -0.2367 -1.3139 -0.4277
 7530TIP3    H144005   3.510   5.721  11.320 -0.8147 -1.5122 -0.3229
 7530TIP3    H244006   3.537   5.619  11.211  1.9597 -0.5356 -0.6396
 7531TIP3   OH244007   3.966   0.674   0.071 -0.1965  0.5578 -0.1594
 7531TIP3    H144008   4.003   0.728   0.002  0.5820  1.9408  1.2926
 7531TIP3    H244009   4.016   0.696   0.149  0.7867 -2.9287  0.3578
 7532TIP3   OH244010   2.506   5.278  13.531  0.1618  0.1362 -0.1415
 7532TIP3    H144011   2.561   5.313  13.460 -1.4522  1.2807 -0.8792
 7532TIP3    H244012   2.417   5.298  13.504 -0.6347 -1.5033  1.1290
 7533TIP3   OH244013   2.872   4.153   0.372 -0.0910 -0.6113 -0.3729
 7533TIP3    H144014   2.780   4.172   0.355  0.0738  1.4739  0.8225
 7533TIP3    H244015   2.870   4.083   0.437 -0.8164 -0.7178 -0.4990
 7534TIP3   OH244016   5.825   6.466  13.862 -0.0644 -0.2461  0.0287
 7534TIP3    H144017   5.885   6.492  13.792 -1.1642 -0.6273 -1.1018
 7534TIP3    H244018   5.842   6.372  13.874  0.0105 -0.2153  0.1673
 7535TIP3   OH244019   5.197   2.717  13.944  0.1063 -0.3409 -0.5344
 7535TIP3    H144020   5.138   2.765  14.003 -0.0984 -0.0270 -0.9832
 7535TIP3    H244021   5.148   2.638  13.920  0.6119 -1.0024  0.5387
 7536TIP3   OH244022   0.298   3.909   2.484 -0.1725 -0.0340 -0.3563
 7536TIP3    H144023   0.362   3.901   2.554  0.1334 -1.3957 -0.7671
 7536TIP3    H244024   0.347   3.941   2.409 -0.0405 -0.6835 -0.5547
 7537TIP3   OH244025   4.077   5.228  16.577  0.1330  0.3841 -0.0442
 7537TIP3    H144026   4.034   5.201  16.496  1.4994  0.1636 -0.7238
 7537TIP3    H244027   4.094   5.321  16.565 -1.9868  0.9899  1.1079
 7538TIP3   OH244028   2.911   0.332   3.065  0.0727  0.2007  0.2009
 7538TIP3    H144029   2.834   0.313   3.119 -0.9423 -0.0407 -1.2535
 7538TIP3    H244030   2.966   0.389   3.119 -1.1824  0.4719  1.2313
 7539TIP3   OH244031   3.969   2.331   6.026 -0.0147  0.1752 -0.4850
 7539TIP3    H144032   3.994   2.285   5.946  1.4534  1.6134 -0.9103
 7539TIP3    H244033   4.033   2.303   6.091  0.5783  1.1542 -0.6146
 7540TIP3   OH244034   0.617   3.275   5.784  0.4802 -0.5120 -0.2542
 7540TIP3    H144035   0.555   3.275   5.711  0.6925 -0.3733 -0.4373
 7540TIP3    H244036   0.578   3.216   5.849 -0.1207  0.0345 -0.1186
 7541TIP3   OH244037   5.805   3.848   2.412  0.5259 -0.8864  0.2523
 7541TIP3    H144038   5.740   3.779   2.394  0.4527 -0.5060 -1.0473
 7541TIP3    H244039   5.876   3.802   2.458  1.2816 -2.2592 -2.0841
 7542TIP3   OH244040   5.926   5.596  14.532  0.3974  0.5272  0.4988
 7542TIP3    H144041   5.846   5.566  14.576 -0.1256 -0.3212 -0.9471
 7542TIP3    H244042   5.916   5.691  14.527 -0.5149  0.4350  0.3750
 7543TIP3   OH244043   6.185   5.233  12.684  0.8599 -0.7189  0.1449
 7543TIP3    H144044   6.263   5.179  12.686  2.2390  1.1119 -0.8394
 7543TIP3    H244045   6.217   5.322  12.699 -0.7468  0.3534 -2.1485
 7544TIP3   OH244046   3.725   4.470  11.524 -0.6579 -0.6118  0.1324
 7544TIP3    H144047   3.799   4.521  11.555 -0.2511 -1.3375  0.3616
 7544TIP3    H244048   3.740   4.460  11.430 -1.1595  0.3664 -0.0683
 7545TIP3   OH244049   0.130   1.374   6.342  0.1604 -0.3014  0.6630
 7545TIP3    H144050   0.105   1.454   6.296  0.0179  1.3345  3.4047
 7545TIP3    H244051   0.059   1.313   6.322 -1.3770  1.2886  0.9825
 7546TIP3   OH244052   0.939   0.625  11.010 -0.6778 -0.1776  0.1143
 7546TIP3    H144053   0.911   0.715  11.028  2.0582  0.8274 -0.2381
 7546TIP3    H244054   0.992   0.601  11.086  0.9723 -0.3842 -1.0545
 7547TIP3   OH244055   5.663   0.775   2.162 -0.1452 -0.0800  0.4958
 7547TIP3    H144056   5.679   0.741   2.074  0.3615 -0.0540  0.5720
 7547TIP3    H244057   5.606   0.709   2.203 -0.2648 -0.1627  0.1960
 7548TIP3   OH244058   6.261   0.451   2.922  0.0284  0.4728 -0.3090
 7548TIP3    H144059   6.344   0.403   2.922 -0.4789 -0.5006  1.3979
 7548TIP3    H244060   6.268   0.510   2.997 -1.0550 -0.1182  0.2893
 7549TIP3   OH244061   2.668   1.028   0.806  0.6035  0.3168  0.1318
 7549TIP3    H144062   2.689   1.093   0.738  1.6688 -0.9978 -0.8443
 7549TIP3    H244063   2.751   0.983   0.822 -0.3648 -1.6949 -0.1852
 7550TIP3   OH244064   4.381   4.722   2.421  0.2862  0.0402 -0.1430
 7550TIP3    H144065   4.437   4.665   2.368 -2.0681 -2.6474 -0.0007
 7550TIP3    H244066   4.370   4.674   2.504 -3.4659 -0.5443 -0.7794
 7551TIP3   OH244067   1.460   4.028   0.432  0.2189 -0.0167  0.4417
 7551TIP3    H144068   1.552   4.055   0.434 -0.0332  0.8187  1.7071
 7551TIP3    H244069   1.447   3.983   0.515 -0.7324  0.6358  0.6553
 7552TIP3   OH244070   2.437   5.669   2.886 -0.0574  0.5169 -0.0247
 7552TIP3    H144071   2.529   5.656   2.906  0.2089  2.5609  0.2780
 7552TIP3    H244072   2.410   5.743   2.940 -1.4195  1.0420 -1.3384
 7553TIP3   OH244073   1.644   1.393  14.952 -0.1316  0.8689  0.3372
 7553TIP3    H144074   1.735   1.414  14.932  0.0202 -1.0549 -1.3600
 7553TIP3    H244075   1.641   1.386  15.047  1.5208  0.9070  0.4250
 7554TIP3   OH244076   6.449   4.351   1.375 -0.0622 -0.3113  0.5979
 7554TIP3    H144077   6.360   4.385   1.383  0.3307  1.0256 -0.3623
 7554TIP3    H244078   6.503   4.414   1.423  0.5185 -0.3435 -0.0085
 7555TIP3   OH244079   2.679   3.483  10.644  0.0193  0.2264 -0.0156
 7555TIP3    H144080   2.610   3.424  10.674 -0.3841  1.3530  1.4399
 7555TIP3    H244081   2.633   3.561  10.614  0.5742  0.1151 -1.2085
 7556TIP3   OH244082   4.021   3.135   2.573 -0.2618 -0.2450 -0.7723
 7556TIP3    H144083   3.948   3.196   2.573 -0.5239 -0.5481  0.0027
 7556TIP3    H244084   4.092   3.181   2.528 -0.3466  0.7694  0.1060
 7557TIP3   OH244085   2.654   5.802   2.445  0.7674  0.7945 -0.2250
 7557TIP3    H144086   2.652   5.881   2.391  0.2503  1.8402  1.2785
 7557TIP3    H244087   2.648   5.833   2.535 -1.4785 -1.0364  0.3618
 7558TIP3   OH244088   2.004   3.592   3.843  0.1765  0.3351  0.3386
 7558TIP3    H144089   1.912   3.615   3.851  0.2771  1.4303 -1.1401
 7558TIP3    H244090   2.039   3.595   3.932 -1.4430 -1.2504  1.0810
 7559TIP3   OH244091   6.399   0.092  11.574  0.5572  0.0605 -0.4215
 7559TIP3    H144092   6.351   0.118  11.495 -0.0609 -1.3506 -0.5327
 7559TIP3    H244093   6.491   0.114  11.554  0.4140 -0.2727 -1.5311
 7560TIP3   OH244094   2.388   3.372   1.241 -0.0901  0.6711 -0.0377
 7560TIP3    H144095   2.369   3.336   1.328 -0.0468  0.3778 -0.1487
 7560TIP3    H244096   2.408   3.464   1.257  0.3889  0.5084  0.3219
 7561TIP3   OH244097   1.325   6.634  12.726  0.4284  0.2230  0.3213
 7561TIP3    H144098   1.255   6.694  12.700  1.4576  0.2603 -2.8397
 7561TIP3    H244099   1.298   6.549  12.692  0.6476 -0.3798  1.5932
 7562TIP3   OH244100   4.153   0.468  15.776  0.2798  0.2401  0.2827
 7562TIP3    H144101   4.220   0.527  15.741 -0.4840  1.1728  0.3480
 7562TIP3    H244102   4.139   0.499  15.865  0.1702 -0.3123  0.4574
 7563TIP3   OH244103   6.344   0.505   5.880 -0.1512 -0.1927 -0.3968
 7563TIP3    H144104   6.364   0.414   5.899  0.8324  0.2076  0.6484
 7563TIP3    H244105   6.425   0.541   5.844  0.2420  0.8006  1.3432
 7564TIP3   OH244106   5.495   4.657   3.252 -0.7287  0.2519  0.5728
 7564TIP3    H144107   5.533   4.714   3.319  1.2716 -0.1322 -0.1614
 7564TIP3    H244108   5.452   4.717   3.191  0.5796  0.9389  0.2846
 7565TIP3   OH244109   1.452   4.107  13.110  0.2290 -0.3207  0.8492
 7565TIP3    H144110   1.372   4.066  13.079  0.0804  0.3019  0.3744
 7565TIP3    H244111   1.479   4.056  13.186 -0.0294 -1.1889  0.3642
 7566TIP3   OH244112   5.032   3.777   0.998  0.4421  0.1775  0.3540
 7566TIP3    H144113   4.961   3.719   0.970 -0.8239  2.4236 -1.4964
 7566TIP3    H244114   5.027   3.778   1.093 -1.3882 -0.4799  0.2951
 7567TIP3   OH244115   4.841   5.477  16.804 -0.3905 -0.1894 -0.1653
 7567TIP3    H144116   4.889   5.395  16.796 -0.1577  0.0632 -1.8721
 7567TIP3    H244117   4.908   5.545  16.804 -0.6649  0.1096 -1.4512
 7568TIP3   OH244118   2.236   4.820   6.357 -0.3932 -0.0289  0.1752
 7568TIP3    H144119   2.172   4.750   6.367 -1.0406  0.5722  0.3282
 7568TIP3    H244120   2.202   4.873   6.285 -0.3517  0.5894  0.5989
 7569TIP3   OH244121   3.558   5.515   0.603 -0.2477  0.1282  0.0034
 7569TIP3    H144122   3.642   5.472   0.585 -0.6568  0.4261 -3.1641
 7569TIP3    H244123   3.492   5.447   0.589 -0.6388  0.2239  1.2434
 7570TIP3   OH244124   0.880   5.372  12.742 -0.0676  0.1075  0.6942
 7570TIP3    H144125   0.970   5.351  12.716 -0.1049  0.2957  0.4116
 7570TIP3    H244126   0.890   5.442  12.806  0.0216 -0.3252  1.1590
 7571TIP3   OH244127   5.202   5.623   5.628  0.4936 -0.4982  0.6569
 7571TIP3    H144128   5.267   5.640   5.560 -1.2194 -0.1832 -0.9822
 7571TIP3    H244129   5.163   5.539   5.603  0.5923 -0.9388  1.9075
 7572TIP3   OH244130   6.525   3.926  16.276  0.5945 -0.1643  0.0150
 7572TIP3    H144131   6.433   3.927  16.251  0.7378  1.6519 -0.6036
 7572TIP3    H244132   6.572   3.940  16.193  1.2480  2.2811  0.7226
 7573TIP3   OH244133   5.783   6.775   6.653 -0.3491  0.9057  0.2397
 7573TIP3    H144134   5.805   6.851   6.707  0.7113  1.4347 -0.8647
 7573TIP3    H244135   5.845   6.780   6.579 -1.1416 -0.2872 -0.5435
 7574TIP3   OH244136   2.138   5.533  13.792 -0.2074  0.3680 -0.1437
 7574TIP3    H144137   2.211   5.592  13.808  0.6900 -0.6992 -0.1273
 7574TIP3    H244138   2.062   5.575  13.834  0.5602  1.1274  0.5082
 7575TIP3   OH244139   1.560   0.920  11.343  0.4111 -0.5673  0.2385
 7575TIP3    H144140   1.536   0.918  11.250 -2.3717  0.6449  0.8475
 7575TIP3    H244141   1.649   0.956  11.343 -0.7738  2.8377 -1.8566
 7576TIP3   OH244142   4.117   4.694  10.783  0.1875 -0.2246  0.7037
 7576TIP3    H144143   4.116   4.600  10.767  1.2744 -0.1834  0.3244
 7576TIP3    H244144   4.209   4.717  10.791 -0.0926  0.6969  1.5240
 7577TIP3   OH244145   2.152   3.187   2.019 -0.0831  0.3241 -0.1880
 7577TIP3    H144146   2.133   3.093   2.022  0.1727  0.2282 -1.2747
 7577TIP3    H244147   2.118   3.221   2.102  0.0538 -0.7678  0.3350
 7578TIP3   OH244148   2.895   2.395   1.837  0.0564 -0.4268  0.7339
 7578TIP3    H144149   2.858   2.309   1.820  0.1645 -0.6542  1.6001
 7578TIP3    H244150   2.987   2.378   1.859  0.6784  0.1160 -1.2383
 7579TIP3   OH244151   5.834   0.030  13.761  0.0054 -0.3994 -0.1935
 7579TIP3    H144152   5.923   0.001  13.740 -0.3800 -0.2967 -2.1493
 7579TIP3    H244153   5.817   0.102  13.701 -0.4418  1.4611  2.0258
 7580TIP3   OH244154   6.643   4.542  10.726 -0.5019 -0.0561  0.0998
 7580TIP3    H144155   6.550   4.557  10.739 -0.0429  2.4242  1.0879
 7580TIP3    H244156   6.667   4.598  10.653 -0.2134 -2.7811 -2.0579
 7581TIP3   OH244157   0.904   4.151  16.870  0.0035  0.3365 -0.3220
 7581TIP3    H144158   0.948   4.071  16.898 -0.8477  0.7187  2.3872
 7581TIP3    H244159   0.914   4.152  16.775  1.7871 -1.9237 -0.2368
 7582TIP3   OH244160   3.321   3.035  15.203 -0.2554 -0.3778  0.3093
 7582TIP3    H144161   3.292   3.105  15.261  0.6101  0.9312 -0.7669
 7582TIP3    H244162   3.307   3.069  15.115 -0.8788 -2.0352 -0.2805
 7583TIP3   OH244163   4.194   0.028  13.681 -0.3938  0.0222 -0.2499
 7583TIP3    H144164   4.242   0.098  13.637  0.8480  0.2608  1.3858
 7583TIP3    H244165   4.258  -0.042  13.691 -1.2010 -0.7671 -0.5195
 7584TIP3   OH244166   5.575   1.944  12.580  0.2421  0.2636 -0.0928
 7584TIP3    H144167   5.487   1.969  12.608  0.0131 -0.4338 -0.1663
 7584TIP3    H244168   5.605   2.018  12.527 -0.9003 -0.1089 -1.3155
 7585TIP3   OH244169   5.736   1.453   2.895  0.4165 -0.3293  0.1367
 7585TIP3    H144170   5.828   1.477   2.887  0.6217 -0.6916  1.1657
 7585TIP3    H244171   5.705   1.502   2.971 -0.3753  0.1647 -0.4917
 7586TIP3   OH244172   3.938   4.849   0.335  0.3435  0.3493 -0.1705
 7586TIP3    H144173   3.868   4.823   0.276 -1.2729 -0.1837  1.8504
 7586TIP3    H244174   3.963   4.937   0.307 -0.8161  0.3623 -1.2177
 7587TIP3   OH244175   2.327   3.233   0.980  0.5775  0.5064  0.7621
 7587TIP3    H144176   2.301   3.145   1.008  0.3075  0.1523 -0.5374
 7587TIP3    H244177   2.374   3.269   1.055 -0.1958 -0.3577  1.6870
 7588TIP3   OH244178   0.069   4.654  10.325  0.6270  0.1149  0.0767
 7588TIP3    H144179  -0.015   4.664  10.370  0.8783 -0.2256  0.6189
 7588TIP3    H244180   0.125   4.607  10.386  1.4875  1.0617  0.0508
 7589TIP3   OH244181   2.445   3.020  14.458 -0.0645  0.7060  0.2433
 7589TIP3    H144182   2.527   2.973  14.473  0.5489  1.7690  0.3240
 7589TIP3    H244183   2.410   3.038  14.545 -0.1541  0.6490  0.2198
 7590TIP3   OH244184   3.102   5.056   1.775  0.3887 -0.4114  0.2686
 7590TIP3    H144185   3.010   5.046   1.755  0.8641 -0.5686 -2.0566
 7590TIP3    H244186   3.106   5.130   1.836 -1.3790 -1.6029  1.9485
 7591TIP3   OH244187   1.000   2.111  11.741 -0.4544  0.4580 -0.3395
 7591TIP3    H144188   1.032   2.025  11.714 -0.0470  1.1288 -2.1607
 7591TIP3    H244189   0.909   2.096  11.765 -0.0504 -0.6831  0.5703
 7592TIP3   OH244190   2.213   4.608   3.475 -0.1135 -0.0035  0.6855
 7592TIP3    H144191   2.236   4.700   3.482  1.1977 -0.3156  0.8290
 7592TIP3    H244192   2.134   4.598   3.528 -0.0399  0.9553  0.9839
 7593TIP3   OH244193   5.228   2.356  11.144 -0.3453 -0.2150 -0.0143
 7593TIP3    H144194   5.301   2.400  11.099  1.3159 -2.9132 -0.1623
 7593TIP3    H244195   5.184   2.305  11.076 -2.0429  0.8609  0.2077
 7594TIP3   OH244196   2.436   2.659  13.611  0.1929 -0.3041 -0.6723
 7594TIP3    H144197   2.360   2.602  13.621  0.4586 -0.7001 -0.8618
 7594TIP3    H244198   2.422   2.730  13.673 -1.3050  0.6990 -2.0562
 7595TIP3   OH244199   0.121   3.764  12.535 -0.2636  0.4064  0.6477
 7595TIP3    H144200   0.054   3.831  12.520 -0.0013  0.8185  1.3066
 7595TIP3    H244201   0.163   3.789  12.617 -0.1741 -0.5750  0.9134
 7596TIP3   OH244202   5.254   5.992   1.505 -0.3140  0.1813  0.2105
 7596TIP3    H144203   5.260   5.927   1.435  0.7399 -2.2858  2.4183
 7596TIP3    H244204   5.195   6.059   1.470 -0.2194 -1.1319 -2.8052
 7597TIP3   OH244205   2.106   6.349   5.067 -0.0881 -0.6384  0.1404
 7597TIP3    H144206   2.113   6.294   4.989 -0.7944  1.2875 -1.3753
 7597TIP3    H244207   2.036   6.310   5.118  1.1824 -2.6366  0.4717
 7598TIP3   OH244208   5.679   3.723   1.632  0.2775 -0.1361  0.6385
 7598TIP3    H144209   5.726   3.755   1.556 -0.2010 -0.3639  0.2367
 7598TIP3    H244210   5.593   3.697   1.598  0.7416 -2.1503  0.8619
 7599TIP3   OH244211   0.508   3.788  16.431 -0.0134 -0.5874 -0.5908
 7599TIP3    H144212   0.505   3.693  16.440 -0.9550 -0.5064  0.0938
 7599TIP3    H244213   0.521   3.803  16.337  0.2427 -1.3841 -0.6891
 7600TIP3   OH244214   6.518   4.434  13.461  0.0871 -0.1561 -0.3729
 7600TIP3    H144215   6.441   4.487  13.442 -0.5134 -0.0743  2.0349
 7600TIP3    H244216   6.508   4.357  13.404  0.1477  1.4886 -2.7189
 7601TIP3   OH244217   0.481   3.740  12.106 -0.5207  0.1185  0.5181
 7601TIP3    H144218   0.498   3.650  12.078  0.0545  0.5417 -0.5537
 7601TIP3    H244219   0.407   3.733  12.166 -0.7242 -1.0297  0.1577
 7602TIP3   OH244220   0.589   2.293   4.089 -0.0827  0.5170 -0.6510
 7602TIP3    H144221   0.644   2.310   4.012 -1.8590  2.4921 -1.5839
 7602TIP3    H244222   0.623   2.352   4.156  0.8642 -0.5319 -0.1642
 7603TIP3   OH244223   0.870   2.861  14.971  0.0570  0.1703  0.3459
 7603TIP3    H144224   0.785   2.829  15.002  0.0467 -0.8242 -0.6513
 7603TIP3    H244225   0.871   2.840  14.878  1.3277  0.3184  0.3133
 7604TIP3   OH244226   1.077   2.485   2.302  0.1677  0.6163  0.1992
 7604TIP3    H144227   1.039   2.527   2.225  0.7251 -0.9652 -0.9891
 7604TIP3    H244228   1.164   2.456   2.274 -0.1880 -1.3183  0.9102
 7605TIP3   OH244229   1.529   3.367   4.874 -0.4484 -0.0572  0.1979
 7605TIP3    H144230   1.598   3.331   4.818 -0.5036 -0.7315  0.5554
 7605TIP3    H244231   1.509   3.297   4.937 -1.3353  0.1916  0.2124
 7606TIP3   OH244232   2.899   5.228  11.013 -0.6085  0.0647 -0.0536
 7606TIP3    H144233   2.865   5.167  11.079 -1.4817  0.9549  0.3547
 7606TIP3    H244234   2.864   5.195  10.930 -0.5675 -0.3327  0.0838
 7607TIP3   OH244235   0.775   6.354  12.179 -0.0089 -0.0425  0.0831
 7607TIP3    H144236   0.858   6.329  12.139 -0.6093 -1.4529 -0.3273
 7607TIP3    H244237   0.791   6.350  12.274  0.3155 -0.5507  0.0026
 7608TIP3   OH244238   3.005   2.389   5.610  0.2229 -0.5856  0.5796
 7608TIP3    H144239   2.932   2.379   5.671 -1.9595  1.9905 -1.3574
 7608TIP3    H244240   2.969   2.363   5.526  2.2671 -1.3247 -0.1123
 7609TIP3   OH244241   6.055   3.889  11.920  0.4748 -0.1614  0.2475
 7609TIP3    H144242   6.035   3.964  11.977  2.0308 -0.5959  1.4301
 7609TIP3    H244243   6.056   3.814  11.978 -0.3534 -1.0263 -0.8121
 7610TIP3   OH244244   3.060   6.184   1.194 -0.5298 -0.2710  0.1204
 7610TIP3    H144245   3.026   6.224   1.273  2.6685 -0.9262  1.9906
 7610TIP3    H244246   3.109   6.254   1.150 -0.1232 -0.5385  0.1351
 7611TIP3   OH244247   5.525   1.507  13.879  0.1610  0.6727 -0.1734
 7611TIP3    H144248   5.525   1.412  13.891  1.1882  0.7828  0.9326
 7611TIP3    H244249   5.490   1.520  13.791  0.2235 -0.7458 -0.4367
 7612TIP3   OH244250   3.843   1.432  13.809 -0.0350  0.1386 -0.4926
 7612TIP3    H144251   3.906   1.432  13.882  2.3244 -1.2949 -2.3836
 7612TIP3    H244252   3.816   1.341  13.801 -2.4647  0.7188  0.2555
 7613TIP3   OH244253   4.454   2.767   0.882 -0.5140 -0.1347  0.7045
 7613TIP3    H144254   4.432   2.769   0.789  2.4820 -0.6058 -0.1409
 7613TIP3    H244255   4.425   2.681   0.912 -2.3254  0.3722  0.4846
 7614TIP3   OH244256   3.449   4.784   1.920  0.1219  0.1845 -0.3304
 7614TIP3    H144257   3.443   4.710   1.980 -0.4279  0.2116 -0.3474
 7614TIP3    H244258   3.543   4.792   1.901  0.0120 -1.8558 -2.0174
 7615TIP3   OH244259   2.128   3.642  13.706  0.5898 -0.3509 -0.0857
 7615TIP3    H144260   2.047   3.667  13.750  1.0439  2.0088 -0.4662
 7615TIP3    H244261   2.098   3.599  13.626 -0.2917  0.1875 -0.0658
 7616TIP3   OH244262   3.271   2.201  12.460 -0.2750 -0.3296  0.3724
 7616TIP3    H144263   3.334   2.175  12.528 -0.0028 -0.2589  0.1492
 7616TIP3    H244264   3.278   2.132  12.394 -0.3767 -0.2791  0.3103
 7617TIP3   OH244265   4.623   6.329   3.525  0.2975  0.5915  0.1015
 7617TIP3    H144266   4.552   6.389   3.548  0.1441  1.3327 -2.1271
 7617TIP3    H244267   4.581   6.245   3.510  0.1845  0.5208  0.7728
 7618TIP3   OH244268   4.239   1.116   3.311  0.5105  0.0612 -0.1985
 7618TIP3    H144269   4.231   1.176   3.236 -0.3805  0.5275  0.2525
 7618TIP3    H244270   4.232   1.173   3.387 -0.6342 -0.6424  0.2435
 7619TIP3   OH244271   2.743   6.482   1.993  0.5213  0.1360 -0.0948
 7619TIP3    H144272   2.800   6.513   2.064  0.8392  0.7007 -0.5799
 7619TIP3    H244273   2.673   6.547   1.989 -1.9263 -2.0923  2.4934
 7620TIP3   OH244274   2.821   3.615   5.572  0.5296  0.8071 -0.1939
 7620TIP3    H144275   2.755   3.593   5.637  1.3214  0.2974  0.4599
 7620TIP3    H244276   2.772   3.652   5.499 -0.7527 -1.8772 -0.8004
 7621TIP3   OH244277   2.910   4.977  16.210  0.1043 -0.7912  0.1872
 7621TIP3    H144278   3.006   4.978  16.207  0.0873 -0.7365 -0.6071
 7621TIP3    H244279   2.886   4.912  16.144 -0.4264 -0.0856 -0.3258
 7622TIP3   OH244280   0.406   4.281   2.237 -0.2215  0.4262  0.3320
 7622TIP3    H144281   0.385   4.191   2.262  0.8407 -0.3505 -1.3424
 7622TIP3    H244282   0.497   4.292   2.265 -1.0885  1.9661  2.9150
 7623TIP3   OH244283   5.189   5.405   1.901  0.5644  0.4599 -0.1343
 7623TIP3    H144284   5.099   5.437   1.893  0.3411 -0.0934  0.1226
 7623TIP3    H244285   5.211   5.374   1.813 -0.3780 -1.6629  0.3076
 7624TIP3   OH244286   3.821   1.030   4.563  0.7315  0.5352  0.7355
 7624TIP3    H144287   3.787   0.976   4.635 -0.3283  0.1725 -0.0116
 7624TIP3    H244288   3.778   1.114   4.575 -0.1195  0.2118  0.0463
 7625TIP3   OH244289   4.433   6.591  13.928 -0.1212  0.7146  0.1548
 7625TIP3    H144290   4.504   6.527  13.922 -0.0225  0.7608  0.8159
 7625TIP3    H244291   4.437   6.624  14.018 -0.0427  1.8002 -0.2254
 7626TIP3   OH244292   5.630   2.402   0.227 -0.0174  0.0764 -0.1087
 7626TIP3    H144293   5.701   2.374   0.169 -0.1688 -0.1473 -0.1888
 7626TIP3    H244294   5.567   2.330   0.224 -0.8494  0.8071 -1.0353
 7627TIP3   OH244295   6.549   1.544  12.456 -0.5077 -0.0370 -0.0561
 7627TIP3    H144296   6.505   1.518  12.537 -0.4488  0.4330  0.1328
 7627TIP3    H244297   6.615   1.608  12.484 -0.5683  0.2196 -0.4839
 7628TIP3   OH244298   5.361   5.985   0.858  0.0061 -0.6035  0.6733
 7628TIP3    H144299   5.332   6.013   0.944 -0.5157  2.1778 -0.3067
 7628TIP3    H244300   5.422   6.053   0.829  0.5505 -1.7052 -0.9780
 7629TIP3   OH244301   6.069   5.915   4.504  0.0897 -0.5425 -0.1754
 7629TIP3    H144302   5.997   5.870   4.460  0.5967 -1.9886  0.4297
 7629TIP3    H244303   6.043   5.916   4.597  0.4316 -0.2720 -0.0816
 7630TIP3   OH244304   3.250   2.769   0.871 -0.2171  0.5361  0.1255
 7630TIP3    H144305   3.271   2.686   0.829 -0.9203  0.0025  0.8022
 7630TIP3    H244306   3.172   2.751   0.923 -0.5338  1.6892  0.0815
 7631TIP3   OH244307   0.224   4.568   5.052 -0.0750  0.4137 -0.4151
 7631TIP3    H144308   0.229   4.475   5.029 -0.8906  0.3038 -0.1683
 7631TIP3    H244309   0.296   4.608   5.004  1.7195 -0.6886  1.1798
 7632TIP3   OH244310   1.080   2.684  16.422  0.2357 -0.2763  0.3648
 7632TIP3    H144311   1.085   2.651  16.512 -1.4763  0.8291  0.9096
 7632TIP3    H244312   0.991   2.661  16.393  0.2738  0.6478 -0.5270
 7633TIP3   OH244313   5.386   4.921  12.896  0.1938  0.2475  0.0773
 7633TIP3    H144314   5.399   4.882  12.982  1.1843  0.8350  0.2155
 7633TIP3    H244315   5.391   5.015  12.911 -1.9923  0.4675 -0.2742
 7634TIP3   OH244316   2.820   3.188   4.546 -0.2345  0.4727  0.3347
 7634TIP3    H144317   2.904   3.167   4.585 -0.6913  0.3727  1.2958
 7634TIP3    H244318   2.809   3.124   4.476  1.9982  2.5120 -2.1224
 7635TIP3   OH244319   3.846   3.165  10.723 -0.7542  0.5552  0.2741
 7635TIP3    H144320   3.866   3.112  10.645 -1.2694 -0.7676  1.0067
 7635TIP3    H244321   3.906   3.132  10.790 -1.4337  0.5464  0.8854
 7636TIP3   OH244322   5.084   6.599  13.917  0.1417 -0.4060  0.1598
 7636TIP3    H144323   5.030   6.554  13.852 -0.1167 -0.0949  0.1524
 7636TIP3    H244324   5.038   6.681  13.933  1.2688  0.4624 -0.8101
 7637TIP3   OH244325   5.515   3.126   6.646 -1.1366  0.8902  0.2472
 7637TIP3    H144326   5.466   3.158   6.570 -1.2399  0.4548  0.1291
 7637TIP3    H244327   5.456   3.062   6.686 -0.5196  0.0934 -0.1036
 7638TIP3   OH244328   5.194   6.502   2.961 -0.1311 -0.8501 -0.4341
 7638TIP3    H144329   5.160   6.425   2.916  1.4050 -1.9313  0.1599
 7638TIP3    H244330   5.247   6.547   2.895 -0.6134 -0.5818 -0.6390
 7639TIP3   OH244331   3.728   5.995   3.403 -0.1324 -0.0036  0.1430
 7639TIP3    H144332   3.745   5.903   3.423 -1.6974 -0.2434  0.4556
 7639TIP3    H244333   3.665   6.023   3.469  0.9972  1.5649  0.6038
 7640TIP3   OH244334   0.297   2.912  13.910 -0.0249  0.0476  0.2407
 7640TIP3    H144335   0.221   2.933  13.855 -0.3142  1.7066  1.2138
 7640TIP3    H244336   0.319   2.995  13.953  2.3524 -0.3907 -0.0056
 7641TIP3   OH244337   5.134   5.253   1.404  0.0855 -0.8552 -0.1389
 7641TIP3    H144338   5.172   5.220   1.323 -0.5778 -0.4490 -0.6252
 7641TIP3    H244339   5.095   5.176   1.446  0.0963 -1.0003 -0.3935
 7642TIP3   OH244340   0.867   2.181  16.924  0.3023  0.2808 -0.2128
 7642TIP3    H144341   0.870   2.123  16.848  3.0350 -0.5410  0.4325
 7642TIP3    H244342   0.829   2.127  16.993 -0.2741  0.3687 -0.4527
 7643TIP3   OH244343   2.487   1.528   2.548  0.3354 -1.0320 -0.2935
 7643TIP3    H144344   2.471   1.455   2.607 -0.0430  0.3955  1.4624
 7643TIP3    H244345   2.542   1.588   2.599 -1.9476  1.3411 -0.4180
 7644TIP3   OH244346   4.498   5.860  12.744 -0.7213 -0.6989  0.2140
 7644TIP3    H144347   4.454   5.784  12.707  0.5108 -1.3414  0.0171
 7644TIP3    H244348   4.427   5.918  12.773 -1.7254 -0.7481 -1.9612
 7645TIP3   OH244349   3.910   5.973  10.857  0.4009  0.2288 -0.2330
 7645TIP3    H144350   3.984   5.916  10.836  1.4228  0.7196  1.7557
 7645TIP3    H244351   3.850   5.918  10.906  0.7566  0.4855  0.5133
 7646TIP3   OH244352   1.611   0.493  13.521  0.1490 -1.3390 -0.2394
 7646TIP3    H144353   1.595   0.534  13.436 -0.0399 -0.5103  0.1848
 7646TIP3    H244354   1.669   0.554  13.566 -0.4708 -1.3309  0.5661
 7647TIP3   OH244355   4.856   1.746   4.784 -0.0402 -0.2381 -0.1268
 7647TIP3    H144356   4.885   1.834   4.806  0.8852 -0.5253 -0.1326
 7647TIP3    H244357   4.848   1.747   4.689 -0.0812 -0.1435 -0.1224
 7648TIP3   OH244358   4.687   5.241  13.188  0.3018  0.2599 -0.5461
 7648TIP3    H144359   4.622   5.186  13.143  0.8947 -0.2341 -0.8150
 7648TIP3    H244360   4.763   5.184  13.199  0.0422  0.2381  1.4619
 7649TIP3   OH244361   5.541   0.066   1.044 -0.3962 -0.3664  0.0890
 7649TIP3    H144362   5.515   0.156   1.064  1.2426  0.7730 -2.4773
 7649TIP3    H244363   5.632   0.060   1.072 -0.4259 -1.2011  0.0409
 7650TIP3   OH244364   5.919   5.898   2.665  0.6364  0.1893 -0.0164
 7650TIP3    H144365   5.938   5.990   2.684 -0.8608  0.6790 -0.6800
 7650TIP3    H244366   5.946   5.851   2.743  0.7791  1.2909  0.6227
 7651TIP3   OH244367   0.834   4.017   4.108  0.4680  0.1368  0.3227
 7651TIP3    H144368   0.868   3.970   4.184 -1.2015  0.4418  1.3145
 7651TIP3    H244369   0.797   4.097   4.144 -1.9318 -0.5079 -0.5425
 7652TIP3   OH244370   5.986   1.878  15.077 -0.3560  0.2371 -0.0119
 7652TIP3    H144371   5.961   1.922  14.996 -0.4366  0.3700  0.0863
 7652TIP3    H244372   6.077   1.852  15.063  0.1793  1.7382  0.4985
 7653TIP3   OH244373   6.544   6.353   5.435 -0.0006  0.2456  0.4083
 7653TIP3    H144374   6.532   6.440   5.397  0.0002  0.1432  0.1723
 7653TIP3    H244375   6.507   6.293   5.370  1.5037 -0.0681 -0.1924
 7654TIP3   OH244376   6.164   1.874  13.080  0.1707 -0.1999 -0.2507
 7654TIP3    H144377   6.084   1.914  13.045 -1.2761  1.3192  4.1814
 7654TIP3    H244378   6.225   1.947  13.087  0.4158 -0.4637  0.3652
 7655TIP3   OH244379   3.363   2.678   4.629 -0.4340 -0.0773  0.4930
 7655TIP3    H144380   3.458   2.692   4.632 -0.5077  0.3550  0.9121
 7655TIP3    H244381   3.334   2.690   4.719 -0.7340 -1.3974  0.5851
 7656TIP3   OH244382   3.850   3.054  13.949  0.6689 -1.0757 -0.4653
 7656TIP3    H144383   3.844   2.962  13.923 -0.2422 -1.0454 -0.3618
 7656TIP3    H244384   3.931   3.059  14.000  0.8307 -1.7692 -0.6455
 7657TIP3   OH244385   2.284   6.044  14.430  0.0563  0.5006  0.0034
 7657TIP3    H144386   2.377   6.042  14.451  0.2291 -0.6390 -0.8220
 7657TIP3    H244387   2.250   6.117  14.482  1.2761  0.5275  0.8097
 7658TIP3   OH244388   6.414   3.951  14.697  0.2158 -0.6365  0.0337
 7658TIP3    H144389   6.451   3.937  14.785  0.2223  1.7725  0.4816
 7658TIP3    H244390   6.321   3.965  14.712 -0.3268 -2.9900 -0.7104
 7659TIP3   OH244391   5.378   3.728   4.352 -0.1951  0.1714  0.1030
 7659TIP3    H144392   5.291   3.768   4.351 -0.1359  0.3135  0.3546
 7659TIP3    H244393   5.436   3.794   4.313 -0.0210  0.5300  0.9347
 7660TIP3   OH244394   4.182   4.408   4.509 -0.0110 -0.3942 -0.7213
 7660TIP3    H144395   4.178   4.434   4.602 -1.2215 -0.4429 -0.7508
 7660TIP3    H244396   4.249   4.340   4.507  1.0492  0.5942 -0.1289
 7661TIP3   OH244397   0.946   6.046  12.981  0.5779 -0.4329  0.1967
 7661TIP3    H144398   0.856   6.016  12.981  0.2162  0.5745 -1.1631
 7661TIP3    H244399   0.953   6.102  13.058  0.0098 -0.3809  0.2099
 7662TIP3   OH244400   4.627   0.311  11.262 -0.4483 -0.3143 -0.3182
 7662TIP3    H144401   4.541   0.349  11.245 -0.0180  0.9273  0.2267
 7662TIP3    H244402   4.683   0.385  11.285  1.3430 -0.7590 -2.7487
 7663TIP3   OH244403   3.650   4.988   4.685 -0.2640  0.2207 -0.3791
 7663TIP3    H144404   3.600   4.950   4.756  0.4392  0.7878  0.4374
 7663TIP3    H244405   3.626   4.937   4.608 -1.2061 -0.2502  0.2209
 7664TIP3   OH244406   2.734   1.535   0.464  0.2885  0.3044  0.2444
 7664TIP3    H144407   2.750   1.494   0.549 -0.9575 -0.2530  0.2286
 7664TIP3    H244408   2.707   1.463   0.407  0.7409  0.7342 -0.5284
 7665TIP3   OH244409   2.978   2.022   5.381 -0.0153 -0.6497  0.3577
 7665TIP3    H144410   2.918   1.980   5.443 -1.6486 -1.9954 -1.9713
 7665TIP3    H244411   3.061   2.030   5.429 -1.0201 -2.1654  2.4894
 7666TIP3   OH244412   4.916   3.464   1.234  1.1972  0.4561 -0.2405
 7666TIP3    H144413   4.890   3.555   1.220  0.3669 -0.0234 -2.1644
 7666TIP3    H244414   5.011   3.466   1.230  1.1988  1.2744 -0.0432
 7667TIP3   OH244415   0.358   4.707  16.191  0.2300 -0.3229 -0.3545
 7667TIP3    H144416   0.291   4.764  16.153  1.7386  1.0771 -1.0377
 7667TIP3    H244417   0.434   4.764  16.202  1.3779 -1.9074  0.2140
 7668TIP3   OH244418   5.058   6.734   0.032 -0.0829 -0.8852  0.0888
 7668TIP3    H144419   4.976   6.688   0.050  0.1452 -1.1605  0.4396
 7668TIP3    H244420   5.081   6.774   0.116  0.8269 -1.9084  0.3535
 7669TIP3   OH244421   3.977   4.147   5.612  0.2707 -0.0356 -0.3970
 7669TIP3    H144422   3.982   4.070   5.669 -0.2647 -0.7847 -1.3309
 7669TIP3    H244423   4.058   4.144   5.560  0.2100 -0.0160 -0.4934
 7670TIP3   OH244424   5.491   2.189  12.922  0.3556 -0.3567 -0.1262
 7670TIP3    H144425   5.418   2.141  12.961  0.4302 -1.5147 -1.3504
 7670TIP3    H244426   5.465   2.281  12.928 -1.0980 -0.7318 -0.3063
 7671TIP3   OH244427   3.690   1.287  15.472 -0.2529  0.8360  0.4473
 7671TIP3    H144428   3.692   1.211  15.414  0.2681  2.8217 -2.3206
 7671TIP3    H244429   3.614   1.338  15.443  0.9040  2.6430  0.4306
 7672TIP3   OH244430   6.682   3.293   3.609 -0.2829  0.2182 -0.1206
 7672TIP3    H144431   6.700   3.380   3.572  0.9553 -0.0967 -0.3023
 7672TIP3    H244432   6.747   3.236   3.569 -1.6902 -1.0199 -0.7551
 7673TIP3   OH244433   2.123   4.311  15.888 -0.0160  0.5064 -0.0097
 7673TIP3    H144434   2.049   4.351  15.933 -0.8314  1.0295 -1.6914
 7673TIP3    H244435   2.186   4.382  15.878 -0.0382  0.5154 -0.0902
 7674TIP3   OH244436   1.740   6.789   0.773  0.0634  0.1905 -0.5372
 7674TIP3    H144437   1.665   6.833   0.732 -1.0009 -1.5419 -0.5708
 7674TIP3    H244438   1.777   6.734   0.704  0.1140 -0.4829  0.0084
 7675TIP3   OH244439   3.003   5.255  16.206  0.3816 -0.3725 -0.0822
 7675TIP3    H144440   2.950   5.310  16.264 -1.3104  0.2068 -2.0880
 7675TIP3    H244441   2.959   5.170  16.207  0.0508 -0.2178 -0.8733
 7676TIP3   OH244442   6.670   1.674   5.122  0.4201  0.0154 -0.5338
 7676TIP3    H144443   6.660   1.693   5.028  0.6836 -3.0756 -1.2764
 7676TIP3    H244444   6.581   1.659   5.153  0.3816  0.4768 -0.4191
 7677TIP3   OH244445   5.141   3.773  14.656  0.3153 -0.6005 -0.0787
 7677TIP3    H144446   5.177   3.709  14.595 -0.5581 -0.8670 -0.3406
 7677TIP3    H244447   5.213   3.834  14.673  0.4677 -0.2749 -1.7059
 7678TIP3   OH244448   5.504   6.748   6.650  0.0218 -0.2016  0.1312
 7678TIP3    H144449   5.470   6.671   6.695 -0.1104 -0.6461 -0.7092
 7678TIP3    H244450   5.599   6.735   6.648  0.2194  0.6944  1.8462
 7679TIP3   OH244451   4.114   6.299   4.371  0.2649  0.3124  0.4062
 7679TIP3    H144452   4.035   6.300   4.426 -0.2021  0.8124 -0.2626
 7679TIP3    H244453   4.099   6.228   4.309  0.4565  0.2389  0.4438
 7680TIP3   OH244454   3.494   2.523   1.360  0.0758  0.3873  0.0406
 7680TIP3    H144455   3.427   2.529   1.428 -0.3475  1.3830 -0.4349
 7680TIP3    H244456   3.577   2.538   1.406 -0.1512  0.4336  0.4360
 7681TIP3   OH244457   6.231   1.051   2.311 -0.0994 -0.5696  0.1883
 7681TIP3    H144458   6.202   1.051   2.219  1.3429 -4.4414 -0.4760
 7681TIP3    H244459   6.151   1.031   2.360 -0.4828 -0.8727 -0.5237
 7682TIP3   OH244460   5.185   1.724   4.517 -0.1272  0.4321  0.1877
 7682TIP3    H144461   5.217   1.687   4.600  1.2568  2.3805  0.5902
 7682TIP3    H244462   5.140   1.804   4.542 -0.0764  0.8158 -0.9142
 7683TIP3   OH244463   6.773   1.393  14.883 -0.4646 -0.1763 -0.3728
 7683TIP3    H144464   6.719   1.469  14.861 -0.6781 -0.1765  0.1380
 7683TIP3    H244465   6.845   1.430  14.935 -0.6303 -0.3359 -0.0271
 7684TIP3   OH244466   4.961   4.845   4.674 -0.5066  0.1180 -0.4932
 7684TIP3    H144467   4.962   4.764   4.724 -1.9376  1.1792  1.4254
 7684TIP3    H244468   5.020   4.830   4.600  2.4213 -1.2961  1.9378
 7685TIP3   OH244469   4.330   4.320  11.312  0.3885 -0.2781  0.4392
 7685TIP3    H144470   4.326   4.368  11.395  1.2200  0.7356 -0.0930
 7685TIP3    H244471   4.400   4.256  11.325  0.0615 -0.5798  0.7451
 7686TIP3   OH244472   3.720   0.161  11.484 -0.2947  0.4801 -0.4277
 7686TIP3    H144473   3.746   0.123  11.401  0.9778  0.5367 -0.0728
 7686TIP3    H244474   3.773   0.241  11.492 -1.8991  1.6076 -0.5113
 7687TIP3   OH244475   1.168   1.562  11.700 -0.2494 -0.2155  0.3791
 7687TIP3    H144476   1.147   1.501  11.772  0.6083 -1.1730 -0.1494
 7687TIP3    H244477   1.158   1.510  11.621 -1.3424  0.8803 -0.2356
 7688TIP3   OH244478   4.376   1.973  12.893  0.1341 -0.5700  0.8189
 7688TIP3    H144479   4.352   1.984  12.985  0.4611  1.1593  0.7289
 7688TIP3    H244480   4.310   2.024  12.845  0.2945 -0.9974  0.1372
 7689TIP3   OH244481   0.522   2.453  16.100  0.3530  0.6503 -0.6013
 7689TIP3    H144482   0.485   2.419  16.018  1.5944 -1.2538 -0.4270
 7689TIP3    H244483   0.607   2.410  16.107  0.8355  1.7962  1.0538
 7690TIP3   OH244484   4.571   0.768  13.439 -0.1209  0.2622  0.7753
 7690TIP3    H144485   4.618   0.738  13.517  0.6979 -0.1809  0.1166
 7690TIP3    H244486   4.571   0.863  13.446  1.5956  0.3208  0.3867
 7691TIP3   OH244487   4.628   2.436  12.249 -0.0739  0.5953  0.2782
 7691TIP3    H144488   4.554   2.375  12.243 -1.1182  1.5616  2.2518
 7691TIP3    H244489   4.641   2.447  12.343  0.8964  2.4408 -0.0349
 7692TIP3   OH244490   3.510   4.517  16.310  0.1795 -0.2692 -0.0645
 7692TIP3    H144491   3.422   4.525  16.346  0.5824 -0.1890  0.9384
 7692TIP3    H244492   3.566   4.563  16.373  0.9693 -0.5276 -0.5632
 7693TIP3   OH244493   3.779   0.334  12.465  0.1219  0.1178  0.0356
 7693TIP3    H144494   3.810   0.311  12.553 -1.4556 -3.3342 -0.1314
 7693TIP3    H244495   3.689   0.364  12.479 -0.0601 -0.2357 -0.3583
 7694TIP3   OH244496   1.502   5.871   4.540  0.5280  0.0746 -0.0229
 7694TIP3    H144497   1.429   5.841   4.595  1.0453 -1.3265 -0.0440
 7694TIP3    H244498   1.580   5.847   4.589  1.0029 -1.1976 -1.3155
 7695TIP3   OH244499   3.647   4.791   4.162  0.4312  0.3046  0.3873
 7695TIP3    H144500   3.668   4.700   4.183 -0.9946 -0.4910 -1.3213
 7695TIP3    H244501   3.661   4.797   4.067  1.5256  2.1936  0.6224
 7696TIP3   OH244502   4.083   3.676  11.350 -0.1329 -0.5545  0.3104
 7696TIP3    H144503   4.136   3.731  11.292 -2.9663  1.1632 -0.8839
 7696TIP3    H244504   4.064   3.598  11.299 -0.3085 -0.3318  0.0396
 7697TIP3   OH244505   4.864   1.587   1.969  0.1554  0.5649 -0.1653
 7697TIP3    H144506   4.881   1.648   2.041 -2.6017  0.6556  0.5099
 7697TIP3    H244507   4.821   1.639   1.902  0.2062 -0.0985 -0.7265
 7698TIP3   OH244508   1.688   1.282  11.935 -0.2472 -0.0646 -0.0240
 7698TIP3    H144509   1.622   1.223  11.899 -1.3617  1.0566  0.0972
 7698TIP3    H244510   1.762   1.276  11.875 -1.8308  1.3462 -2.2930
 7699TIP3   OH244511   4.281   4.796  13.522 -0.2190 -0.2891  0.8640
 7699TIP3    H144512   4.262   4.781  13.430 -1.1941  0.5803  0.8975
 7699TIP3    H244513   4.358   4.853  13.522 -0.4135 -0.0224  0.5732
 7700TIP3   OH244514   3.004   2.246   2.791 -0.5441 -0.3529  0.2808
 7700TIP3    H144515   3.080   2.227   2.847  0.2247 -0.1002 -0.6518
 7700TIP3    H244516   2.983   2.163   2.749 -1.1958 -0.5701  1.0142
 7701TIP3   OH244517   5.099   1.597  14.917 -0.3967 -0.3380 -0.1371
 7701TIP3    H144518   5.192   1.576  14.922 -0.1989  0.6648  0.9196
 7701TIP3    H244519   5.062   1.563  14.999 -1.0514 -1.0661 -0.7150
 7702TIP3   OH244520   1.461   0.255  13.475  0.5413 -0.2066 -0.2899
 7702TIP3    H144521   1.545   0.296  13.496  0.3841 -0.8255  1.7249
 7702TIP3    H244522   1.408   0.326  13.439  0.8924  0.9480  1.3842
 7703TIP3   OH244523   3.614   1.223   3.145  0.2786  0.1348  0.7415
 7703TIP3    H144524   3.583   1.298   3.196 -0.1303  0.3662  0.1710
 7703TIP3    H244525   3.594   1.147   3.199 -2.9831  0.1097 -0.3184
 7704TIP3   OH244526   3.882   3.283   5.398 -0.1913 -0.7672 -0.3816
 7704TIP3    H144527   3.964   3.328   5.379 -0.1808 -0.5283  0.2329
 7704TIP3    H244528   3.887   3.203   5.346 -0.2714 -0.0135 -1.5858
 7705TIP3   OH244529   4.884   2.248   1.671 -0.1185 -0.1208  0.3786
 7705TIP3    H144530   4.827   2.171   1.677  1.1458 -1.0722  0.5023
 7705TIP3    H244531   4.851   2.296   1.595 -1.2440 -0.4960  0.6084
 7706TIP3   OH244532   3.273   0.422   3.705  0.3127 -0.0990 -0.3580
 7706TIP3    H144533   3.349   0.401   3.760  1.8719 -0.1534 -2.4164
 7706TIP3    H244534   3.197   0.393   3.756  1.8262 -2.3597  0.7389
 7707TIP3   OH244535   4.787   4.093   2.416 -0.0935  0.0197 -0.6059
 7707TIP3    H144536   4.773   4.123   2.506 -0.8380 -0.7797 -0.4481
 7707TIP3    H244537   4.879   4.114   2.398 -0.3049  1.4553 -0.1609
 7708TIP3   OH244538   0.698   4.943   0.330  0.2026  0.0896  0.1809
 7708TIP3    H144539   0.736   4.929   0.243 -0.1856  0.3179 -0.0260
 7708TIP3    H244540   0.633   4.873   0.339 -1.1347  1.1965 -0.5077
 7709TIP3   OH244541   5.956   0.351   2.167  0.0645  0.5252 -0.6327
 7709TIP3    H144542   5.860   0.349   2.170  0.0179  1.7799 -0.8017
 7709TIP3    H244543   5.979   0.437   2.202  1.1859 -0.1869  0.4531
 7710TIP3   OH244544   6.772   3.350   5.620  0.4902  0.1211 -0.0510
 7710TIP3    H144545   6.833   3.388   5.683 -0.4448 -0.1884  1.0861
 7710TIP3    H244546   6.735   3.274   5.666  0.1065 -0.3727 -1.1434
 7711TIP3   OH244547   1.364   0.081   3.045 -0.1293  0.3546  0.2009
 7711TIP3    H144548   1.458   0.077   3.032 -0.1084 -0.6572  0.5873
 7711TIP3    H244549   1.327   0.043   2.965 -0.2082  0.5280  0.1535
 7712TIP3   OH244550   0.649   5.389  16.065 -0.5004 -0.4684  0.5056
 7712TIP3    H144551   0.635   5.482  16.044  1.0533 -0.4658 -0.7324
 7712TIP3    H244552   0.607   5.342  15.993  1.2932 -0.5965 -0.5090
 7713TIP3   OH244553   4.762   0.791   0.988 -0.2552 -0.3900 -0.4431
 7713TIP3    H144554   4.730   0.854   1.053 -1.4467 -3.2926  2.0808
 7713TIP3    H244555   4.853   0.775   1.012 -0.3220 -0.4991 -0.2499
 7714TIP3   OH244556   4.864   3.055   0.878 -0.5505 -0.6103 -0.4237
 7714TIP3    H144557   4.866   3.063   0.783 -0.9533 -1.9141 -0.5594
 7714TIP3    H244558   4.874   2.962   0.895 -0.8751 -0.4489  0.8060
 7715TIP3   OH244559   0.197   2.150  17.198  0.1525  0.0934 -0.0732
 7715TIP3    H144560   0.235   2.074  17.242  0.4389 -1.0584 -2.1596
 7715TIP3    H244561   0.272   2.204  17.173  0.1404 -0.1675 -0.6938
 7716TIP3   OH244562   2.869   2.120  15.440 -0.0469 -0.3065  0.0738
 7716TIP3    H144563   2.797   2.155  15.388  0.4043 -0.3749 -0.6125
 7716TIP3    H244564   2.827   2.084  15.518 -0.7102  0.0239 -0.1209
 7717TIP3   OH244565   6.096   1.094   2.056  0.3864 -0.4860 -0.0586
 7717TIP3    H144566   6.124   1.069   1.968  1.2599  2.5907 -0.7973
 7717TIP3    H244567   6.020   1.151   2.041  1.6783  1.6346  0.9145
 7718TIP3   OH244568   4.444   6.760   1.180 -0.6000 -0.3507  0.1392
 7718TIP3    H144569   4.384   6.820   1.223  0.3458  0.4517  0.3764
 7718TIP3    H244570   4.474   6.807   1.102 -0.1524 -0.6658  0.1159
 7719TIP3   OH244571   2.583   3.800   4.082  0.7014 -0.3965  0.4261
 7719TIP3    H144572   2.522   3.827   4.151 -0.3824 -0.2734 -0.5561
 7719TIP3    H244573   2.669   3.830   4.113 -0.0847  1.8154  0.6304
 7720TIP3   OH244574   5.280   5.027  15.600 -0.4673 -0.7725 -0.5156
 7720TIP3    H144575   5.297   5.058  15.689  2.5327 -3.2988 -0.0241
 7720TIP3    H244576   5.358   5.052  15.550 -0.7593 -1.9693 -1.6480
 7721TIP3   OH244577   4.595   6.306   4.864 -0.1744  0.9020  0.0487
 7721TIP3    H144578   4.666   6.242   4.862 -0.7009  0.3040  0.0733
 7721TIP3    H244579   4.638   6.391   4.851  0.4289  0.4592 -0.9443
 7722TIP3   OH244580   6.435   6.076   2.429 -0.1697 -0.4377  0.0810
 7722TIP3    H144581   6.431   6.098   2.522 -0.9411  1.0751 -0.2661
 7722TIP3    H244582   6.420   6.160   2.384  0.4535 -1.0790 -1.4085
 7723TIP3   OH244583   4.480   4.428   2.347  0.2974 -0.4759 -0.3211
 7723TIP3    H144584   4.538   4.482   2.293  0.4398  0.0659  0.3513
 7723TIP3    H244585   4.516   4.435   2.435 -0.9291  0.0846  0.1621
 7724TIP3   OH244586   0.558   6.312   0.474 -0.3947 -0.4368  0.2309
 7724TIP3    H144587   0.546   6.356   0.559  1.0736 -0.8156  0.6659
 7724TIP3    H244588   0.650   6.327   0.453 -1.1610  1.3526 -2.3021
 7725TIP3   OH244589   5.510   1.664   5.120  0.4148 -0.4893 -0.0722
 7725TIP3    H144590   5.540   1.747   5.082  0.8595 -0.8838 -0.5930
 7725TIP3    H244591   5.547   1.664   5.209 -0.3697  0.2917  0.2693
 7726TIP3   OH244592   2.362   1.289   1.827 -0.6189  0.2999  0.6863
 7726TIP3    H144593   2.394   1.210   1.784 -0.0504  1.1692 -0.5496
 7726TIP3    H244594   2.420   1.301   1.902  0.2354  0.3404  0.0353
 7727TIP3   OH244595   5.307   2.689   1.720 -0.7166 -0.0197  0.4802
 7727TIP3    H144596   5.276   2.632   1.790  1.6374  0.1035  1.7146
 7727TIP3    H244597   5.402   2.681   1.723 -0.4868  1.1561 -1.7452
 7728TIP3   OH244598   4.248   6.441   1.166  0.5142  0.1037  0.0297
 7728TIP3    H144599   4.267   6.511   1.104  0.8305 -0.7478 -0.8764
 7728TIP3    H244600   4.183   6.386   1.120 -1.3438  0.9139  1.5588
 7729TIP3   OH244601   4.096   1.332   4.782 -0.0495  0.1045 -0.2336
 7729TIP3    H144602   4.071   1.389   4.709  0.5707 -1.3487 -1.6394
 7729TIP3    H244603   4.134   1.391   4.846  0.3225  1.3180 -1.5189
 7730TIP3   OH244604   2.915   5.572   1.831  0.1979  0.2689 -0.0188
 7730TIP3    H144605   2.928   5.495   1.775 -0.6475  0.2246 -0.1799
 7730TIP3    H244606   2.824   5.598   1.813 -0.7009 -0.7458  2.5597
 7731TIP3   OH244607   3.210   5.111  16.461 -0.1279  0.0083 -0.1601
 7731TIP3    H144608   3.200   5.122  16.556 -1.3688  0.2130 -0.3018
 7731TIP3    H244609   3.288   5.162  16.439 -1.5359  2.5650  0.3219
 7732TIP3   OH244610   4.573   3.120  16.791  0.3226 -0.3061  0.2990
 7732TIP3    H144611   4.555   3.083  16.704  3.4632  0.1990 -0.6809
 7732TIP3    H244612   4.574   3.215  16.776 -0.4950 -0.1382  1.2286
 7733TIP3   OH244613   1.231   5.439   2.254 -0.3388 -0.5821  0.5986
 7733TIP3    H144614   1.277   5.365   2.294 -1.8584 -2.2246 -0.5346
 7733TIP3    H244615   1.236   5.421   2.160  0.9938  1.8628  0.1008
 7734TIP3   OH244616   2.353   2.511   4.140  0.3171  0.1734 -0.3981
 7734TIP3    H144617   2.415   2.539   4.073 -0.8672  0.2449 -1.4988
 7734TIP3    H244618   2.403   2.451   4.195  1.0258 -0.8065 -2.0368
 7735TIP3   OH244619   0.073   3.164   3.851  0.3279  0.4742 -0.6182
 7735TIP3    H144620   0.126   3.244   3.851  0.3763  0.5060  1.2950
 7735TIP3    H244621   0.098   3.118   3.771  2.5039  0.9756 -0.2823
 7736TIP3   OH244622   4.954   0.683  11.974  0.9162  0.1147  0.0675
 7736TIP3    H144623   4.984   0.635  11.897  1.3055 -0.2272  0.4278
 7736TIP3    H244624   4.881   0.736  11.942 -1.9639 -3.3524  0.3233
 7737TIP3   OH244625   5.713   4.261   5.364  0.0592  0.2822 -0.2103
 7737TIP3    H144626   5.753   4.317   5.431 -0.7867  0.1153  0.4521
 7737TIP3    H244627   5.787   4.212   5.327  1.0687  2.7737 -1.8014
 7738TIP3   OH244628   3.721   5.886  16.897  0.6738 -0.1958  0.5057
 7738TIP3    H144629   3.692   5.835  16.973  1.7085  1.1912  1.8832
 7738TIP3    H244630   3.727   5.976  16.929  1.0024  0.4699 -1.2799
 7739TIP3   OH244631   0.279   6.704  13.748 -0.2590  0.1658  0.5505
 7739TIP3    H144632   0.248   6.620  13.782 -0.6583 -1.0130 -2.4120
 7739TIP3    H244633   0.200   6.749  13.718 -0.0225  1.5692  1.9276
 7740TIP3   OH244634   6.404   3.553   1.502  0.2914 -0.5658 -0.0372
 7740TIP3    H144635   6.406   3.467   1.461 -0.7190 -1.0597  0.8962
 7740TIP3    H244636   6.343   3.543   1.575  0.3656  0.8712  0.2453
 7741TIP3   OH244637   1.935   5.735  11.594  0.5358  0.2243  0.1923
 7741TIP3    H144638   2.022   5.751  11.630  0.2525  1.4226  0.3904
 7741TIP3    H244639   1.951   5.694  11.509  1.2485 -0.9478  0.8588
 7742TIP3   OH244640   3.897   4.994  17.090  0.0116  0.3179  0.3949
 7742TIP3    H144641   3.830   5.060  17.072 -0.5164 -0.1447  0.6462
 7742TIP3    H244642   3.931   4.971  17.003 -2.3876 -1.7540 -0.1301
 7743TIP3   OH244643   6.052   3.503  12.721  0.1952  0.2524 -0.1643
 7743TIP3    H144644   6.131   3.527  12.770 -0.5236  0.9383  0.6883
 7743TIP3    H244645   5.980   3.534  12.775 -0.6959 -1.1762 -0.4973
 7744TIP3   OH244646   0.680   4.653   2.462 -0.2424 -0.9439  0.2628
 7744TIP3    H144647   0.725   4.672   2.543  0.0348 -1.6442  0.2804
 7744TIP3    H244648   0.712   4.719   2.400  0.1325 -0.8922  0.5116
 7745TIP3   OH244649   5.023   3.670  13.949  0.6535  0.1996 -0.0409
 7745TIP3    H144650   4.970   3.675  14.028 -0.5039  2.0695 -0.8737
 7745TIP3    H244651   5.024   3.576  13.926 -0.9210 -0.0677  0.8914
 7746TIP3   OH244652   5.839   4.530  12.892  0.3130  0.2984 -0.2892
 7746TIP3    H144653   5.872   4.602  12.945  0.7855  0.0022 -0.1692
 7746TIP3    H244654   5.856   4.452  12.945  0.5279  0.0283 -0.7490
 7747TIP3   OH244655   1.677   3.531   6.407 -0.2868 -0.2486 -0.1299
 7747TIP3    H144656   1.735   3.536   6.483 -1.9915 -0.6589  1.2802
 7747TIP3    H244657   1.728   3.567   6.335  1.2057  0.7241  1.3401
 7748TIP3   OH244658   3.050   6.165  12.988 -0.3350 -0.2035  0.2534
 7748TIP3    H144659   3.122   6.184  13.048 -1.1329  0.3112  1.0754
 7748TIP3    H244660   3.064   6.226  12.915  1.9736 -2.4026 -1.3125
 7749TIP3   OH244661   0.927   3.102   4.174 -0.5010 -0.2703  0.8797
 7749TIP3    H144662   0.849   3.070   4.219 -0.1863 -1.4273  0.6389
 7749TIP3    H244663   0.964   3.167   4.234 -1.4188 -0.0047  1.1768
 7750TIP3   OH244664   4.051   0.671   0.638 -0.0513  0.4878 -0.3839
 7750TIP3    H144665   3.978   0.681   0.575 -1.3243 -1.5257  0.6368
 7750TIP3    H244666   4.111   0.610   0.594 -2.1646 -2.9877  1.1367
 7751TIP3   OH244667   4.233   1.999  16.248 -0.3016  0.2385 -0.1059
 7751TIP3    H144668   4.174   1.993  16.324  0.2369 -0.0098  0.3004
 7751TIP3    H244669   4.227   1.913  16.207  1.3463 -0.5193  1.1354
 7752TIP3   OH244670   6.688   5.758  15.369 -0.0403 -0.1016  0.0050
 7752TIP3    H144671   6.623   5.737  15.436 -1.3388 -1.3321 -1.5402
 7752TIP3    H244672   6.732   5.837  15.402 -1.7425  0.2981  1.5062
 7753TIP3   OH244673   6.696   2.660  14.142  0.0740 -0.3113 -0.2438
 7753TIP3    H144674   6.788   2.679  14.162  0.1798 -0.5219 -0.5232
 7753TIP3    H244675   6.673   2.723  14.075  0.8780 -2.0771 -2.3096
 7754TIP3   OH244676   2.909   6.742   4.693 -0.2404  0.1608 -0.1967
 7754TIP3    H144677   2.953   6.673   4.643  0.0794  0.5694 -0.4823
 7754TIP3    H244678   2.895   6.703   4.780 -0.1519 -0.2973 -0.3823
 7755TIP3   OH244679   3.308   5.239  12.231  0.3471  0.6206 -0.3306
 7755TIP3    H144680   3.363   5.168  12.263  0.5743  0.9909  0.0991
 7755TIP3    H244681   3.280   5.209  12.144  2.4729  1.1026 -1.2403
 7756TIP3   OH244682   6.503   6.339  15.124  0.0313 -0.6262 -0.1427
 7756TIP3    H144683   6.473   6.429  15.108  2.1807  0.1160 -0.2759
 7756TIP3    H244684   6.479   6.322  15.215  0.1136  0.3017  0.0613
 7757TIP3   OH244685   3.595   0.592  10.829 -0.1743  0.0088  0.6132
 7757TIP3    H144686   3.637   0.522  10.778  1.5340  0.5214  1.2567
 7757TIP3    H244687   3.624   0.673  10.787 -0.9679  0.3673  0.7479
 7758TIP3   OH244688   2.406   0.055  16.143 -0.2935  0.4377 -0.1130
 7758TIP3    H144689   2.470   0.051  16.214  0.4302  1.4989 -0.6709
 7758TIP3    H244690   2.393  -0.036  16.117  2.1554  0.2559 -0.9654
 7759TIP3   OH244691   4.976   0.065   1.532  0.4341  0.5514  0.4282
 7759TIP3    H144692   4.942   0.129   1.469 -0.9453  0.0601  0.6293
 7759TIP3    H244693   4.933   0.088   1.614  2.4032  1.3404  1.2916
 7760TIP3   OH244694   4.993   1.414  13.453  0.3018  0.0934  0.0747
 7760TIP3    H144695   4.900   1.401  13.430  0.4229 -0.1594 -0.2891
 7760TIP3    H244696   5.018   1.495  13.408  0.0074  0.6810  0.9457
 7761TIP3   OH244697   0.449   2.698  14.756  0.0808  0.1638  0.0635
 7761TIP3    H144698   0.388   2.736  14.819  2.4566  0.4588  2.3479
 7761TIP3    H244699   0.398   2.691  14.675 -2.5185  1.6892  1.4221
 7762TIP3   OH244700   3.506   6.475  11.369  0.4660  0.0954  0.1673
 7762TIP3    H144701   3.591   6.516  11.357  0.5900 -0.2656 -0.2238
 7762TIP3    H244702   3.450   6.514  11.301  0.0384  1.0692  1.0607
 7763TIP3   OH244703   2.790   6.108  14.886  0.1492  0.2911 -0.0498
 7763TIP3    H144704   2.850   6.165  14.837 -0.5290 -0.2532 -1.5904
 7763TIP3    H244705   2.847   6.044  14.929  0.8286  1.3367  0.6497
 7764TIP3   OH244706   5.138   2.488   6.443  0.6431 -0.3595  0.2418
 7764TIP3    H144707   5.232   2.480   6.431  0.5108 -1.6087 -0.0956
 7764TIP3    H244708   5.100   2.421   6.386 -0.5151  0.8878 -0.5361
 7765TIP3   OH244709   6.703   0.110  15.989 -0.0855  0.0600 -0.1615
 7765TIP3    H144710   6.640   0.113  16.061 -2.1656 -0.5289 -1.8678
 7765TIP3    H244711   6.718   0.016  15.975 -0.6990  0.1214 -1.3046
 7766TIP3   OH244712   4.061   2.070  15.853  0.0898  0.7728 -0.2923
 7766TIP3    H144713   4.038   1.988  15.811  0.5363 -0.2512  1.3820
 7766TIP3    H244714   3.981   2.096  15.899  0.1162  0.9939 -0.3687
 7767TIP3   OH244715   0.054   0.094  11.663 -0.4814  0.3579  0.1606
 7767TIP3    H144716   0.033   0.038  11.738 -0.6356 -0.3822 -0.4276
 7767TIP3    H244717  -0.027   0.096  11.611 -0.0636  0.0475 -0.5027
 7768TIP3   OH244718   6.322   3.764  16.965 -0.3280  0.1138 -0.1375
 7768TIP3    H144719   6.389   3.755  16.898 -0.7064 -0.0819 -0.4939
 7768TIP3    H244720   6.244   3.724  16.926 -0.6495  0.3400  0.2696
 7769TIP3   OH244721   2.922   0.499  16.069  0.7032 -0.1653 -0.2525
 7769TIP3    H144722   2.864   0.523  15.996  1.1245 -1.9339 -1.2450
 7769TIP3    H244723   2.955   0.412  16.045  3.0311  0.3802  0.7391
 7770TIP3   OH244724   4.671   2.422  16.589 -0.0590  1.1948 -0.5362
 7770TIP3    H144725   4.740   2.366  16.554 -1.4557 -1.0721  0.0996
 7770TIP3    H244726   4.654   2.486  16.520  0.7942  0.0937 -1.8149
 7771TIP3   OH244727   3.974   4.275   6.627 -0.4480 -0.3571 -0.0098
 7771TIP3    H144728   3.956   4.195   6.675 -1.4148 -0.6128 -0.7534
 7771TIP3    H244729   3.907   4.337   6.658  0.7425  0.4201  1.1003
 7772TIP3   OH244730   3.523   0.670  14.768 -0.2582  0.2229  0.3785
 7772TIP3    H144731   3.459   0.694  14.700  0.7144  0.6897 -0.3962
 7772TIP3    H244732   3.487   0.705  14.849 -1.3916 -0.2517  0.1025
 7773TIP3   OH244733   1.149   1.483  16.988 -0.1338  0.4054 -0.8440
 7773TIP3    H144734   1.128   1.419  17.056 -2.1599  2.1107  0.2518
 7773TIP3    H244735   1.112   1.446  16.908 -0.8989 -0.0260 -0.3100
 7774TIP3   OH244736   1.101   1.006  13.344  0.0308 -0.1768 -0.0748
 7774TIP3    H144737   1.172   1.063  13.316  0.2734  0.1179  1.0836
 7774TIP3    H244738   1.106   1.007  13.440 -1.3189 -0.4158  0.0164
 7775TIP3   OH244739   5.418   6.564  17.185  0.0290  0.4743  0.5103
 7775TIP3    H144740   5.375   6.637  17.139  0.3735  0.1041 -0.4233
 7775TIP3    H244741   5.510   6.589  17.188  0.0464  0.3756  0.7745
 7776TIP3   OH244742   1.290   5.468   6.305 -0.5103  0.0929 -0.5173
 7776TIP3    H144743   1.312   5.376   6.290 -0.5821  0.0695 -0.4775
 7776TIP3    H244744   1.371   5.507   6.339 -0.4544  0.0645 -0.6191
 7777TIP3   OH244745   1.274   5.140  13.532 -0.6502 -0.0550 -0.2615
 7777TIP3    H144746   1.288   5.163  13.624  1.6057  0.2728 -0.6257
 7777TIP3    H244747   1.282   5.045  13.528  2.1233  0.1052 -0.4543
 7778TIP3   OH244748   1.595   4.117  13.519 -0.2995  0.0541 -0.5016
 7778TIP3    H144749   1.646   4.191  13.487 -0.3718  0.0712 -0.5806
 7778TIP3    H244750   1.516   4.156  13.556  0.5573  0.1580  1.2729
 7779TIP3   OH244751   6.595   2.675   2.178 -0.5936 -0.5379  0.2057
 7779TIP3    H144752   6.631   2.594   2.214  1.3469 -0.8866 -2.2824
 7779TIP3    H244753   6.542   2.647   2.104 -1.9929  0.3466  0.8297
 7780TIP3   OH244754   1.783   0.421  11.672  0.3979  0.0075  0.1976
 7780TIP3    H144755   1.727   0.471  11.731 -0.8387  1.5476 -2.1128
 7780TIP3    H244756   1.839   0.487  11.631  0.5269 -0.8469 -1.0543
 7781TIP3   OH244757   6.506   0.798   1.767 -0.5317 -0.1044 -0.1266
 7781TIP3    H144758   6.484   0.732   1.832 -2.2019 -0.7975 -1.3140
 7781TIP3    H244759   6.509   0.750   1.684  2.3154  0.5993 -0.5326
 7782TIP3   OH244760   4.297   0.106   0.460 -0.4024 -0.8668  0.0691
 7782TIP3    H144761   4.319   0.062   0.378 -1.2904 -1.0816 -0.0658
 7782TIP3    H244762   4.237   0.176   0.434 -0.7403 -0.9783  0.5360
 7783TIP3   OH244763   2.718   4.100  14.600  0.0236  0.2670 -0.3017
 7783TIP3    H144764   2.775   4.161  14.647  0.7112 -0.2278 -0.4641
 7783TIP3    H244765   2.726   4.018  14.648 -1.3751  0.4514  0.2740
 7784TIP3   OH244766   5.821   1.919   4.402  0.1241  0.8555  0.1416
 7784TIP3    H144767   5.737   1.879   4.421  1.3488 -1.2498  1.4163
 7784TIP3    H244768   5.845   1.885   4.316  0.6068 -0.2329  0.6948
 7785TIP3   OH244769   1.613   4.547   4.311  0.2329 -0.7145 -0.0745
 7785TIP3    H144770   1.708   4.543   4.322  0.2202 -0.0122  0.4429
 7785TIP3    H244771   1.594   4.641   4.302 -0.5094 -0.7355  0.9796
 7786TIP3   OH244772   0.406   3.952   2.782 -0.1439  0.6272  0.5984
 7786TIP3    H144773   0.422   4.038   2.822  0.6969  0.6143  0.3022
 7786TIP3    H244774   0.446   3.890   2.842  0.5649  0.5596  0.0654
 7787TIP3   OH244775   4.318   1.021   0.303  0.1173  0.3244 -0.4594
 7787TIP3    H144776   4.381   0.960   0.341 -0.1843 -0.3089 -0.9493
 7787TIP3    H244777   4.250   0.965   0.265 -1.7780  0.9733  1.7342
 7788TIP3   OH244778   6.680   0.479  11.901 -0.0237 -0.0668 -0.2176
 7788TIP3    H144779   6.611   0.468  11.835  0.7075 -0.0521 -0.9987
 7788TIP3    H244780   6.760   0.451  11.857  0.3292 -1.0449  1.0118
 7789TIP3   OH244781   1.066   5.022   3.731  0.8458 -0.1076 -0.1601
 7789TIP3    H144782   0.971   5.033   3.722  0.8865 -0.2515 -0.7589
 7789TIP3    H244783   1.099   5.110   3.748  0.6980  0.0628 -0.7631
 7790TIP3   OH244784   5.945   6.053  10.879  0.1976  0.4655  0.7399
 7790TIP3    H144785   5.934   6.146  10.859 -0.1366  0.0579 -1.2001
 7790TIP3    H244786   5.901   6.007  10.807  0.7954 -1.2040  1.3722
 7791TIP3   OH244787   6.010   2.452   4.848  0.2608 -0.1397 -0.0591
 7791TIP3    H144788   5.969   2.371   4.817 -0.5269  0.3456 -0.3430
 7791TIP3    H244789   6.103   2.433   4.849 -0.0147 -1.6233  1.5932
 7792TIP3   OH244790   4.298   3.951  14.735 -0.1938 -0.1686  0.0453
 7792TIP3    H144791   4.274   4.001  14.813  0.8500 -0.7424  0.7554
 7792TIP3    H244792   4.337   4.015  14.675  0.2954  0.0313  0.5740
 7793TIP3   OH244793   6.113   3.245  11.679 -0.1752 -0.7662 -0.2321
 7793TIP3    H144794   6.075   3.200  11.754  0.3089  0.1527  0.5845
 7793TIP3    H244795   6.188   3.293  11.715 -1.9326  2.5411 -0.5727
 7794TIP3   OH244796   5.626   4.893   0.257 -0.1742  0.1672 -0.7603
 7794TIP3    H144797   5.684   4.922   0.327  0.2084 -0.6859 -0.7170
 7794TIP3    H244798   5.553   4.851   0.302  0.1851 -0.5888 -0.8677
 7795TIP3   OH244799   6.295   5.458   5.088 -0.7039 -0.1728 -0.2387
 7795TIP3    H144800   6.269   5.456   5.180 -1.1232  1.9950 -0.2636
 7795TIP3    H244801   6.390   5.443   5.089 -0.3932  1.6584  0.7406
 7796TIP3   OH244802   1.468   4.369  15.851 -0.0320 -0.0578  0.2228
 7796TIP3    H144803   1.381   4.346  15.816  0.0918 -2.3465  1.2609
 7796TIP3    H244804   1.522   4.379  15.773 -1.1607  1.2348 -0.4399
 7797TIP3   OH244805   5.491   1.997   5.636  0.6627  0.3464 -0.1354
 7797TIP3    H144806   5.537   1.950   5.567  0.4750  0.5897 -0.4281
 7797TIP3    H244807   5.456   2.075   5.593  1.6960  1.1993  0.5332
 7798TIP3   OH244808   1.557   1.480   5.580  0.1076  0.6184  0.2104
 7798TIP3    H144809   1.547   1.509   5.489  0.1933 -1.7836 -0.6541
 7798TIP3    H244810   1.573   1.560   5.629 -0.0784  2.0204 -1.8605
 7799TIP3   OH244811   4.133   3.434   6.025  0.1112 -0.4947  0.3967
 7799TIP3    H144812   4.214   3.440   5.976  1.7874  0.9580  3.1190
 7799TIP3    H244813   4.121   3.340   6.042 -0.5157 -1.0397 -2.5427
 7800TIP3   OH244814   5.366   4.239   2.830 -0.5429 -0.2950  0.0868
 7800TIP3    H144815   5.441   4.295   2.845 -0.3220 -0.2301 -1.1361
 7800TIP3    H244816   5.309   4.253   2.906  0.6094 -0.2512  0.9591
 7801TIP3   OH244817   3.480   2.361   5.405  0.3545  0.5896  0.2411
 7801TIP3    H144818   3.471   2.453   5.379  0.0621  0.4059 -0.3322
 7801TIP3    H244819   3.397   2.341   5.449  0.2034  0.4579 -0.0984
 7802TIP3   OH244820   1.604   6.535   4.264  0.2717  0.1934 -0.5399
 7802TIP3    H144821   1.610   6.567   4.355  0.7862 -0.3286 -0.3880
 7802TIP3    H244822   1.692   6.548   4.228  0.3642 -0.6127 -0.6220
 7803TIP3   OH244823   0.085   2.671  12.808 -0.5051  0.2722 -0.1251
 7803TIP3    H144824   0.175   2.686  12.837 -0.8342 -0.8395  1.6115
 7803TIP3    H244825   0.033   2.733  12.858 -0.8566 -0.0862 -0.0448
 7804TIP3   OH244826   0.268   6.047  13.491  0.1214 -0.3166 -0.2755
 7804TIP3    H144827   0.176   6.066  13.509  0.9435  4.2036  0.2383
 7804TIP3    H244828   0.271   6.031  13.397 -1.1816 -0.8560 -0.2512
 7805TIP3   OH244829   6.335   2.225  11.940  0.6026 -0.5354  0.2549
 7805TIP3    H144830   6.318   2.160  11.873 -1.6596 -0.4975  0.7258
 7805TIP3    H244831   6.430   2.222  11.953  0.6930 -2.8929 -0.5492
 7806TIP3   OH244832   6.052   3.213  16.171  0.7869  0.4971  0.1718
 7806TIP3    H144833   5.983   3.151  16.146 -0.2465  0.8716  1.9428
 7806TIP3    H244834   6.025   3.296  16.133  0.9686  0.3643 -0.2550
 7807TIP3   OH244835   1.879   4.525  12.408 -0.1310 -0.0807  0.1271
 7807TIP3    H144836   1.916   4.437  12.406  0.7670  0.2610  0.8555
 7807TIP3    H244837   1.955   4.583  12.403 -0.7371  0.6601 -0.7787
 7808TIP3   OH244838   1.225   4.472   2.210  0.1545 -0.0219 -0.6389
 7808TIP3    H144839   1.136   4.464   2.244  0.1688  1.3951 -0.2102
 7808TIP3    H244840   1.275   4.513   2.281  1.5748 -2.2366 -0.2436
 7809TIP3   OH244841   1.753   3.864   0.255 -0.0578 -0.6695  0.2098
 7809TIP3    H144842   1.778   3.864   0.348 -0.1089 -1.7938  0.2374
 7809TIP3    H244843   1.835   3.883   0.209  0.1011 -0.7174  0.4669
 7810TIP3   OH244844   2.118   5.788   0.415 -0.3312  0.4005  0.0566
 7810TIP3    H144845   2.128   5.780   0.320 -0.6676 -0.4318  0.0832
 7810TIP3    H244846   2.029   5.758   0.432  0.0611 -0.4042  0.7470
 7811TIP3   OH244847   5.739   1.807   3.961 -0.0641  0.0943 -0.1933
 7811TIP3    H144848   5.704   1.720   3.939 -1.4261  0.8724 -1.3064
 7811TIP3    H244849   5.671   1.846   4.017  1.1474 -0.0202  1.4214
 7812TIP3   OH244850   2.931   1.072  14.489  0.7312 -0.7493  0.5231
 7812TIP3    H144851   2.865   1.100  14.552  1.0668 -1.8562  1.3915
 7812TIP3    H244852   2.993   1.145  14.484 -0.3473  0.1581 -0.0407
 7813TIP3   OH244853   4.992   5.870  13.762 -0.2186 -0.0037  0.8122
 7813TIP3    H144854   4.989   5.956  13.720  1.3008 -0.8299 -1.1363
 7813TIP3    H244855   4.907   5.862  13.806 -0.6590  2.1907  0.4689
 7814TIP3   OH244856   2.785   0.548  15.309 -0.6238  0.4631 -0.2516
 7814TIP3    H144857   2.707   0.576  15.357 -0.5185 -0.6000  0.5696
 7814TIP3    H244858   2.758   0.467  15.265  0.5536 -1.0556  1.6729
 7815TIP3   OH244859   2.760   5.995   5.268 -0.5216  0.0881 -0.4774
 7815TIP3    H144860   2.756   6.082   5.227  2.1085  0.1849 -0.6937
 7815TIP3    H244861   2.715   5.937   5.206 -0.5198  0.9649 -1.3289
 7816TIP3   OH244862   0.201   0.727   5.221  0.5056  0.2284 -0.0029
 7816TIP3    H144863   0.289   0.710   5.255  0.8642 -2.5821 -2.0615
 7816TIP3    H244864   0.143   0.682   5.282  0.7203 -0.3614 -0.2354
 7817TIP3   OH244865   1.693   6.044  13.880  0.4351  0.0712 -0.1875
 7817TIP3    H144866   1.614   6.075  13.925 -0.7770 -2.9644  0.0168
 7817TIP3    H244867   1.664   6.025  13.791  0.7974 -1.4887  0.0072
 7818TIP3   OH244868   5.569   3.305   0.569  0.6969 -0.6576  0.3366
 7818TIP3    H144869   5.592   3.233   0.627 -1.4792 -1.6725  0.0347
 7818TIP3    H244870   5.476   3.291   0.548  0.9706  0.5821 -2.0855
 7819TIP3   OH244871   4.710   3.308  15.390  0.9807  0.0508  0.2156
 7819TIP3    H144872   4.767   3.234  15.368 -1.9500 -2.1747 -0.3745
 7819TIP3    H244873   4.636   3.300  15.330  0.3338  3.3032  0.3992
 7820TIP3   OH244874   2.414   1.965   2.782  0.2833 -0.3604 -0.7639
 7820TIP3    H144875   2.450   1.893   2.833  1.2161 -0.1076 -1.0407
 7820TIP3    H244876   2.324   1.974   2.813  0.9900  0.1870  1.2937
 7821TIP3   OH244877   3.779   1.259  14.286 -0.2792 -0.8687 -0.2079
 7821TIP3    H144878   3.832   1.297  14.356 -1.0333  0.6747 -0.4110
 7821TIP3    H244879   3.758   1.171  14.316 -0.3750 -0.3324  1.4086
 7822TIP3   OH244880   5.629   3.806   4.077  0.6571 -0.1251 -0.2663
 7822TIP3    H144881   5.552   3.761   4.042  0.3154  1.1260 -1.1919
 7822TIP3    H244882   5.636   3.885   4.024  2.0917  0.1961  0.3697
 7823TIP3   OH244883   3.822   1.851  10.963  0.5326  0.3572 -0.1521
 7823TIP3    H144884   3.808   1.928  11.018 -1.1023  0.7062 -1.0251
 7823TIP3    H244885   3.743   1.798  10.975  0.4676  0.0934 -1.5907
 7824TIP3   OH244886   0.403   5.926  11.120 -0.2162 -0.1310  0.5428
 7824TIP3    H144887   0.338   5.897  11.183  0.1600  0.4380  1.2125
 7824TIP3    H244888   0.446   5.845  11.090 -1.1678 -0.4975  0.1471
 7825TIP3   OH244889   2.233   3.751   1.736  0.3425  0.8001  0.1992
 7825TIP3    H144890   2.206   3.773   1.646  0.4169  1.0773  0.2422
 7825TIP3    H244891   2.241   3.656   1.736  0.6025  0.8193 -0.1655
 7826TIP3   OH244892   3.244   1.195  16.346  0.4178  0.1657 -0.3617
 7826TIP3    H144893   3.205   1.117  16.306  1.0470 -0.5085  0.2987
 7826TIP3    H244894   3.291   1.238  16.275 -0.5264  0.3363 -0.8945
 7827TIP3   OH244895   2.483   3.208  13.446  0.3682  0.1794 -0.2393
 7827TIP3    H144896   2.556   3.197  13.506 -2.1670 -2.4683  2.6927
 7827TIP3    H244897   2.421   3.263  13.493 -0.9695 -0.4800 -1.1571
 7828TIP3   OH244898   0.117   0.819  16.370 -0.0943  0.5041  0.1628
 7828TIP3    H144899   0.168   0.883  16.320 -0.3767  1.1721  0.7227
 7828TIP3    H244900   0.172   0.798  16.445 -0.2766  0.5750  0.3164
 7829TIP3   OH244901   4.482   0.563   2.619 -0.1599 -0.0334 -0.3967
 7829TIP3    H144902   4.444   0.584   2.704  0.3316  0.7917 -0.3765
 7829TIP3    H244903   4.569   0.529   2.639  0.2180  0.7902 -0.5946
 7830TIP3   OH244904   3.748   2.084   2.838 -0.2059 -0.2915 -0.4841
 7830TIP3    H144905   3.815   2.100   2.771  1.7064 -2.0558  0.8770
 7830TIP3    H244906   3.748   2.163   2.891 -1.7179  1.1226 -2.4231
 7831TIP3   OH244907   3.353   1.626   2.511 -0.2747 -0.5504 -0.4656
 7831TIP3    H144908   3.285   1.683   2.548  0.2002  0.4660 -1.1153
 7831TIP3    H244909   3.427   1.633   2.571  0.3315  0.7417 -1.3219
 7832TIP3   OH244910   2.282   3.920   5.616  0.0378 -0.5518 -0.0396
 7832TIP3    H144911   2.247   3.879   5.537  1.5753 -0.9051 -0.5726
 7832TIP3    H244912   2.254   4.011   5.610  0.3956 -0.5008 -1.1720
 7833TIP3   OH244913   3.433   1.288  13.747 -0.5054 -0.0012 -0.0053
 7833TIP3    H144914   3.378   1.352  13.792 -3.6763 -0.7192 -2.4708
 7833TIP3    H244915   3.487   1.339  13.688 -0.9979  0.5530  0.0158
 7834TIP3   OH244916   3.068   5.846  16.878 -0.0770 -0.0675  0.1445
 7834TIP3    H144917   3.112   5.799  16.948  0.9433 -0.3884 -0.6859
 7834TIP3    H244918   3.101   5.936  16.884 -1.3799  0.3689  1.1955
 7835TIP3   OH244919   6.728   6.751  16.703 -0.3397  1.0211  0.1287
 7835TIP3    H144920   6.822   6.748  16.684 -0.5771  1.8271 -1.3355
 7835TIP3    H244921   6.688   6.778  16.620 -1.9316  0.0692  0.5513
 7836TIP3   OH244922   0.395   1.179   4.231 -0.0201  0.6516  0.3087
 7836TIP3    H144923   0.389   1.086   4.209  0.5941  0.0152  2.5485
 7836TIP3    H244924   0.339   1.189   4.308  0.9616  1.8519  0.9017
 7837TIP3   OH244925   0.075   0.298  13.172 -0.1167 -0.4513 -0.2512
 7837TIP3    H144926   0.014   0.259  13.235  0.4351  0.0902  0.6321
 7837TIP3    H244927   0.152   0.321  13.224  1.4850 -2.4501 -1.5528
 7838TIP3   OH244928   0.393   2.206   3.673  0.1779 -0.2090 -0.5582
 7838TIP3    H144929   0.439   2.267   3.730 -1.7162  0.0520  0.8019
 7838TIP3    H244930   0.361   2.137   3.732 -1.5660 -0.1060 -1.3041
 7839TIP3   OH244931   2.163   1.902  11.645 -0.7130 -0.5148  0.5296
 7839TIP3    H144932   2.256   1.889  11.660 -0.5431  0.8602  0.7775
 7839TIP3    H244933   2.122   1.885  11.730 -0.7028 -1.1177  0.4201
 7840TIP3   OH244934   1.424   5.917  15.239  0.2257 -0.3143 -0.3304
 7840TIP3    H144935   1.450   5.889  15.151 -0.6440 -1.9389 -0.1097
 7840TIP3    H244936   1.358   5.853  15.266  0.4644  0.1589  1.5084
 7841TIP3   OH244937   6.382   4.397  11.453 -0.4004 -0.0072  0.2605
 7841TIP3    H144938   6.343   4.383  11.539  0.4077 -1.7209  0.3977
 7841TIP3    H244939   6.308   4.420  11.397 -0.8955  1.4629  1.4543
 7842TIP3   OH244940   2.310   1.250   4.502  0.2556  0.1321  0.5721
 7842TIP3    H144941   2.218   1.258   4.476  0.3963 -1.4897 -0.5829
 7842TIP3    H244942   2.336   1.339   4.527 -0.7811  1.2204 -1.9371
 7843TIP3   OH244943   3.427   1.780  13.235 -0.5619 -0.3244 -0.2568
 7843TIP3    H144944   3.445   1.771  13.329 -0.0205  1.8637 -0.0940
 7843TIP3    H244945   3.513   1.777  13.194 -0.8854 -3.1898 -0.9885
 7844TIP3   OH244946   6.109   6.498   5.205 -0.3384 -0.1058  0.2976
 7844TIP3    H144947   6.094   6.404   5.204  1.5868 -0.4456 -0.3241
 7844TIP3    H244948   6.064   6.530   5.126 -2.0526 -0.2554  1.1489
 7845TIP3   OH244949   6.325   1.932   0.242 -0.2031  0.1678 -0.0369
 7845TIP3    H144950   6.353   1.854   0.194 -0.0229 -1.0381  1.8970
 7845TIP3    H244951   6.406   1.980   0.259 -0.3874  1.1995 -1.8228
 7846TIP3   OH244952   2.645   1.371   0.237  0.1001  0.0994 -0.6412
 7846TIP3    H144953   2.580   1.438   0.258 -1.2906 -1.4606  0.3352
 7846TIP3    H244954   2.635   1.356   0.143  0.0223  0.8420 -0.7551
 7847TIP3   OH244955   3.391   1.381  15.042 -0.1537  0.3814 -0.1158
 7847TIP3    H144956   3.423   1.318  14.977 -1.4207 -0.3046 -0.1081
 7847TIP3    H244957   3.413   1.467  15.004 -0.0019 -0.0296 -0.9940
 7848TIP3   OH244958   6.327   2.202   4.429  0.1089  0.7323  0.2540
 7848TIP3    H144959   6.234   2.183   4.440 -0.1950  0.9463 -1.5854
 7848TIP3    H244960   6.335   2.297   4.443  0.0131  0.7453  0.2175
 7849TIP3   OH244961   5.282   3.108  12.294 -0.7694 -0.0796 -0.0267
 7849TIP3    H144962   5.220   3.041  12.264  0.4515 -0.5536 -1.5827
 7849TIP3    H244963   5.365   3.085  12.253  0.0153  1.6198  0.5164
 7850TIP3   OH244964   3.562   2.480  14.924  0.3807  0.3224  0.4637
 7850TIP3    H144965   3.576   2.503  15.016  0.2435 -0.0355  0.5749
 7850TIP3    H244966   3.590   2.389  14.918  1.0075  0.5312  0.0070
 7851TIP3   OH244967   5.887   4.908   0.821 -0.2390 -0.0203  0.1519
 7851TIP3    H144968   5.942   4.973   0.865 -2.1069 -1.6399  5.6669
 7851TIP3    H244969   5.812   4.958   0.789  0.6135  1.1232 -0.1397
 7852TIP3   OH244970   2.275   2.411   3.553 -0.5712 -0.3237  0.5839
 7852TIP3    H144971   2.266   2.452   3.467  2.0034  1.3348  0.9902
 7852TIP3    H244972   2.212   2.456   3.608 -1.7031 -0.8761 -0.2099
 7853TIP3   OH244973   0.147   4.648   0.961  0.2992 -0.3890  0.2971
 7853TIP3    H144974   0.186   4.736   0.964  2.3834 -1.2482  3.4868
 7853TIP3    H244975   0.055   4.662   0.982  0.9540  0.9709  2.5799
 7854TIP3   OH244976   2.814   2.109   3.859  0.1092 -0.5512 -1.0453
 7854TIP3    H144977   2.843   2.199   3.846  0.4434 -0.5329 -0.2042
 7854TIP3    H244978   2.789   2.080   3.771 -0.8846  0.6467 -1.1865
 7855TIP3   OH244979   4.464   6.644   6.336 -0.3965 -0.6595  0.2786
 7855TIP3    H144980   4.478   6.563   6.385 -0.2700 -1.1412 -0.5244
 7855TIP3    H244981   4.371   6.665   6.349 -0.1127 -0.1662  1.6103
 7856TIP3   OH244982   6.382   4.266   2.817  0.4473 -0.6955 -0.7910
 7856TIP3    H144983   6.297   4.235   2.787  0.0884 -0.2878 -0.2009
 7856TIP3    H244984   6.368   4.357   2.843  1.1118 -0.5534 -0.8936
 7857TIP3   OH244985   3.621   0.557  11.576 -0.3699  0.0991  0.6760
 7857TIP3    H144986   3.609   0.585  11.667 -1.6652  1.8697 -0.0030
 7857TIP3    H244987   3.669   0.474  11.584 -0.3756  0.2339  2.9581
 7858TIP3   OH244988   3.213   4.813   0.799 -0.3753  0.9583  0.3316
 7858TIP3    H144989   3.177   4.897   0.828 -2.6686  0.1775 -0.0604
 7858TIP3    H244990   3.141   4.770   0.753  1.2683 -0.4997 -1.0496
 7859TIP3   OH244991   3.229   5.053  16.950 -0.6598 -0.0633  0.5089
 7859TIP3    H144992   3.205   5.094  16.866 -0.2931  1.4903  1.1343
 7859TIP3    H244993   3.313   5.009  16.932 -0.4712  0.4482  0.1191
 7860TIP3   OH244994   0.233   5.561  14.351  0.5333 -0.8364  0.1720
 7860TIP3    H144995   0.261   5.651  14.337  1.1874 -1.0597  0.0303
 7860TIP3    H244996   0.149   5.554  14.306 -0.0471 -0.0020  1.0896
 7861TIP3   OH244997   2.221   5.416   3.850 -0.0067 -0.9038 -0.4343
 7861TIP3    H144998   2.198   5.446   3.762  0.1518 -1.9726 -0.8544
 7861TIP3    H244999   2.251   5.495   3.895  1.3240 -0.5860 -1.7982
 7862TIP3   OH245000   5.076   1.309   1.875  0.1521 -0.1713  0.2172
 7862TIP3    H145001   5.110   1.398   1.876 -0.2894  0.0145 -0.6060
 7862TIP3    H245002   5.152   1.254   1.858  0.8670 -0.1971  2.9355
 7863TIP3   OH245003   4.018   5.000  16.132  0.6802  0.2356  0.8518
 7863TIP3    H145004   4.021   5.028  16.224  0.5533 -0.1615  0.9762
 7863TIP3    H245005   4.005   4.906  16.136  0.5494  0.2353  0.4220
 7864TIP3   OH245006   3.887   4.376   4.569 -0.5673 -0.1443 -0.4143
 7864TIP3    H145007   3.974   4.348   4.598 -0.5821  0.4294  0.2077
 7864TIP3    H245008   3.900   4.465   4.537 -0.5033 -0.8436 -2.4434
 7865TIP3   OH245009   2.557   3.734   0.590 -0.6224  0.0111 -0.5171
 7865TIP3    H145010   2.518   3.669   0.531 -0.2796 -0.8088  0.1350
 7865TIP3    H245011   2.496   3.739   0.664  0.5940 -1.5345  0.6763
 7866TIP3   OH245012   6.228   2.382   2.512  0.3315  0.1766  0.0187
 7866TIP3    H145013   6.321   2.363   2.527  0.1149 -1.2254 -0.3352
 7866TIP3    H245014   6.210   2.344   2.426 -0.8747 -0.6147  0.6152
 7867TIP3   OH245015   4.240   5.574   3.498 -0.1631  0.2211 -1.2746
 7867TIP3    H145016   4.179   5.648   3.504 -0.3207  0.2112 -2.5382
 7867TIP3    H245017   4.283   5.572   3.584 -0.7100  1.2975 -0.9544
 7868TIP3   OH245018   0.741   3.001   0.953  0.2666  0.2862 -0.1158
 7868TIP3    H145019   0.774   2.981   0.865  0.6859  2.0796 -0.4103
 7868TIP3    H245020   0.818   3.032   1.001  0.0332 -0.6554  0.8938
 7869TIP3   OH245021   0.199   4.093  16.144 -0.3916 -0.4547 -0.3712
 7869TIP3    H145022   0.114   4.096  16.101  0.0003 -0.1530 -1.1343
 7869TIP3    H245023   0.260   4.132  16.081  0.1376  0.3142  0.5974
 7870TIP3   OH245024   5.084   4.405   2.724  0.0417  0.4383  0.7506
 7870TIP3    H145025   5.002   4.444   2.757 -1.2032 -1.8761  0.5880
 7870TIP3    H245026   5.136   4.388   2.803  0.1359  1.3915  0.9033
 7871TIP3   OH245027   3.754   6.421  12.086 -0.4194  0.0978 -0.4185
 7871TIP3    H145028   3.669   6.456  12.059 -0.2311  0.6831 -0.2692
 7871TIP3    H245029   3.808   6.429  12.008 -0.2790  0.4658 -0.2862
 7872TIP3   OH245030   5.516   6.736  11.534  0.2963  0.2449  0.5399
 7872TIP3    H145031   5.433   6.782  11.548 -0.0169 -0.6004  1.6586
 7872TIP3    H245032   5.564   6.749  11.616  0.3740 -1.0071  0.7203
 7873TIP3   OH245033   0.445   0.531   3.458  0.2837 -0.5342  0.6331
 7873TIP3    H145034   0.404   0.455   3.498  1.4588 -1.7041 -0.2501
 7873TIP3    H245035   0.485   0.496   3.377  1.0742  0.9628  0.3415
 7874TIP3   OH245036   3.103   1.718   0.588 -0.6528 -0.0139  0.5630
 7874TIP3    H145037   3.055   1.792   0.624  0.9141 -0.0997  3.0974
 7874TIP3    H245038   3.191   1.726   0.626  1.0131 -0.5918 -2.7861
 7875TIP3   OH245039   5.209   3.598  13.482 -0.3655 -0.1814  0.2647
 7875TIP3    H145040   5.145   3.658  13.520  1.1457  1.5868  0.1721
 7875TIP3    H245041   5.267   3.576  13.555  0.8820  0.9728 -0.3263
 7876TIP3   OH245042   0.702   6.339  10.846  0.2967  0.8761  0.1918
 7876TIP3    H145043   0.742   6.424  10.860 -1.7160  1.9095  0.0150
 7876TIP3    H245044   0.625   6.339  10.903  1.2775 -1.6361  1.7080
 7877TIP3   OH245045   5.605   4.877   1.318  0.2977  0.7886 -0.2665
 7877TIP3    H145046   5.683   4.919   1.353  0.4937  1.2505 -1.2251
 7877TIP3    H245047   5.634   4.788   1.295 -0.3264 -0.2445  2.5607
 7878TIP3   OH245048   2.544   0.155  12.321  0.0012 -0.0516  0.5231
 7878TIP3    H145049   2.532   0.080  12.262  0.8384 -0.0296  0.2997
 7878TIP3    H245050   2.459   0.198  12.324  0.1854  0.5600 -1.5478
 7879TIP3   OH245051   0.271   1.942  12.755 -0.1049 -0.5603 -0.2851
 7879TIP3    H145052   0.279   1.960  12.849  0.9415 -1.0382 -0.2698
 7879TIP3    H245053   0.327   1.866  12.740 -0.5706 -0.7336 -1.2329
 7880TIP3   OH245054   6.367   4.239   0.256  0.0301  0.2030  0.6004
 7880TIP3    H145055   6.414   4.295   0.195  0.7777 -1.0126  0.0153
 7880TIP3    H245056   6.278   4.235   0.222  0.3686 -0.2344 -0.2729
 7881TIP3   OH245057   1.281   5.158  16.122  0.2283  0.1219  0.3264
 7881TIP3    H145058   1.205   5.102  16.135 -0.2129  0.3113 -1.3003
 7881TIP3    H245059   1.269   5.228  16.187 -1.9788  1.1351 -1.0294
 7882TIP3   OH245060   0.310   6.025   5.883  0.4391  0.1966  0.1549
 7882TIP3    H145061   0.287   6.112   5.853 -1.2447 -0.0244  0.7085
 7882TIP3    H245062   0.237   5.970   5.856 -0.6765 -0.2120  3.6071
 7883TIP3   OH245063   4.791   5.883   1.331  0.6486 -0.5204 -0.0939
 7883TIP3    H145064   4.697   5.898   1.318  0.7880 -0.6524 -1.3352
 7883TIP3    H245065   4.803   5.890   1.426 -0.2657  1.4553 -0.0860
 7884TIP3   OH245066   1.204   3.795   1.969 -0.5132 -0.5399  0.2378
 7884TIP3    H145067   1.189   3.878   1.923  1.4942 -0.2822 -0.0308
 7884TIP3    H245068   1.247   3.820   2.050  1.7990 -1.3679 -0.6497
 7885TIP3   OH245069   1.964   0.292  12.281  0.4061  0.1505  0.0312
 7885TIP3    H145070   1.995   0.216  12.232 -1.0070  0.6065 -1.6775
 7885TIP3    H245071   1.872   0.300  12.257  0.4766  2.3162  0.2788
 7886TIP3   OH245072   5.281   1.519   3.021  0.5533 -0.0252  1.2162
 7886TIP3    H145073   5.317   1.553   3.103  0.4019  2.4324  0.3448
 7886TIP3    H245074   5.197   1.482   3.046  0.9074 -0.1266  2.3134
 7887TIP3   OH245075   3.960   1.604   0.059 -0.7012 -0.0058  0.1538
 7887TIP3    H145076   3.928   1.639   0.143 -0.6041 -0.9333  0.5906
 7887TIP3    H245077   3.880   1.577   0.013 -0.6449 -1.4316  0.8415
 7888TIP3   OH245078   1.047   3.475  10.261  0.7986  0.2224  0.7133
 7888TIP3    H145079   1.027   3.502  10.350  1.6861  0.6840  0.7873
 7888TIP3    H245080   1.135   3.438  10.266  1.7015  2.0826 -0.2864
 7889TIP3   OH245081   1.282   0.527   1.306 -0.4817  0.0926 -0.2938
 7889TIP3    H145082   1.240   0.442   1.289 -0.3456 -0.1797  0.6502
 7889TIP3    H245083   1.219   0.591   1.274 -0.8481 -0.3520 -0.4827
 7890TIP3   OH245084   1.101   0.641  13.543 -0.8315  0.1450 -0.3965
 7890TIP3    H145085   1.154   0.673  13.470 -0.7433  0.7186 -0.0837
 7890TIP3    H245086   1.159   0.646  13.619 -0.7798 -0.8688 -0.3592
 7891TIP3   OH245087   0.453   3.543   4.128  0.3160 -0.4293 -0.4477
 7891TIP3    H145088   0.532   3.552   4.075  1.3200  0.6680  1.1622
 7891TIP3    H245089   0.381   3.546   4.064  1.5169 -0.5838 -1.8572
 7892TIP3   OH245090   0.087   0.590   5.442  0.4694 -0.3247  0.1908
 7892TIP3    H145091   0.141   0.580   5.520 -1.0212  0.1618  1.3253
 7892TIP3    H245092   0.072   0.501   5.411  0.2845 -0.5902  1.0325
 7893TIP3   OH245093   0.155   1.425  13.491 -0.3616 -0.0374  0.2876
 7893TIP3    H145094   0.226   1.484  13.516 -0.0077 -0.9799  1.6222
 7893TIP3    H245095   0.190   1.374  13.418 -0.9469  1.8734 -1.4210
 7894TIP3   OH245096   5.128   1.012   5.843  0.1496  0.0423 -0.2051
 7894TIP3    H145097   5.100   0.955   5.772 -0.1682  1.9163 -1.6519
 7894TIP3    H245098   5.073   1.089   5.836  1.2469  0.9895  1.0432
 7895TIP3   OH245099   3.185   2.243  17.044  0.3699 -0.7036 -0.2199
 7895TIP3    H145100   3.229   2.227  16.960  0.2840  1.6159 -0.7885
 7895TIP3    H245101   3.100   2.281  17.019 -0.3775 -1.5527  0.9269
 7896TIP3   OH245102   1.987   4.002  13.424  0.0493  0.0980  0.7678
 7896TIP3    H145103   1.921   4.066  13.396 -1.8974 -1.8142  0.7753
 7896TIP3    H245104   1.938   3.933  13.468  1.7942 -2.3594 -0.8483
 7897TIP3   OH245105   1.376   6.248  12.890  0.5587 -0.0336  0.2409
 7897TIP3    H145106   1.390   6.312  12.820 -0.4242 -0.6876 -0.6048
 7897TIP3    H245107   1.440   6.179  12.872 -1.4466 -1.5354 -1.7550
 7898TIP3   OH245108   0.222   2.084   0.321  0.3007 -0.1100  0.2832
 7898TIP3    H145109   0.234   2.008   0.263 -2.2256 -0.0465 -0.4484
 7898TIP3    H245110   0.190   2.046   0.403  0.7500  0.0434  0.5316
 7899TIP3   OH245111   0.070   5.977  16.223 -0.2001  0.2401 -0.1457
 7899TIP3    H145112   0.030   6.021  16.298 -0.3390 -0.0355 -0.0554
 7899TIP3    H245113   0.131   5.915  16.262  1.3143  1.5638 -0.3038
 7900TIP3   OH245114   2.939   2.522   0.689 -0.4687 -0.5497  0.5015
 7900TIP3    H145115   2.994   2.475   0.627 -0.1478 -1.2263  1.2832
 7900TIP3    H245116   2.869   2.460   0.711 -2.2208  0.6591 -1.2941
 7901TIP3   OH245117   4.999   1.976  13.857 -0.3407 -0.3977  0.1996
 7901TIP3    H145118   5.002   1.902  13.797  1.8798  0.8407 -1.3589
 7901TIP3    H245119   5.062   1.954  13.925  1.1432  0.4422 -0.8446
 7902TIP3   OH245120   1.750   2.752  12.240  0.2447  0.6058 -0.2629
 7902TIP3    H145121   1.708   2.787  12.318 -0.4715 -1.9258  0.5981
 7902TIP3    H245122   1.677   2.737  12.179  0.5873  0.9819 -0.7731
 7903TIP3   OH245123   2.556   3.390   5.312 -0.5101 -0.4624 -0.3678
 7903TIP3    H145124   2.598   3.469   5.346 -0.0799 -0.7027 -0.3323
 7903TIP3    H245125   2.511   3.419   5.233  0.2444 -0.3198 -0.7581
 7904TIP3   OH245126   0.114   6.689   6.159 -0.0178  0.1428  0.3692
 7904TIP3    H145127   0.154   6.607   6.187 -1.4947 -0.3575  1.1321
 7904TIP3    H245128   0.166   6.718   6.084  0.8372 -1.2094  0.4193
 7905TIP3   OH245129   4.063   3.233   4.633 -0.3738 -0.7715 -0.2651
 7905TIP3    H145130   3.984   3.283   4.612  0.3695 -0.3138 -2.0895
 7905TIP3    H245131   4.032   3.144   4.650 -1.5044 -0.1390  1.2816
 7906TIP3   OH245132   6.567   3.697   3.470 -0.3106 -0.2240 -0.4927
 7906TIP3    H145133   6.572   3.679   3.376 -0.6602  0.7141 -0.6987
 7906TIP3    H245134   6.609   3.782   3.480 -0.7261 -0.0873  0.1282
 7907TIP3   OH245135   0.816   3.519   2.266  0.6014  0.4351 -0.3186
 7907TIP3    H145136   0.866   3.571   2.203 -1.5277 -0.1663 -2.7165
 7907TIP3    H245137   0.856   3.433   2.263  1.1777  0.6905 -0.0226
 7908TIP3   OH245138   4.221   1.134   4.152 -0.5945  0.2480 -0.1908
 7908TIP3    H145139   4.239   1.154   4.244 -0.0551 -0.7033 -0.0761
 7908TIP3    H245140   4.160   1.060   4.156  1.3230 -1.4103 -0.5717
 7909TIP3   OH245141   4.319   2.026  13.156 -0.3323 -0.6496  0.1948
 7909TIP3    H145142   4.285   2.105  13.197 -0.4441 -0.0388 -1.0161
 7909TIP3    H245143   4.406   2.014  13.195 -0.1533  0.2978  0.1102
 7910TIP3   OH245144   6.562   6.389   4.575  0.5642 -0.5894 -0.5358
 7910TIP3    H145145   6.586   6.457   4.638  0.4581 -0.6055 -0.4762
 7910TIP3    H245146   6.529   6.438   4.499 -2.1532 -0.5612  0.5494
 7911TIP3   OH245147   6.470   0.840  10.770 -0.3163 -0.0814 -0.6042
 7911TIP3    H145148   6.517   0.915  10.731  0.7236  0.1298  0.9676
 7911TIP3    H245149   6.457   0.865  10.861 -1.4927 -1.1314 -0.4567
 7912TIP3   OH245150   6.601   6.312   2.706  0.4833 -0.2154 -0.4340
 7912TIP3    H145151   6.600   6.384   2.768 -0.9247  0.1638 -0.8435
 7912TIP3    H245152   6.622   6.353   2.622  0.4709 -0.4041 -0.5309
 7913TIP3   OH245153   5.876   2.847   3.181 -0.1628  0.2541 -0.0405
 7913TIP3    H145154   5.910   2.782   3.242 -0.9179 -0.0479  0.0703
 7913TIP3    H245155   5.867   2.927   3.233  1.2160  0.6030 -0.2925
 7914TIP3   OH245156   0.267   1.031   4.623 -0.3341 -0.1462 -0.0591
 7914TIP3    H145157   0.217   1.076   4.555 -1.2421  1.8446  1.8254
 7914TIP3    H245158   0.206   0.966   4.658 -0.9970  0.9842  0.9463
 7915TIP3   OH245159   5.453   1.813   2.066 -0.6764 -0.6214 -0.2176
 7915TIP3    H145160   5.425   1.891   2.018 -1.0259 -0.8203 -0.3435
 7915TIP3    H245161   5.534   1.839   2.108 -0.9577 -0.0827  0.0075
 7916TIP3   OH245162   2.927   3.298  12.968 -0.8816 -0.1654 -0.4791
 7916TIP3    H145163   2.873   3.223  12.992  0.4425 -1.0922 -0.2828
 7916TIP3    H245164   2.918   3.358  13.043  0.6464 -1.6161  0.9543
 7917TIP3   OH245165   4.432   6.285   3.190 -0.1806  0.2307 -1.0574
 7917TIP3    H145166   4.447   6.191   3.187 -0.1856  0.2048 -0.3693
 7917TIP3    H245167   4.345   6.295   3.229  0.2032  0.5393 -0.2452
 7918TIP3   OH245168   2.870   0.546  11.750 -0.0912  0.8416 -0.4643
 7918TIP3    H145169   2.927   0.477  11.783 -0.3851 -0.1852 -2.0183
 7918TIP3    H245170   2.830   0.509  11.672 -1.6381  2.1310 -0.3368
 7919TIP3   OH245171   1.719   5.634  11.359 -0.8376  0.7768  0.6878
 7919TIP3    H145172   1.801   5.684  11.353  1.4687 -2.7535 -1.3735
 7919TIP3    H245173   1.685   5.633  11.269 -0.8908 -1.0052  0.6819
 7920TIP3   OH245174   3.813   1.143   0.269 -0.2165 -0.4269  0.2379
 7920TIP3    H145175   3.783   1.224   0.309 -0.6542 -0.2571 -0.4367
 7920TIP3    H245176   3.870   1.104   0.336 -0.6119  0.0517  0.8664
 7921TIP3   OH245177   1.778   4.007  15.658  0.0934 -0.1103 -0.0256
 7921TIP3    H145178   1.820   4.053  15.586  0.4537  1.9222  1.4120
 7921TIP3    H245179   1.830   3.927  15.670  0.4391 -0.1280 -1.5416
 7922TIP3   OH245180   2.914   0.896   4.847 -0.5795  0.3157 -0.0519
 7922TIP3    H145181   2.860   0.959   4.800 -1.3104 -1.8142 -2.3055
 7922TIP3    H245182   2.851   0.833   4.883  0.1999  0.0669  0.9167
 7923TIP3   OH245183   5.655   3.256  14.914 -0.0565  0.0296 -0.1965
 7923TIP3    H145184   5.740   3.224  14.883  0.3860 -1.1844  2.0879
 7923TIP3    H245185   5.597   3.180  14.909 -1.2228  0.9654 -2.1905
 7924TIP3   OH245186   4.972   4.466   1.866 -0.4708  0.2489  0.7045
 7924TIP3    H145187   4.979   4.541   1.926 -2.1762  1.5692 -0.6481
 7924TIP3    H245188   5.021   4.492   1.789 -0.2035 -0.4802  0.6245
 7925TIP3   OH245189   6.136   0.154  11.808  0.2195  0.2703 -0.1401
 7925TIP3    H145190   6.223   0.124  11.836  0.2757  0.7185  0.1934
 7925TIP3    H245191   6.076   0.088  11.841  0.4402 -0.0586 -0.3979
 7926TIP3   OH245192   1.432   0.379   0.657 -0.2202  0.1647 -0.1926
 7926TIP3    H145193   1.352   0.430   0.670  0.5865  1.2149  0.8267
 7926TIP3    H245194   1.410   0.291   0.689 -1.1269  0.2942 -0.4375
 7927TIP3   OH245195   2.961   5.027  11.836  0.0860  0.3384 -0.3602
 7927TIP3    H145196   3.044   4.985  11.861  0.1509  0.2951 -0.6449
 7927TIP3    H245197   2.953   5.009  11.742  1.3722  3.0639 -1.0985
 7928TIP3   OH245198   2.856   6.702  16.757  0.1277 -0.4895 -0.1952
 7928TIP3    H145199   2.945   6.695  16.722  0.5087  3.0815 -0.3226
 7928TIP3    H245200   2.868   6.714  16.851 -0.2779 -0.7491 -0.1098
 7929TIP3   OH245201   1.793   5.930  11.982 -0.1368  0.1284 -0.2877
 7929TIP3    H145202   1.784   5.949  11.888  1.3039  0.4817 -0.3773
 7929TIP3    H245203   1.882   5.959  12.004 -1.2705  2.4033  1.7709
 7930TIP3   OH245204   5.755   4.945  14.350 -0.3483  0.2003 -0.1796
 7930TIP3    H145205   5.768   5.034  14.319  0.9081  0.6141  1.3639
 7930TIP3    H245206   5.809   4.939  14.429  2.0617 -2.7953 -1.8140
 7931TIP3   OH245207   6.240   6.698   5.513 -0.5566 -0.2855 -0.2651
 7931TIP3    H145208   6.293   6.670   5.587 -0.6360 -2.1612 -0.8433
 7931TIP3    H245209   6.278   6.651   5.438 -2.2309 -0.7082 -0.9006
 7932TIP3   OH245210   2.079   0.182  15.630 -0.1948 -0.1012 -0.2442
 7932TIP3    H145211   2.102   0.209  15.541 -0.9395 -0.5560 -0.5776
 7932TIP3    H245212   2.114   0.093  15.638  2.4227  0.9036  0.9155
 7933TIP3   OH245213   3.884   6.215   1.072 -0.1576  0.3132 -0.3140
 7933TIP3    H145214   3.870   6.142   1.012  0.4097 -0.7242  0.7703
 7933TIP3    H245215   3.806   6.269   1.063 -0.6952 -0.5435 -0.9574
 7934TIP3   OH245216   5.612   0.430  13.434 -0.0809 -0.1102 -0.4139
 7934TIP3    H145217   5.692   0.436  13.486 -0.3795  0.4869 -0.0076
 7934TIP3    H245218   5.604   0.517  13.394 -0.8149  0.0146 -0.0082
 7935TIP3   OH245219   3.000   6.452  14.949 -0.4752  0.0611  0.2267
 7935TIP3    H145220   2.962   6.536  14.924 -1.5261 -0.0339  1.3914
 7935TIP3    H245221   2.948   6.424  15.024  0.1390 -1.4274  0.1267
 7936TIP3   OH245222   3.992   4.991  16.831 -0.7754 -0.0246 -0.0168
 7936TIP3    H145223   3.941   5.052  16.778  1.4603  1.3519 -0.7072
 7936TIP3    H245224   4.067   5.041  16.861  0.8862 -2.2754 -0.1429
 7937TIP3   OH245225   5.402   0.114   6.464 -0.1099 -0.4496  0.0433
 7937TIP3    H145226   5.312   0.089   6.443 -0.0478 -0.4970 -0.1690
 7937TIP3    H245227   5.419   0.073   6.549 -0.3857 -0.2034  0.2173
 7938TIP3   OH245228   2.276   6.411   5.635  0.2214 -0.2294  0.0077
 7938TIP3    H145229   2.247   6.490   5.591  1.7386 -0.7784 -2.1352
 7938TIP3    H245230   2.241   6.339   5.582  0.1731 -0.9738  1.0160
 7939TIP3   OH245231   5.355   4.637  13.721  0.3241  0.7727  0.5488
 7939TIP3    H145232   5.306   4.574  13.668 -0.6464  0.4152  1.8219
 7939TIP3    H245233   5.413   4.681  13.659 -2.7339  2.3938 -1.4007
 7940TIP3   OH245234   0.792   5.400   1.914 -0.7357  0.1856  0.5280
 7940TIP3    H145235   0.843   5.358   1.845  0.1426  0.9293  0.7153
 7940TIP3    H245236   0.856   5.447   1.967 -1.6823  1.8119  0.2975
 7941TIP3   OH245237   0.143   1.923  13.225 -0.4628  0.0629  0.0128
 7941TIP3    H145238   0.109   1.942  13.137  0.7322 -0.9577 -0.7199
 7941TIP3    H245239   0.195   2.000  13.247  0.4635 -0.2865 -0.8546
 7942TIP3   OH245240   6.378   1.236  12.028  0.2453  0.3486  0.2483
 7942TIP3    H145241   6.284   1.220  12.019  0.1917  0.1227  1.1133
 7942TIP3    H245242   6.386   1.331  12.033 -0.1336  0.3287  1.8869
 7943TIP3   OH245243   2.468   6.020   4.335 -0.3476  0.0366 -0.5462
 7943TIP3    H145244   2.416   5.966   4.394  0.7018 -1.2889 -0.7658
 7943TIP3    H245245   2.510   6.085   4.392  0.3949 -1.0197  0.1564
 7944TIP3   OH245246   0.346   3.725   1.698  0.0833 -0.0497  0.0681
 7944TIP3    H145247   0.353   3.780   1.776 -0.6820  0.7542 -0.4212
 7944TIP3    H245248   0.431   3.681   1.693  0.2453  0.0936  1.1904
 7945TIP3   OH245249   5.133   4.821   0.377 -0.2701  0.1488 -0.3295
 7945TIP3    H145250   5.048   4.791   0.344 -0.3479  1.3248 -1.2568
 7945TIP3    H245251   5.112   4.891   0.438 -0.0419 -0.9666  1.0750
 7946TIP3   OH245252   5.294   5.645   4.471 -0.2277  0.4431 -0.0303
 7946TIP3    H145253   5.276   5.718   4.412 -0.2525  0.0965 -0.4600
 7946TIP3    H245254   5.333   5.685   4.549  2.7160  0.6699 -1.4828
 7947TIP3   OH245255   4.862   1.319  15.125 -0.2620 -0.2878 -0.1254
 7947TIP3    H145256   4.936   1.304  15.183 -0.9903 -0.1685  0.8492
 7947TIP3    H245257   4.891   1.283  15.041  0.1972 -1.9446  0.7001
 7948TIP3   OH245258   1.760   5.317  17.242  0.4234  0.1167  0.0750
 7948TIP3    H145259   1.820   5.379  17.199 -3.0291  1.9244 -2.5990
 7948TIP3    H245260   1.816   5.243  17.266  4.0313  2.4263 -0.3873
 7949TIP3   OH245261   4.326   0.227  13.560  0.5863 -0.2431  0.6409
 7949TIP3    H145262   4.349   0.295  13.497  1.2407  0.0781  1.2171
 7949TIP3    H245263   4.362   0.258  13.643  0.4922 -1.0733  1.0001
 7950TIP3   OH245264   3.224   5.360   5.409 -0.0417 -0.3749 -0.5582
 7950TIP3    H145265   3.179   5.444   5.399  0.8771 -0.0281 -2.1828
 7950TIP3    H245266   3.187   5.305   5.340  0.0266 -1.0056 -0.0974
 7951TIP3   OH245267   1.146   6.241   2.208  0.0202  0.0493  0.0467
 7951TIP3    H145268   1.130   6.335   2.217 -0.2075 -0.1685  2.4119
 7951TIP3    H245269   1.237   6.229   2.236  0.2852 -0.3860 -0.9295
 7952TIP3   OH245270   5.471   2.596  15.569 -0.5399 -0.5977 -0.0332
 7952TIP3    H145271   5.543   2.540  15.539 -0.9423 -0.5674 -1.1002
 7952TIP3    H245272   5.497   2.624  15.656  1.7720  1.1110 -1.1461
 7953TIP3   OH245273   6.375   2.754   5.484 -0.3400 -0.4350 -0.6855
 7953TIP3    H145274   6.365   2.824   5.420 -2.8383 -0.7553 -0.7330
 7953TIP3    H245275   6.390   2.800   5.567 -0.8236  0.1175 -0.8956
 7954TIP3   OH245276   2.662   4.478   4.281 -0.0039  0.5105  0.0421
 7954TIP3    H145277   2.585   4.425   4.304  1.0051 -0.8188  0.4870
 7954TIP3    H245278   2.631   4.568   4.283 -1.8434 -0.0522 -0.9419
 7955TIP3   OH245279   6.373   0.882  11.036 -0.2757 -0.1897  0.0881
 7955TIP3    H145280   6.411   0.809  11.085 -0.1100  0.3757  0.8388
 7955TIP3    H245281   6.278   0.867  11.038 -0.1400 -1.5951 -1.7723
 7956TIP3   OH245282   0.798   5.449  10.834  0.2353  0.0293 -0.2997
 7956TIP3    H145283   0.713   5.420  10.801 -1.1597  4.3808 -1.0763
 7956TIP3    H245284   0.850   5.465  10.756  0.6669  0.3033  0.0417
 7957TIP3   OH245285   3.630   2.718   4.986 -0.1517 -0.1728 -0.2266
 7957TIP3    H145286   3.628   2.630   5.024  0.1653  0.0198  0.2486
 7957TIP3    H245287   3.541   2.733   4.955 -0.7279  0.0925  1.4617
 7958TIP3   OH245288   5.939   3.329   2.651 -0.3419 -0.1657 -0.0487
 7958TIP3    H145289   5.991   3.248   2.650  0.4858  0.3561 -1.4051
 7958TIP3    H245290   5.886   3.324   2.571 -0.3790  0.5722 -0.0719
 7959TIP3   OH245291   0.419   2.884   4.577  0.2189  0.0916  0.3573
 7959TIP3    H145292   0.439   2.911   4.667  0.9384  1.5124 -0.2020
 7959TIP3    H245293   0.422   2.965   4.526 -0.0473 -0.7084 -0.9846
 7960TIP3   OH245294   0.316   0.022   1.582 -0.7638  0.4849  0.4647
 7960TIP3    H145295   0.344   0.112   1.592  0.5059  0.0754  0.7665
 7960TIP3    H245296   0.283  -0.004   1.668  0.3692  0.1921  0.8350
 7961TIP3   OH245297   3.042   5.666  13.027  0.6510 -0.2164  0.3609
 7961TIP3    H145298   2.977   5.722  12.984  0.9590 -1.1648 -1.4203
 7961TIP3    H245299   3.104   5.728  13.066 -1.3154  0.7093  2.2075
 7962TIP3   OH245300   5.241   4.907   5.401  0.5788 -0.7277  0.1869
 7962TIP3    H145301   5.265   4.931   5.490 -0.8726 -1.1511  0.7155
 7962TIP3    H245302   5.188   4.828   5.410 -0.7394 -0.0125 -0.9240
 7963TIP3   OH245303   5.410   5.825   4.667  0.0174 -0.4290 -0.5156
 7963TIP3    H145304   5.499   5.809   4.700 -0.2078  0.6169  0.6943
 7963TIP3    H245305   5.413   5.914   4.632 -0.8998  0.2087  0.9261
 7964TIP3   OH245306   5.265   1.380  16.128 -0.3650 -0.2709 -0.6444
 7964TIP3    H145307   5.293   1.467  16.155  1.2823 -0.4236 -1.6683
 7964TIP3    H245308   5.234   1.391  16.039  2.1937 -1.0275 -1.7472
 7965TIP3   OH245309   1.045   0.834  14.007 -0.1965  0.1911 -0.0975
 7965TIP3    H145310   1.084   0.763  14.058 -0.4485  0.6309  0.7282
 7965TIP3    H245311   1.119   0.880  13.968  0.0237  0.1468  0.2719
 7966TIP3   OH245312   6.036   3.596  15.297  0.1725  0.0752  0.0619
 7966TIP3    H145313   5.959   3.646  15.269 -0.8208 -0.2669  1.9776
 7966TIP3    H245314   6.054   3.628  15.385  2.9037  0.8507 -0.6784
 7967TIP3   OH245315   5.428   0.344  12.293 -0.2048  0.2184  0.1929
 7967TIP3    H145316   5.501   0.369  12.237 -0.1642  2.1949  1.0496
 7967TIP3    H245317   5.450   0.382  12.378 -2.8022  2.0144  0.1633
 7968TIP3   OH245318   6.730   5.207   0.328  0.5708 -0.3261  0.2876
 7968TIP3    H145319   6.661   5.171   0.383  0.9475 -0.3574  0.7537
 7968TIP3    H245320   6.783   5.132   0.302  1.1156 -0.1738  0.9198
 7969TIP3   OH245321   6.143   6.533  16.076 -0.1135  0.2118  0.1108
 7969TIP3    H145322   6.088   6.562  16.149  1.6593  0.4899  1.3920
 7969TIP3    H245323   6.147   6.438  16.086 -1.0207  0.0834 -0.5221
 7970TIP3   OH245324   2.530   4.976  13.329 -0.8601 -0.5019 -0.5748
 7970TIP3    H145325   2.561   5.047  13.385 -2.6099 -0.0617 -0.1104
 7970TIP3    H245326   2.546   5.007  13.240 -1.5036  0.4562 -0.3762
 7971TIP3   OH245327   0.565   1.875   0.718  0.2196 -0.3619  0.4124
 7971TIP3    H145328   0.507   1.935   0.672  0.2421 -0.1771  0.6218
 7971TIP3    H245329   0.550   1.894   0.811  0.1897 -0.7151  0.4794
 7972TIP3   OH245330   1.527   2.710   0.311  0.1012 -0.2429  0.4773
 7972TIP3    H145331   1.530   2.798   0.275  1.5031 -0.3844  0.2043
 7972TIP3    H245332   1.605   2.704   0.366 -0.7196 -0.8474  1.6189
 7973TIP3   OH245333   6.040   0.954  16.513  0.9239  0.4726  0.3437
 7973TIP3    H145334   6.073   0.917  16.596 -0.1371 -1.6013 -0.0987
 7973TIP3    H245335   6.074   0.895  16.446 -1.9813 -0.6644 -0.2808
 7974TIP3   OH245336   6.757   1.213   2.056 -0.1537  0.8329 -0.7821
 7974TIP3    H145337   6.676   1.183   2.097  1.5333 -1.7164  1.0129
 7974TIP3    H245338   6.736   1.220   1.963 -2.3631  0.0582 -0.3969
 7975TIP3   OH245339   3.425   1.588  14.854  0.3077  0.0169 -0.7169
 7975TIP3    H145340   3.436   1.678  14.884  1.2867 -0.2990 -0.0922
 7975TIP3    H245341   3.417   1.595  14.758 -2.3566  0.9903 -0.5130
 7976TIP3   OH245342   4.147   2.891   3.877 -0.1062  0.2744  0.6835
 7976TIP3    H145343   4.126   2.894   3.784  0.1120 -1.4585  0.5426
 7976TIP3    H245344   4.220   2.953   3.887 -0.7496  1.1793 -0.1018
 7977TIP3   OH245345   5.548   0.569   2.312  0.4062  0.4979 -0.2256
 7977TIP3    H145346   5.555   0.530   2.400  2.8184 -0.6182 -0.8374
 7977TIP3    H245347   5.454   0.575   2.296 -0.0853  0.1583  2.1844
 7978TIP3   OH245348   5.825   2.634   6.614 -0.0690 -0.5139  0.0537
 7978TIP3    H145349   5.826   2.601   6.524  1.4182 -0.2726 -0.0297
 7978TIP3    H245350   5.867   2.720   6.609 -0.8147 -0.0790  0.8393
 7979TIP3   OH245351   6.270   6.276   4.257 -0.2069 -0.1206  0.2831
 7979TIP3    H145352   6.233   6.248   4.341  0.0689  1.1540  0.8485
 7979TIP3    H245353   6.276   6.371   4.264  0.9976 -0.1034 -0.6976
 7980TIP3   OH245354   5.468   6.197   1.898  0.0886  0.6463 -0.1531
 7980TIP3    H145355   5.409   6.259   1.856 -2.0969 -0.2144  1.4119
 7980TIP3    H245356   5.471   6.225   1.990 -0.2897 -1.0194  0.4049
 7981TIP3   OH245357   3.860   1.098   0.777  0.1430  0.2288  0.5111
 7981TIP3    H145358   3.938   1.110   0.723 -0.1856  2.4997  0.4764
 7981TIP3    H245359   3.876   1.016   0.824  1.9565 -0.0173 -0.4481
 7982TIP3   OH245360   4.631   2.057  15.944 -0.0225 -0.1473 -0.4189
 7982TIP3    H145361   4.538   2.072  15.955  0.3642  2.2243  0.2205
 7982TIP3    H245362   4.645   2.054  15.849 -0.6704  0.0563 -0.5219
 7983TIP3   OH245363   4.014   6.425   4.601 -0.2365  0.7780 -0.0559
 7983TIP3    H145364   3.933   6.465   4.633 -0.0812  0.8767  0.2258
 7983TIP3    H245365   4.059   6.496   4.556 -1.7215 -0.0169 -3.0142
 7984TIP3   OH245366   5.840   1.144  12.913  0.3529  0.4145 -0.2879
 7984TIP3    H145367   5.925   1.165  12.953  0.4119  2.0339 -1.1672
 7984TIP3    H245368   5.855   1.156  12.819 -0.6649 -0.0550 -0.5207
 7985TIP3   OH245369   0.287   0.712  12.873  0.0464 -0.1444 -0.6684
 7985TIP3    H145370   0.354   0.738  12.810  0.0991  0.2819 -0.4350
 7985TIP3    H245371   0.271   0.620  12.854  1.2121 -0.4480 -0.2564
 7986TIP3   OH245372   3.974   6.227  16.783 -0.9143  0.5102  0.3365
 7986TIP3    H145373   3.926   6.149  16.811  2.8511 -2.6781 -1.1613
 7986TIP3    H245374   4.047   6.234  16.845  0.4546  0.9803 -1.2409
 7987TIP3   OH245375   5.670   0.408  12.821 -0.7751 -0.5582 -1.0399
 7987TIP3    H145376   5.728   0.376  12.752  1.9651  0.4870  0.6050
 7987TIP3    H245377   5.675   0.503  12.815  1.0443 -0.3748  1.6066
 7988TIP3   OH245378   0.467   2.779   5.104  0.0956 -0.0835 -0.2458
 7988TIP3    H145379   0.381   2.754   5.138  1.2173 -1.7573  1.6047
 7988TIP3    H245380   0.481   2.868   5.136 -0.4475 -0.2589  0.5051
 7989TIP3   OH245381   3.582   5.707   3.401 -0.0791  0.0743  0.0255
 7989TIP3    H145382   3.614   5.697   3.312 -0.7199  0.1411 -0.2206
 7989TIP3    H245383   3.634   5.645   3.453  0.2214 -0.0413 -0.4100
 7990TIP3   OH245384   3.965   6.456   1.327 -0.0107 -0.0500 -0.2546
 7990TIP3    H145385   4.015   6.374   1.328 -0.3513 -0.2554  0.2455
 7990TIP3    H245386   3.896   6.440   1.261  0.5765  0.2382 -0.9498
 7991TIP3   OH245387   1.960   3.827  14.337 -0.2315 -0.5301  0.5259
 7991TIP3    H145388   1.893   3.802  14.400  0.3122  0.3748  1.4841
 7991TIP3    H245389   1.932   3.911  14.302 -0.6528 -1.1305 -0.6532
 7992TIP3   OH245390   0.375   2.060   1.780  0.1592 -0.3354  0.5995
 7992TIP3    H145391   0.309   2.094   1.718  2.0852  1.0657 -0.8264
 7992TIP3    H245392   0.408   2.138   1.824  3.0201 -0.5073 -1.0068
 7993TIP3   OH245393   5.261   2.854  15.543  0.5353 -0.1474 -0.8028
 7993TIP3    H145394   5.203   2.781  15.566 -0.1055  1.0170  1.5898
 7993TIP3    H245395   5.350   2.819  15.554  0.2552 -0.8172 -0.6404
 7994TIP3   OH245396   2.474   5.354  15.853 -0.1022 -0.0350  0.9850
 7994TIP3    H145397   2.523   5.305  15.787 -1.6761  0.4187 -0.6312
 7994TIP3    H245398   2.538   5.377  15.919  2.0921  1.2728 -1.4061
 7995TIP3   OH245399   4.187   6.367  15.599  0.1120 -0.2931 -0.0767
 7995TIP3    H145400   4.123   6.304  15.635 -1.5603 -0.4081 -2.9370
 7995TIP3    H245401   4.209   6.332  15.513  0.1718  2.3317 -1.2182
 7996TIP3   OH245402   2.294   3.529   3.750  0.3556 -1.2333 -0.1905
 7996TIP3    H145403   2.343   3.594   3.800 -0.1255 -0.8635 -0.1969
 7996TIP3    H245404   2.202   3.547   3.770  0.0743 -0.3728 -2.0527
 7997TIP3   OH245405   5.554   2.862  12.603 -0.2399 -0.5198 -0.0461
 7997TIP3    H145406   5.575   2.954  12.590 -0.0629 -0.3720  1.1086
 7997TIP3    H245407   5.487   2.842  12.538 -1.5852  0.9145  0.8492
 7998TIP3   OH245408   3.555   0.046   0.032 -0.0707 -0.3407  0.0173
 7998TIP3    H145409   3.538   0.140   0.036  0.9221 -0.0658 -1.3517
 7998TIP3    H245410   3.649   0.038   0.050 -0.3417 -1.1997  1.2085
 7999TIP3   OH245411   3.993   4.679  15.859 -0.1588 -0.3019  0.0314
 7999TIP3    H145412   3.939   4.658  15.783  1.1624  0.5883 -1.2219
 7999TIP3    H245413   3.971   4.770  15.879  0.2208 -0.2175  0.0678
 8000TIP3   OH245414   4.500   4.239   1.764 -0.2856  0.0694 -0.1127
 8000TIP3    H145415   4.595   4.247   1.759  0.0514 -2.7599  0.2392
 8000TIP3    H245416   4.476   4.189   1.685 -1.5777  1.2714 -0.5182
 8001TIP3   OH245417   6.107   4.586   1.298  0.0180 -0.8724  0.3556
 8001TIP3    H145418   6.150   4.592   1.384 -0.0976 -0.8338  0.4113
 8001TIP3    H245419   6.103   4.677   1.267  0.5525 -0.9417  0.0627
 8002TIP3   OH245420   6.360   5.305  11.590  0.3651 -0.7322 -0.0444
 8002TIP3    H145421   6.322   5.218  11.581 -1.7106  0.2001 -0.7776
 8002TIP3    H245422   6.411   5.318  11.510 -1.9942 -0.0784 -1.5401
 8003TIP3   OH245423   0.527   4.071  12.156  0.3650  0.2026 -0.3849
 8003TIP3    H145424   0.500   4.070  12.064  1.4536  0.3470 -0.7150
 8003TIP3    H245425   0.548   4.163  12.173 -1.5767  0.5301  0.5578
 8004TIP3   OH245426   4.439   1.753  12.304  0.1181 -0.6013  0.0302
 8004TIP3    H145427   4.487   1.670  12.304 -0.7377 -1.1190 -0.7944
 8004TIP3    H245428   4.353   1.731  12.269 -0.0478  0.6839 -0.4276
 8005TIP3   OH245429   1.022   2.509   1.196  0.6377  0.2413 -0.2193
 8005TIP3    H145430   1.095   2.481   1.251  0.3073 -0.9441 -0.3470
 8005TIP3    H245431   1.013   2.439   1.131 -1.4596 -0.3265  0.6131
 8006TIP3   OH245432   5.094   2.598   0.978 -0.3254  0.5258  0.3539
 8006TIP3    H145433   5.067   2.558   1.061  0.1829 -0.5021  0.0418
 8006TIP3    H245434   5.106   2.524   0.919  1.9508  1.0015  0.1166
 8007TIP3   OH245435   3.093   4.792   1.956  0.1355 -0.3786 -0.0518
 8007TIP3    H145436   3.005   4.772   1.926  0.0602  0.8223 -0.6634
 8007TIP3    H245437   3.118   4.716   2.010 -0.8257 -1.2352 -0.7870
 8008TIP3   OH245438   6.346   1.992   4.619 -0.2054 -0.5641  0.3081
 8008TIP3    H145439   6.299   2.054   4.675  0.8751  0.4557  0.1054
 8008TIP3    H245440   6.359   2.039   4.537  2.4919 -0.2275  0.8572
 8009TIP3   OH245441   2.303   4.906  16.190  0.0145  0.3245 -0.2738
 8009TIP3    H145442   2.341   4.930  16.274  0.3558 -1.0296 -0.0197
 8009TIP3    H245443   2.328   4.977  16.131  2.5094 -0.2144  0.0162
 8010TIP3   OH245444   6.107   3.762  15.051  0.1404 -0.0058 -0.2905
 8010TIP3    H145445   6.021   3.731  15.022  0.4145 -1.4999  0.4288
 8010TIP3    H245446   6.161   3.683  15.055  1.0771  0.6640  0.9047
 8011TIP3   OH245447   2.654   3.712   4.363  0.0464 -0.4001 -0.2626
 8011TIP3    H145448   2.589   3.665   4.415  2.3059 -0.7071  2.4709
 8011TIP3    H245449   2.695   3.644   4.309 -0.5263 -0.5461 -0.5186
 8012TIP3   OH245450   2.280   5.173  15.808 -0.4928 -0.2507 -0.4453
 8012TIP3    H145451   2.350   5.235  15.829 -0.2740 -0.8746  0.7835
 8012TIP3    H245452   2.292   5.101  15.871 -3.7781  0.8211  1.6707
 8013TIP3   OH245453   1.402   4.153  13.708 -0.3948 -0.2361  0.0707
 8013TIP3    H145454   1.427   4.073  13.756  0.6439  0.3647  0.5611
 8013TIP3    H245455   1.307   4.145  13.696 -0.4326 -1.1529  0.8451
 8014TIP3   OH245456   0.587   0.854   2.475 -0.3854 -0.6851 -0.3099
 8014TIP3    H145457   0.574   0.881   2.566  0.1093 -0.1379 -0.3870
 8014TIP3    H245458   0.504   0.874   2.431 -0.2041  0.2644 -0.2464
 8015TIP3   OH245459   1.722   0.053   3.424 -0.0277  0.1265  0.3020
 8015TIP3    H145460   1.673   0.136   3.425  0.5397  0.5111 -1.3350
 8015TIP3    H245461   1.802   0.073   3.376 -0.7800 -1.8652 -1.9546
 8016TIP3   OH245462   1.465   5.836  14.978  0.4471  0.0916 -0.2392
 8016TIP3    H145463   1.489   5.809  14.889  1.3033 -1.1407  0.3380
 8016TIP3    H245464   1.396   5.902  14.965  0.0437 -0.5838 -1.7970
 8017TIP3   OH245465   6.351   0.973   2.847 -0.2884  0.7199  0.0062
 8017TIP3    H145466   6.378   0.889   2.812  1.0930  0.0322  2.4622
 8017TIP3    H245467   6.273   0.953   2.900 -0.2029  1.0419  0.2583
 8018TIP3   OH245468   0.367   0.189   3.928  0.5600 -0.1715 -0.5108
 8018TIP3    H145469   0.447   0.240   3.939  1.0386 -0.8417 -0.8431
 8018TIP3    H245470   0.396   0.107   3.888 -0.1696 -0.7823  0.1760
 8019TIP3   OH245471   5.744   6.463   1.320  0.3728  0.8360  0.7924
 8019TIP3    H145472   5.839   6.463   1.333  0.5472  0.6430 -0.3703
 8019TIP3    H245473   5.715   6.548   1.352  0.6505  0.1886  2.9338
 8020TIP3   OH245474   0.553   0.107  15.755 -0.4333  0.3099 -0.5519
 8020TIP3    H145475   0.599   0.132  15.835  0.6025  0.0293 -1.0416
 8020TIP3    H245476   0.493   0.180  15.738  1.2257  1.6316 -0.9537
 8021TIP3   OH245477   4.918   3.255  16.585 -0.9923  0.4855  0.1553
 8021TIP3    H145478   4.889   3.336  16.541 -0.9966  0.6944  0.5406
 8021TIP3    H245479   4.940   3.283  16.674  0.7750  0.4168 -0.2206
 8022TIP3   OH245480   6.713   3.889   0.124 -0.5216 -0.3907  0.0380
 8022TIP3    H145481   6.750   3.822   0.068  0.2923  0.0560  0.0206
 8022TIP3    H245482   6.625   3.858   0.145 -0.8746 -0.5260 -1.5466
 8023TIP3   OH245483   5.940   1.300   0.080 -0.5535 -0.1762  0.3897
 8023TIP3    H145484   5.954   1.292   0.174 -1.3882 -2.1176  0.3957
 8023TIP3    H245485   5.874   1.234   0.059 -0.7478  0.5347 -1.4915
 8024TIP3   OH245486   4.877   5.487  13.216 -1.1691  0.3004  0.7605
 8024TIP3    H145487   4.926   5.426  13.271  0.2372  0.5297 -0.1854
 8024TIP3    H245488   4.865   5.564  13.270 -2.3600 -0.5185  1.7291
 8025TIP3   OH245489   2.559   0.191   5.974  0.9015 -0.4211 -1.1341
 8025TIP3    H145490   2.473   0.167   5.939  0.0117 -1.3438  1.4686
 8025TIP3    H245491   2.621   0.138   5.924 -0.1931 -1.0522 -1.8650
 8026TIP3   OH245492   0.325   6.136   1.810  0.2246 -0.2684 -0.2507
 8026TIP3    H145493   0.268   6.155   1.735 -0.4255 -3.3590 -0.6587
 8026TIP3    H245494   0.411   6.117   1.771  0.0709 -1.1442 -0.1895
 8027TIP3   OH245495   4.573   4.096  14.045  0.4193 -0.0090 -0.4749
 8027TIP3    H145496   4.514   4.144  14.103  1.9159  0.5102  0.6720
 8027TIP3    H245497   4.628   4.044  14.105  0.7299 -0.9495 -1.5430
 8028TIP3   OH245498   5.044   3.719   2.528 -0.2044 -0.4002 -0.1562
 8028TIP3    H145499   5.102   3.652   2.490 -0.2256 -1.0317  0.8908
 8028TIP3    H245500   5.096   3.799   2.526  0.5641 -0.8722  0.3949
 8029TIP3   OH245501   3.090   5.984   4.322 -0.3227 -0.5361 -0.3349
 8029TIP3    H145502   3.027   5.940   4.263  0.3012 -1.7753 -0.1073
 8029TIP3    H245503   3.132   5.913   4.370 -1.0937  0.4544  1.9432
 8030TIP3   OH245504   1.684   4.643  16.140  0.2521  0.0931  0.3736
 8030TIP3    H145505   1.741   4.649  16.064 -0.2451  0.7757  0.0398
 8030TIP3    H245506   1.654   4.552  16.141  0.0729  0.1337 -0.3962
 8031TIP3   OH245507   6.732   5.645   3.899  0.3696  0.6101  0.1482
 8031TIP3    H145508   6.713   5.627   3.807  0.2907  0.6124  0.1633
 8031TIP3    H245509   6.652   5.621   3.945  0.8112 -0.5037  0.3519
 8032TIP3   OH245510   1.301   5.054   5.670 -0.6530  0.6117 -0.3762
 8032TIP3    H145511   1.368   5.088   5.730 -0.4997  0.9301 -0.7255
 8032TIP3    H245512   1.350   5.022   5.595 -0.8057 -0.3194 -0.0852
 8033TIP3   OH245513   5.715   5.784  16.633 -0.2038 -0.5294  0.5196
 8033TIP3    H145514   5.733   5.770  16.540 -1.8377 -0.4575  0.1666
 8033TIP3    H245515   5.757   5.710  16.677  2.7599  0.7212  0.0453
 8034TIP3   OH245516   6.302   5.531   0.514  0.7337  0.1969  0.0083
 8034TIP3    H145517   6.232   5.538   0.449 -0.4881 -3.3325  0.7092
 8034TIP3    H245518   6.265   5.568   0.594 -0.0812 -0.9626  0.1802
 8035TIP3   OH245519   4.792   2.511   5.182  0.6881  0.4786  0.5757
 8035TIP3    H145520   4.807   2.514   5.087 -0.3847 -0.5730  0.3397
 8035TIP3    H245521   4.783   2.602   5.208  2.9085  0.9164  0.0166
 8036TIP3   OH245522   5.951   2.140  14.461  0.1376  0.5161 -0.0385
 8036TIP3    H145523   5.942   2.230  14.492 -2.0096  0.3370  0.0329
 8036TIP3    H245524   5.862   2.114  14.438  0.7726 -1.4537 -0.4566
 8037TIP3   OH245525   4.049   5.462  13.563  0.0618  0.0232 -0.1072
 8037TIP3    H145526   4.100   5.531  13.522 -1.0798  0.2987 -1.1071
 8037TIP3    H245527   4.101   5.383  13.550  1.1253  0.5791  0.5845
 8038TIP3   OH245528   3.448   6.295   1.826  0.4788  0.8257  0.0336
 8038TIP3    H145529   3.394   6.338   1.891 -1.2198 -2.1256  0.7707
 8038TIP3    H245530   3.386   6.264   1.760  1.7900  0.9853 -1.3203
 8039TIP3   OH245531   0.479   5.764  12.692 -0.0972  0.1422 -0.1169
 8039TIP3    H145532   0.555   5.813  12.661  1.3095 -2.0498 -0.3161
 8039TIP3    H245533   0.404   5.815  12.661  1.1717  3.3569  1.6442
 8040TIP3   OH245534   3.927   1.281  14.040 -0.5785 -0.2976 -0.2481
 8040TIP3    H145535   3.892   1.303  14.126 -2.3948 -1.3367 -0.6835
 8040TIP3    H245536   3.867   1.216  14.004  0.4923 -0.3849 -2.0530
 8041TIP3   OH245537   0.561   4.017  11.133 -0.2762 -0.1436  0.2145
 8041TIP3    H145538   0.471   4.043  11.114 -0.2792 -0.3616 -0.0682
 8041TIP3    H245539   0.602   4.008  11.047 -0.1764 -0.7316  0.3201
 8042TIP3   OH245540   0.049   2.086  16.968  0.4187 -0.2248  0.6261
 8042TIP3    H145541   0.097   2.115  17.046 -0.3383  1.5537  0.4927
 8042TIP3    H245542   0.061   1.991  16.966  0.2208 -0.3781  3.0841
 8043TIP3   OH245543   0.007   3.356   1.588 -0.1802  0.5378  0.1304
 8043TIP3    H145544  -0.007   3.342   1.495 -1.6973  0.8753  0.2843
 8043TIP3    H245545   0.084   3.413   1.592  0.8373 -0.7095 -0.8235
 8044TIP3   OH245546   6.742   0.939   5.408 -0.4400 -0.4860  0.2761
 8044TIP3    H145547   6.722   1.032   5.395  1.5300 -0.0030  0.3419
 8044TIP3    H245548   6.657   0.896   5.410 -1.3819  1.2633 -0.1653
 8045TIP3   OH245549   6.194   5.656   1.121  0.1772  0.0750  0.1894
 8045TIP3    H145550   6.221   5.747   1.108 -1.2657  0.3651 -1.1537
 8045TIP3    H245551   6.270   5.604   1.095  0.3371  0.8784 -1.0342
 8046TIP3   OH245552   1.662   6.189   5.566 -0.1549  0.0418 -0.0708
 8046TIP3    H145553   1.676   6.271   5.519 -1.3085 -0.5466 -1.5299
 8046TIP3    H245554   1.583   6.203   5.618 -0.6454 -0.2710 -0.7089
 8047TIP3   OH245555   2.548   4.681  15.887  0.0611  0.1949  0.3102
 8047TIP3    H145556   2.544   4.655  15.979 -1.7711  1.0607  0.5442
 8047TIP3    H245557   2.555   4.777  15.890  1.0947  0.1558 -0.4651
 8048TIP3   OH245558   4.120   1.105   2.284  0.3800 -0.2738 -0.0073
 8048TIP3    H145559   4.082   1.153   2.358 -0.1656  0.9479 -1.0555
 8048TIP3    H245560   4.197   1.061   2.322  1.5223  2.2511  0.8146
 8049TIP3   OH245561   6.504   3.969   2.728 -0.0308 -0.3040  0.0138
 8049TIP3    H145562   6.446   3.916   2.783 -0.9805 -0.3574 -1.0047
 8049TIP3    H245563   6.511   3.921   2.646  0.3688  0.3791 -0.3643
 8050TIP3   OH245564   6.048   4.923  11.534  0.2531  0.3300  0.0313
 8050TIP3    H145565   5.986   4.930  11.606 -0.0586 -0.5114 -0.1309
 8050TIP3    H245566   6.113   4.991  11.550  0.1950  0.1517  1.1091
 8051TIP3   OH245567   2.323   6.146   0.315 -0.4296 -0.3396 -0.1694
 8051TIP3    H145568   2.381   6.218   0.339 -0.7184 -0.3304  0.5327
 8051TIP3    H245569   2.235   6.184   0.317 -0.6906 -0.9370  1.2525
 8052TIP3   OH245570   6.205   5.759  12.916 -0.0863 -0.1685  0.5999
 8052TIP3    H145571   6.270   5.825  12.891 -0.5365 -0.4312 -1.3635
 8052TIP3    H245572   6.254   5.677  12.917 -0.4335 -0.4316 -1.3011
 8053TIP3   OH245573   1.047   1.350  14.875  0.0553 -0.3868 -0.0999
 8053TIP3    H145574   1.114   1.293  14.915  1.7388  0.9970 -0.8115
 8053TIP3    H245575   1.021   1.409  14.946  0.9517  0.2344 -0.2669
 8054TIP3   OH245576   0.248   5.084  16.713 -0.7070  0.4615  0.2975
 8054TIP3    H145577   0.310   5.092  16.640 -1.0336 -0.8800 -0.1701
 8054TIP3    H245578   0.237   5.173  16.745  0.7487  0.8565 -0.2042
 8055TIP3   OH245579   2.006   0.827  15.317 -0.2920  0.2038  0.0239
 8055TIP3    H145580   2.017   0.889  15.389  2.1724 -1.3445  1.0907
 8055TIP3    H245581   2.032   0.876  15.239 -1.8015  1.5190  0.2978
 8056TIP3   OH245582   6.320   5.024  11.552  0.2875  0.1934  0.1569
 8056TIP3    H145583   6.304   4.955  11.616  1.6113  0.3180  0.6443
 8056TIP3    H245584   6.359   4.979  11.477 -0.0810  0.2291 -0.0578
 8057TIP3   OH245585   5.917   2.482  11.505 -0.0253  0.3272  0.2613
 8057TIP3    H145586   5.858   2.544  11.545 -0.8422 -0.3083  0.0753
 8057TIP3    H245587   5.997   2.487  11.557 -0.7176  0.2142  1.3727
 8058TIP3   OH245588   2.455   3.428  10.384  0.0726  0.1119  0.1755
 8058TIP3    H145589   2.518   3.498  10.369  0.3964  0.6728  3.4232
 8058TIP3    H245590   2.501   3.364  10.437 -1.4441 -0.5384  0.7838
 8059TIP3   OH245591   0.231   2.732   4.431  0.0318 -0.5367  0.8260
 8059TIP3    H145592   0.269   2.789   4.498 -0.6927  0.8492  0.1045
 8059TIP3    H245593   0.142   2.716   4.461 -0.8392  1.3831 -0.4773
 8060TIP3   OH245594   1.593   6.053  13.053 -0.2258  0.0464 -0.3121
 8060TIP3    H145595   1.577   6.128  13.110  2.1782  0.4983 -0.1481
 8060TIP3    H245596   1.652   5.996  13.104  0.7857 -0.2451 -1.7608
 8061TIP3   OH245597   5.224   2.871   3.157  0.3566 -0.2826 -0.1792
 8061TIP3    H145598   5.188   2.955   3.130  1.4267 -0.0544 -0.9375
 8061TIP3    H245599   5.303   2.860   3.104  1.4970 -0.6947  1.5208
 8062TIP3   OH245600   3.402   4.296   0.581  0.1482 -0.1414  0.6631
 8062TIP3    H145601   3.386   4.314   0.489 -1.4613 -1.1554  0.7114
 8062TIP3    H245602   3.396   4.382   0.624 -3.0199 -0.0642  0.3092
 8063TIP3   OH245603   5.328   4.015   4.168 -0.0816  0.0885  0.4481
 8063TIP3    H145604   5.279   3.954   4.223  0.7790 -2.2644 -1.2426
 8063TIP3    H245605   5.278   4.020   4.086  0.4984  0.7213  0.1182
 8064TIP3   OH245606   4.282   0.822  16.112 -0.5413 -0.1018 -0.2190
 8064TIP3    H145607   4.213   0.761  16.086 -0.9219 -0.4524  1.4898
 8064TIP3    H245608   4.236   0.904  16.132 -0.2363  0.2296 -0.8601
 8065TIP3   OH245609   0.030   0.195  12.038 -0.0116  0.4596  0.1052
 8065TIP3    H145610   0.099   0.221  12.098  0.5538 -0.0804 -0.3015
 8065TIP3    H245611  -0.019   0.275  12.020 -0.5387  0.5360  1.7100
 8066TIP3   OH245612   2.476   5.074  14.456 -0.0949  0.4066 -0.0287
 8066TIP3    H145613   2.565   5.048  14.434  0.0821  0.6845  0.3548
 8066TIP3    H245614   2.476   5.083  14.551 -0.4996  0.5285 -0.0375
 8067TIP3   OH245615   2.873   4.518   0.455 -0.3413  0.1650 -0.0600
 8067TIP3    H145616   2.878   4.534   0.361  1.1397  0.0123 -0.0349
 8067TIP3    H245617   2.781   4.534   0.478 -0.8405 -0.3412 -1.6145
 8068TIP3   OH245618   1.460   3.925  16.283 -0.3766 -0.5208  0.0721
 8068TIP3    H145619   1.486   3.934  16.375  0.5011 -1.1465 -0.0963
 8068TIP3    H245620   1.543   3.920  16.235 -0.8053  0.9643 -0.8915
 8069TIP3   OH245621   1.916   1.551  13.996  0.1578 -0.2248 -0.3837
 8069TIP3    H145622   1.932   1.469  14.042 -3.9458 -2.3855 -2.2523
 8069TIP3    H245623   1.847   1.594  14.046  0.8480  1.0800 -0.5249
 8070TIP3   OH245624   0.234   4.808  14.857  0.2150 -0.4602 -0.5324
 8070TIP3    H145625   0.161   4.833  14.913 -0.1214  1.7295 -1.8205
 8070TIP3    H245626   0.278   4.891  14.838  1.8114 -1.4821 -1.4419
 8071TIP3   OH245627   0.272   6.104  13.165  0.2787 -0.2773 -0.8833
 8071TIP3    H145628   0.278   6.189  13.209  1.3946 -0.6367 -0.2931
 8071TIP3    H245629   0.305   6.121  13.076  0.5555 -0.1048 -0.7482
 8072TIP3   OH245630   3.881   3.921   0.013 -0.0532 -0.2592 -0.3120
 8072TIP3    H145631   3.886   3.985   0.085 -0.2553 -0.9021  0.2890
 8072TIP3    H245632   3.874   3.836   0.058  0.1803 -0.6990 -1.0957
 8073TIP3   OH245633   0.227   5.463  15.461  0.6974  1.1664  0.0103
 8073TIP3    H145634   0.133   5.445  15.457  0.8892  0.1550 -0.2419
 8073TIP3    H245635   0.261   5.400  15.523  1.0937  2.1286  0.7989
 8074TIP3   OH245636   5.471   3.815   2.897  0.6819  0.2300  0.0027
 8074TIP3    H145637   5.376   3.820   2.890  0.4919 -0.6883  1.4967
 8074TIP3    H245638   5.503   3.843   2.811 -0.9249  0.4295 -0.5640
 8075TIP3   OH245639   6.180   6.657   0.754 -0.1695  0.1106  0.4540
 8075TIP3    H145640   6.251   6.594   0.752 -0.6889 -0.4769  0.0771
 8075TIP3    H245641   6.154   6.662   0.846 -0.5515 -0.7182  0.3983
 8076TIP3   OH245642   1.452   1.662  12.995 -0.2256  0.0613  0.0904
 8076TIP3    H145643   1.412   1.735  12.948  1.5314  0.6720 -0.5323
 8076TIP3    H245644   1.465   1.695  13.084 -0.4182  0.1245  0.0955
 8077TIP3   OH245645   1.114   6.684  12.518  0.4006 -0.3071 -0.0817
 8077TIP3    H145646   1.145   6.699  12.429 -0.2770  1.2813 -0.0739
 8077TIP3    H245647   1.056   6.608  12.510  1.0770 -0.7647 -0.8148
 8078TIP3   OH245648   4.673   1.799   4.135 -0.2457  0.1686  0.3836
 8078TIP3    H145649   4.582   1.785   4.159 -0.5800  0.5543 -0.6103
 8078TIP3    H245650   4.669   1.847   4.052  0.8574  0.4680  0.4873
 8079TIP3   OH245651   6.325   3.755   2.121 -0.7977 -0.1118 -0.1964
 8079TIP3    H145652   6.373   3.766   2.203  0.7635  0.1390 -1.1069
 8079TIP3    H245653   6.235   3.738   2.148 -0.0822 -1.3762  1.6038
 8080TIP3   OH245654   3.991   2.128   4.425 -0.5392  0.2408  0.1371
 8080TIP3    H145655   4.011   2.221   4.439 -0.1156  0.2414 -0.4180
 8080TIP3    H245656   3.898   2.120   4.446 -0.4015  0.6365  0.9239
 8081TIP3   OH245657   3.014   4.115  16.316 -0.1386 -0.0686  0.4480
 8081TIP3    H145658   2.968   4.064  16.383 -0.5546 -0.8823 -0.4406
 8081TIP3    H245659   3.080   4.054  16.281 -1.0600 -0.2374 -1.0654
 8082TIP3   OH245660   5.187   4.484  13.550  0.1217  0.1362  0.6796
 8082TIP3    H145661   5.228   4.397  13.546  1.2010  0.6663 -0.2628
 8082TIP3    H245662   5.111   4.477  13.492 -0.4097 -0.4640  1.4162
 8083TIP3   OH245663   4.813   0.216  13.262  0.3154  0.4123 -0.5765
 8083TIP3    H145664   4.850   0.284  13.206  2.6218  1.3305  1.8730
 8083TIP3    H245665   4.748   0.261  13.315  1.1716  0.5398  0.3902
 8084TIP3   OH245666   3.265   6.353   2.504  0.4297 -0.2934 -0.2055
 8084TIP3    H145667   3.210   6.396   2.440  0.1782 -0.1401  0.1084
 8084TIP3    H245668   3.210   6.347   2.583  1.6875  2.3006  1.0082
 8085TIP3   OH245669   6.548   6.146   0.736 -0.1938  0.1754  0.2350
 8085TIP3    H145670   6.461   6.147   0.697  0.4240 -0.0686 -1.1788
 8085TIP3    H245671   6.584   6.061   0.711  1.8585  1.6930 -2.4388
 8086TIP3   OH245672   5.705   2.173  12.480 -0.3548  0.3381 -0.4004
 8086TIP3    H145673   5.793   2.180  12.516  0.2672 -0.7718 -1.6534
 8086TIP3    H245674   5.700   2.241  12.414 -0.6620  0.7989  0.0898
 8087TIP3   OH245675   4.579   2.139   4.815 -0.3392  0.2756 -0.2473
 8087TIP3    H145676   4.615   2.050   4.815 -2.8451 -0.8159 -1.2996
 8087TIP3    H245677   4.644   2.191   4.768  0.8305 -1.1397 -0.2593
 8088TIP3   OH245678   1.520   4.215   3.616 -0.4279  0.0192 -0.3361
 8088TIP3    H145679   1.425   4.218   3.621 -0.3954  0.7561 -0.0402
 8088TIP3    H245680   1.540   4.232   3.524 -0.5948 -0.7667 -0.5276
 8089TIP3   OH245681   1.683   4.168   6.470  0.2877 -0.4403  0.0408
 8089TIP3    H145682   1.692   4.074   6.479 -2.6928 -1.0096 -1.6771
 8089TIP3    H245683   1.718   4.188   6.383  0.0024 -0.1018  0.0010
 8090TIP3   OH245684   4.526   4.817   5.131 -0.7457  0.6741  0.1347
 8090TIP3    H145685   4.464   4.889   5.145 -2.1618 -0.4376 -0.2426
 8090TIP3    H245686   4.591   4.828   5.201 -3.1106  0.0578  2.6111
 8091TIP3   OH245687   1.180   1.527  15.832  0.3845  0.3834  0.0334
 8091TIP3    H145688   1.096   1.486  15.852  2.0026 -3.3108  0.0325
 8091TIP3    H245689   1.195   1.590  15.903 -0.9347 -1.2316  1.8211
 8092TIP3   OH245690   0.572   1.964  11.283 -0.2031  0.0101  0.6452
 8092TIP3    H145691   0.556   2.049  11.242  0.4875  0.1046  0.5644
 8092TIP3    H245692   0.570   1.982  11.377  0.1636  0.1590  0.6255
 8093TIP3   OH245693   3.072   0.205   2.140  0.1019 -0.5041  0.1723
 8093TIP3    H145694   2.978   0.206   2.121 -0.3516  1.1968  2.1291
 8093TIP3    H245695   3.078   0.177   2.231  1.6263 -1.8631 -0.2954
 8094TIP3   OH245696   4.408   6.770  14.643  0.0263 -0.7722 -0.2040
 8094TIP3    H145697   4.379   6.788  14.733  0.0038  1.1728 -0.5737
 8094TIP3    H245698   4.441   6.853  14.611 -1.2718 -1.0641 -2.5061
 8095TIP3   OH245699   3.660   5.009  15.990 -0.0997 -0.6222  0.1726
 8095TIP3    H145700   3.676   5.006  15.896  0.1926 -1.5638  0.2481
 8095TIP3    H245701   3.743   5.037  16.028 -0.9758  2.7170 -0.0184
 8096TIP3   OH245702   0.192   3.227  13.252  0.1954 -0.0250  0.3985
 8096TIP3    H145703   0.178   3.198  13.342  0.5731  1.5168  0.9894
 8096TIP3    H245704   0.270   3.180  13.223 -1.1899 -2.2642  0.0256
 8097TIP3   OH245705   2.302   5.946   4.532 -0.4599  0.2985 -0.5487
 8097TIP3    H145706   2.350   5.870   4.563  1.4449  1.3930 -0.6784
 8097TIP3    H245707   2.216   5.911   4.507  0.3974 -1.8240 -0.7541
 8098TIP3   OH245708   2.081   0.367  14.801 -0.7176  0.1030 -0.1474
 8098TIP3    H145709   2.106   0.404  14.885 -2.7985 -1.4046  1.2209
 8098TIP3    H245710   2.096   0.437  14.738  0.2377  1.5026  1.5616
 8099TIP3   OH245711   0.739   3.024   1.726 -0.8771  0.3053  0.4658
 8099TIP3    H145712   0.648   3.049   1.744 -1.1906  1.4510 -2.2176
 8099TIP3    H245713   0.731   2.950   1.666 -0.1039  1.3368 -0.9621
 8100TIP3   OH245714   5.960   1.925  12.385  0.3901  0.1680 -0.6917
 8100TIP3    H145715   6.055   1.926  12.371  0.6824  0.0207  1.0279
 8100TIP3    H245716   5.950   1.897  12.476 -1.4030 -2.1325 -1.5037
 8101TIP3   OH245717   5.180   2.404   1.207  0.4524 -0.4640  0.1043
 8101TIP3    H145718   5.183   2.310   1.190 -1.6833 -0.6203  0.2753
 8101TIP3    H245719   5.198   2.412   1.300  0.1037 -0.7603  0.1988
 8102TIP3   OH245720   0.859   0.949  13.588 -0.3121  0.9041  0.3349
 8102TIP3    H145721   0.941   0.999  13.585 -0.0477  0.5506  1.3492
 8102TIP3    H245722   0.791   1.015  13.599 -0.0862  1.1366  0.3427
 8103TIP3   OH245723   1.294   4.171   2.330  0.2040 -0.5932 -0.1990
 8103TIP3    H145724   1.255   4.198   2.414 -0.6851 -0.4981 -0.6268
 8103TIP3    H245725   1.374   4.223   2.323  0.3001 -0.6153  0.5961
 8104TIP3   OH245726   4.847   0.315   2.012 -0.0139  0.1321 -0.0075
 8104TIP3    H145727   4.895   0.396   2.027  1.7575 -0.7490 -0.6683
 8104TIP3    H245728   4.780   0.339   1.948 -0.3616  1.3405  0.7632
 8105TIP3   OH245729   2.782   1.183  14.699 -0.5234  0.2971  0.2333
 8105TIP3    H145730   2.739   1.264  14.726 -1.1967 -0.3911  1.3313
 8105TIP3    H245731   2.848   1.168  14.766 -0.7036 -0.2822  0.2876
 8106TIP3   OH245732   0.923   2.919   1.307  0.0938 -0.0955  0.0816
 8106TIP3    H145733   0.972   2.932   1.226  0.0832 -1.4562 -0.1780
 8106TIP3    H245734   0.832   2.917   1.279 -0.0300  0.9951  0.3643
 8107TIP3   OH245735   1.881   5.091  15.053  0.0418  0.0038  0.3790
 8107TIP3    H145736   1.831   5.011  15.066  0.3828 -0.2462  0.1632
 8107TIP3    H245737   1.937   5.098  15.130  1.2775 -0.9028 -0.3903
 8108TIP3   OH245738   6.589   0.488  16.020  0.2681  0.2293 -0.3353
 8108TIP3    H145739   6.498   0.460  16.011  0.0893  0.2132  1.2071
 8108TIP3    H245740   6.595   0.524  16.108  1.9781 -0.6170 -0.0454
 8109TIP3   OH245741   6.216   6.253  10.428 -0.3602 -0.0746 -0.7874
 8109TIP3    H145742   6.171   6.315  10.487 -0.0530 -0.2825 -0.3279
 8109TIP3    H245743   6.298   6.297  10.405 -0.2522 -0.2063 -0.6562
 8110TIP3   OH245744   4.475   1.437   2.263 -0.1790  0.4199  0.2928
 8110TIP3    H145745   4.490   1.532   2.258  2.0099  0.0667 -2.2469
 8110TIP3    H245746   4.388   1.425   2.224  1.1239  1.1819 -3.1858
 8111TIP3   OH245747   6.286   2.935  15.522  0.3351 -0.3501  0.3544
 8111TIP3    H145748   6.250   3.000  15.582  1.3960  0.1270  0.5073
 8111TIP3    H245749   6.317   2.986  15.447 -0.6144 -0.9012 -0.4339
 8112TIP3   OH245750   6.229   4.456   1.071 -0.4353  0.1699  0.1628
 8112TIP3    H145751   6.168   4.509   1.019  0.6892  0.8361 -0.5224
 8112TIP3    H245752   6.206   4.476   1.162  1.1139  3.4044  0.0154
 8113TIP3   OH245753   0.179   0.488  12.652 -0.6281  0.3408 -0.3372
 8113TIP3    H145754   0.134   0.440  12.721  0.6803 -0.3882  0.0478
 8113TIP3    H245755   0.233   0.422  12.609 -0.6460  0.9961 -1.4038
 8114TIP3   OH245756   5.759   4.048   0.253 -0.1515  0.0705 -0.1731
 8114TIP3    H145757   5.844   4.088   0.272  0.5861 -0.9655 -1.1754
 8114TIP3    H245758   5.696   4.119   0.262  0.5328  0.4749  2.5222
 8115TIP3   OH245759   5.691   4.781  13.019  0.1596  0.0420  0.6265
 8115TIP3    H145760   5.662   4.696  12.986 -1.7178  0.8673  0.0108
 8115TIP3    H245761   5.786   4.774  13.024  0.3071 -1.1272 -2.2137
 8116TIP3   OH245762   1.718   1.977   4.160 -0.1460 -0.0759 -0.2250
 8116TIP3    H145763   1.761   1.926   4.091  1.9660 -1.4660  1.9510
 8116TIP3    H245764   1.669   1.912   4.211 -0.4554  0.6821  0.4566
 8117TIP3   OH245765   0.001   4.800   1.212 -0.0388  0.0322 -0.4106
 8117TIP3    H145766   0.051   4.739   1.267  1.1529 -0.1341 -1.6356
 8117TIP3    H245767  -0.043   4.857   1.275 -0.1804 -1.2837  0.7459
 8118TIP3   OH245768   2.758   1.694  11.299 -0.6292  0.4460 -0.3963
 8118TIP3    H145769   2.804   1.773  11.269  0.7508 -0.4449 -0.7045
 8118TIP3    H245770   2.819   1.623  11.282 -0.9734 -0.4621  1.8413
 8119TIP3   OH245771   0.400   4.395   4.694 -0.0461  0.2897  0.2953
 8119TIP3    H145772   0.490   4.399   4.727  0.9001 -0.5902 -1.9731
 8119TIP3    H245773   0.358   4.327   4.747  1.3195 -0.8625 -0.0463
 8120TIP3   OH245774   5.764   2.408   0.527 -0.0053  0.4285  0.4398
 8120TIP3    H145775   5.814   2.357   0.463 -0.7839 -2.4321  1.9346
 8120TIP3    H245776   5.829   2.467   0.566  1.1900 -0.0716 -0.7049
 8121TIP3   OH245777   4.545   5.982   5.429  0.9123 -0.2196  0.4896
 8121TIP3    H145778   4.455   5.964   5.458  0.9206 -0.1939  0.5309
 8121TIP3    H245779   4.551   5.941   5.342  0.9518 -0.4721  0.6109
 8122TIP3   OH245780   5.005   3.083   3.617  0.4933  0.9025 -0.2354
 8122TIP3    H145781   4.926   3.130   3.641  0.4397  0.0280  1.3876
 8122TIP3    H245782   4.988   3.052   3.527 -2.3261 -1.8460  1.0490
 8123TIP3   OH245783   1.123   3.861   6.846  0.7999  0.0229  0.3064
 8123TIP3    H145784   1.194   3.865   6.911  0.5478 -0.3626  0.6132
 8123TIP3    H245785   1.081   3.947   6.852  2.5303  1.0683 -1.3892
 8124TIP3   OH245786   2.422   2.937  13.040  0.3611 -0.1564 -0.4102
 8124TIP3    H145787   2.484   2.963  13.109 -0.6937  0.6005  0.2914
 8124TIP3    H245788   2.423   3.009  12.978  1.1172 -0.7210 -1.0596
 8125TIP3   OH245789   0.815   3.040   2.210  0.0836  0.0590 -0.0043
 8125TIP3    H145790   0.774   3.011   2.292  0.0575  1.3405  0.4656
 8125TIP3    H245791   0.853   2.960   2.173 -0.2213 -0.6167  1.0701
 8126TIP3   OH245792   4.697   2.903  16.914  0.2044  0.4582 -0.6349
 8126TIP3    H145793   4.679   2.845  16.841 -3.4729 -0.6519  0.8682
 8126TIP3    H245794   4.661   2.988  16.887 -0.7512  0.1622 -0.3379
 8127TIP3   OH245795   5.996   2.529   0.983  0.1632 -0.0274  0.2478
 8127TIP3    H145796   6.086   2.525   0.951  0.7134 -0.4314  1.7388
 8127TIP3    H245797   6.005   2.540   1.078 -1.3646  0.4452  0.3673
 8128TIP3   OH245798   0.179   2.756   4.045 -0.2268  0.2052  0.1669
 8128TIP3    H145799   0.215   2.702   3.974 -0.5686 -0.5175  0.5268
 8128TIP3    H245800   0.254   2.774   4.102 -0.3192 -0.9182  0.6774
 8129TIP3   OH245801   5.580   6.208  12.268  0.1985 -0.0526  0.5418
 8129TIP3    H145802   5.491   6.177  12.288 -0.0851  0.4770  0.1266
 8129TIP3    H245803   5.589   6.196  12.174  0.2567  0.6766  0.4501
 8130TIP3   OH245804   0.038   5.309  11.907  0.3989  0.5820 -0.4183
 8130TIP3    H145805   0.072   5.308  11.997  0.1464 -0.2121 -0.3217
 8130TIP3    H245806  -0.031   5.375  11.908 -0.0023  0.1617  0.1310
 8131TIP3   OH245807   6.299   1.400  14.626  0.2084 -0.3805  0.2430
 8131TIP3    H145808   6.291   1.495  14.640 -0.3994 -0.4346  0.2748
 8131TIP3    H245809   6.279   1.361  14.712 -1.2142 -0.6065 -0.1706
 8132TIP3   OH245810   2.451   3.790  14.270  0.2374 -0.0477  0.8282
 8132TIP3    H145811   2.377   3.847  14.246  0.5392 -0.1548 -0.4493
 8132TIP3    H245812   2.529   3.841  14.247  0.5790  0.0777  2.2052
 8133TIP3   OH245813   0.049   5.243  12.912  0.1442  0.1617 -0.1468
 8133TIP3    H145814   0.104   5.274  12.840  1.0480 -1.0250 -0.0164
 8133TIP3    H245815  -0.009   5.178  12.871 -1.4035  1.6127 -0.3392
 8134TIP3   OH245816   0.283   5.813  15.125 -0.4830 -0.2585  0.0735
 8134TIP3    H145817   0.345   5.885  15.125 -0.7130 -0.0580 -0.0121
 8134TIP3    H245818   0.237   5.820  15.209 -0.0907 -0.6684  0.3251
 8135TIP3   OH245819   6.590   1.679   1.971  0.5759  0.5801 -0.3380
 8135TIP3    H145820   6.559   1.717   2.053  0.7633  0.5791 -0.2673
 8135TIP3    H245821   6.674   1.639   1.993  2.5807  3.8373 -1.3353
 8136TIP3   OH245822   3.733   1.095   2.389  0.2956 -0.3619 -0.2226
 8136TIP3    H145823   3.713   1.070   2.299  1.8434 -0.0434 -0.6899
 8136TIP3    H245824   3.693   1.181   2.400  0.8079 -0.0319 -0.8941
 8137TIP3   OH245825   6.243   1.845   0.971 -0.2199 -0.8637 -0.7301
 8137TIP3    H145826   6.309   1.854   1.039  0.0953  0.7876 -1.2037
 8137TIP3    H245827   6.293   1.825   0.892  0.0679  2.4536 -1.5497
 8138TIP3   OH245828   6.716   2.356   4.277 -0.4946  0.1392 -0.1222
 8138TIP3    H145829   6.798   2.386   4.316 -1.2006 -0.2686  1.7990
 8138TIP3    H245830   6.690   2.281   4.330 -1.9081  0.0001 -0.9535
 8139TIP3   OH245831   1.990   2.366  13.646  0.7221  0.0339  0.1821
 8139TIP3    H145832   1.923   2.309  13.682  0.0517  1.1141  0.7177
 8139TIP3    H245833   1.966   2.377  13.554 -0.4617  1.2136  0.5981
 8140TIP3   OH245834   4.160   0.592   2.718 -0.4149  0.2811 -0.5348
 8140TIP3    H145835   4.128   0.663   2.663 -2.5693 -0.4218 -0.2857
 8140TIP3    H245836   4.177   0.520   2.657 -1.7944 -0.1521 -0.4531
 8141TIP3   OH245837   6.317   4.368  12.768 -0.4155 -0.1869 -0.3315
 8141TIP3    H145838   6.277   4.282  12.780  0.9883 -0.9583 -0.9833
 8141TIP3    H245839   6.331   4.375  12.673  1.8067 -0.3593 -0.0672
 8142TIP3   OH245840   5.807   1.258   1.354  0.2167 -0.1535  0.4939
 8142TIP3    H145841   5.787   1.332   1.297  1.0491  0.3313  0.8064
 8142TIP3    H245842   5.842   1.299   1.434  0.2303 -0.8654  0.8556
 8143TIP3   OH245843   6.168   2.268   3.644  0.0140  0.6988 -0.3520
 8143TIP3    H145844   6.233   2.328   3.609 -0.5242  0.7481 -1.3090
 8143TIP3    H245845   6.090   2.323   3.658  0.0396  0.5567  0.3690
 8144TIP3   OH245846   2.904   2.064   1.868 -0.7175  0.0479  0.4188
 8144TIP3    H145847   2.913   1.969   1.866 -2.1128 -0.1473 -2.9109
 8144TIP3    H245848   2.810   2.079   1.883 -0.2335  1.0499  2.9903
 8145TIP3   OH245849   4.905   6.319  15.091 -0.4683  0.0865  0.1657
 8145TIP3    H145850   4.871   6.236  15.059 -0.0893 -0.1679  0.4029
 8145TIP3    H245851   4.990   6.329  15.046  0.2820 -0.4982  1.3990
 8146TIP3   OH245852   4.174   4.907  11.464  0.2110  0.1085  0.1560
 8146TIP3    H145853   4.195   4.823  11.424 -1.4224  0.0322 -0.6545
 8146TIP3    H245854   4.253   4.959  11.455  0.5443 -0.6089 -1.3539
 8147TIP3   OH245855   6.743   2.032   4.106 -0.1654  0.8054  0.0552
 8147TIP3    H145856   6.814   2.061   4.164 -1.2696  0.4316  1.6898
 8147TIP3    H245857   6.751   1.937   4.104  0.7733  0.8784 -1.7031
 8148TIP3   OH245858   0.122   1.654   3.829 -0.2191 -0.1639  0.4775
 8148TIP3    H145859   0.064   1.583   3.804 -0.8017 -0.2398  1.9266
 8148TIP3    H245860   0.069   1.733   3.824  0.0624  0.0053  0.1029
 8149TIP3   OH245861   5.666   0.881   0.105  0.2651 -0.5469 -0.2390
 8149TIP3    H145862   5.724   0.832   0.164  0.9329 -0.5686 -0.9003
 8149TIP3    H245863   5.726   0.930   0.048 -0.3745  1.1156  0.4537
 8150TIP3   OH245864   5.827   1.978  11.780  0.1463  0.3029  0.4111
 8150TIP3    H145865   5.832   2.045  11.712  0.8918 -0.7054 -0.5625
 8150TIP3    H245866   5.915   1.972  11.815  0.2306 -0.5250  0.1046
 8151TIP3   OH245867   4.050   4.866   5.595  1.0436  0.0288  0.4848
 8151TIP3    H145868   4.072   4.957   5.575  0.4859  0.9070  3.3137
 8151TIP3    H245869   3.960   4.856   5.566  1.7617 -0.3529 -1.7725
 8152TIP3   OH245870   3.858   1.510   0.825  0.4134 -0.8022 -0.6580
 8152TIP3    H145871   3.870   1.455   0.747  1.2728 -3.1840  1.0373
 8152TIP3    H245872   3.781   1.473   0.868 -0.6359  1.1139 -0.8210
 8153TIP3   OH245873   0.451   0.519  12.777  0.1245 -0.7025  0.2579
 8153TIP3    H145874   0.425   0.489  12.864 -0.4258 -1.3910 -0.1327
 8153TIP3    H245875   0.394   0.470  12.717 -2.1581  2.4586 -0.3805
 8154TIP3   OH245876   4.387   3.076   1.470  0.0948  0.4806 -0.1114
 8154TIP3    H145877   4.352   3.160   1.499  1.7560  1.0384  0.3576
 8154TIP3    H245878   4.419   3.093   1.381 -3.9125 -0.9274 -2.1046
 8155TIP3   OH245879   0.560   0.109   1.791  0.0911 -0.2866 -0.0251
 8155TIP3    H145880   0.586   0.200   1.778  3.3029 -0.6651  2.6226
 8155TIP3    H245881   0.639   0.065   1.820 -1.4746 -3.8712 -0.6800
 8156TIP3   OH245882   5.472   1.229   1.594  0.0956  0.1626  0.0273
 8156TIP3    H145883   5.417   1.152   1.579 -1.5713  1.3178 -0.0726
 8156TIP3    H245884   5.418   1.288   1.645  2.9815 -0.5671  4.5189
 8157TIP3   OH245885   3.541   4.770  15.062  0.5925 -0.0107  1.0132
 8157TIP3    H145886   3.508   4.777  14.973 -0.8067 -1.3157  1.3721
 8157TIP3    H245887   3.631   4.801  15.057 -0.1962  2.3376 -0.3266
 8158TIP3   OH245888   3.132   2.935   4.181  0.3571 -0.0580  0.1570
 8158TIP3    H145889   3.041   2.915   4.159  0.0636 -0.1163  1.3813
 8158TIP3    H245890   3.177   2.850   4.175 -0.0733 -0.3922  1.4424
 8159TIP3   OH245891   2.794   0.949  11.223  0.3484 -0.5784 -0.3274
 8159TIP3    H145892   2.706   0.970  11.255  0.7538  0.9845 -0.1193
 8159TIP3    H245893   2.782   0.872  11.168 -0.7976 -1.7155  1.4256
 8160TIP3   OH245894   2.923   1.009   2.898 -0.2906  0.2967  0.2555
 8160TIP3    H145895   2.828   1.017   2.886 -0.8572 -0.5980  3.2078
 8160TIP3    H245896   2.939   0.914   2.896  0.6935  0.4685 -0.9316
 8161TIP3   OH245897   5.313   3.195  15.217  0.1705 -0.1312 -0.2841
 8161TIP3    H145898   5.394   3.153  15.187  0.1042  0.0338 -0.6953
 8161TIP3    H245899   5.264   3.124  15.258  0.6777 -0.1557  0.2859
 8162TIP3   OH245900   2.256   2.973   1.032 -0.6522  0.1145  0.1958
 8162TIP3    H145901   2.248   2.903   0.967 -0.3795 -0.5116  0.8215
 8162TIP3    H245902   2.300   2.932   1.106 -0.5353  0.9428  0.5971
 8163TIP3   OH245903   0.699   3.056   4.314  0.0175  0.9445 -0.3649
 8163TIP3    H145904   0.703   3.111   4.392  0.1499  0.2146  0.1570
 8163TIP3    H245905   0.715   2.967   4.346 -0.2254  0.5917 -1.1824
 8164TIP3   OH245906   3.147   3.712   6.100 -0.4389 -0.1516 -0.0467
 8164TIP3    H145907   3.163   3.799   6.136 -0.1700 -0.0332 -0.4425
 8164TIP3    H245908   3.193   3.652   6.159 -0.4053 -0.0039  0.0760
 8165TIP3   OH245909   6.210   2.642  14.459  0.1448 -0.2638  0.3181
 8165TIP3    H145910   6.299   2.643  14.424  0.0033  1.0326 -0.0393
 8165TIP3    H245911   6.209   2.712  14.524 -0.5099 -0.5202  0.5972
 8166TIP3   OH245912   6.379   0.172   2.665 -0.3011  0.3438 -0.3269
 8166TIP3    H145913   6.297   0.186   2.712 -0.4921  4.4650 -1.4700
 8166TIP3    H245914   6.444   0.223   2.714  1.2145 -1.3277 -0.4928
 8167TIP3   OH245915   2.327   5.960   3.309 -0.1052 -0.3670  0.5809
 8167TIP3    H145916   2.235   5.971   3.334 -0.0552  2.5293 -0.0836
 8167TIP3    H245917   2.376   5.998   3.382  0.6133 -1.9625  0.9652
 8168TIP3   OH245918   2.256   3.624  12.158 -0.4359 -0.1086  1.4883
 8168TIP3    H145919   2.191   3.557  12.179 -1.3058  0.7832  1.7641
 8168TIP3    H245920   2.215   3.676  12.088  0.7327 -0.5919  0.4184
 8169TIP3   OH245921   3.744   0.041  13.087 -0.3678  0.7176 -0.8025
 8169TIP3    H145922   3.743  -0.051  13.062 -1.3845  0.0104  1.5555
 8169TIP3    H245923   3.818   0.049  13.147 -0.6468  1.2653 -0.5177
 8170TIP3   OH245924   0.676   1.518  15.130 -0.1602  0.4116  0.5657
 8170TIP3    H145925   0.618   1.594  15.126 -0.0041  0.5811  1.4381
 8170TIP3    H245926   0.643   1.459  15.063 -0.9454  0.7846  0.6205
 8171TIP3   OH245927   2.990   3.457  17.147  0.2089  0.4563  0.1785
 8171TIP3    H145928   2.998   3.525  17.214  3.1550  1.2557 -0.8335
 8171TIP3    H245929   3.017   3.377  17.192  0.1199  0.5984  0.4883
 8172TIP3   OH245930   3.024   1.511  13.423 -0.2520 -0.2349 -0.3607
 8172TIP3    H145931   2.939   1.555  13.417 -0.2969 -0.1506  0.7788
 8172TIP3    H245932   3.010   1.427  13.378 -1.1737 -0.5570  0.4816
 8173TIP3   OH245933   0.061   3.741   4.843 -0.3189  0.3050 -0.1648
 8173TIP3    H145934   0.102   3.828   4.842  1.2986 -0.3294 -3.1769
 8173TIP3    H245935  -0.031   3.758   4.864  0.2912  2.4958  1.0789
 8174TIP3   OH245936   6.765   2.975  16.314  0.0339 -0.0812 -0.3106
 8174TIP3    H145937   6.834   3.041  16.313 -1.6329  1.8414  1.2718
 8174TIP3    H245938   6.744   2.961  16.221  1.1107  0.8661 -0.7173
 8175TIP3   OH245939   4.548   0.386  17.020 -0.3808 -0.5684  0.3053
 8175TIP3    H145940   4.458   0.411  17.041 -0.9501 -2.0569 -0.2435
 8175TIP3    H245941   4.576   0.333  17.095 -0.2065 -0.6858  0.1566
 8176TIP3   OH245942   3.427   4.976   3.219  0.2891  0.3689 -0.3257
 8176TIP3    H145943   3.396   5.029   3.292 -0.3933  1.2431 -1.2186
 8176TIP3    H245944   3.509   5.017   3.192  0.9388 -0.4054  0.3990
 8177TIP3   OH245945   3.962   5.805   4.933 -0.0200 -0.2754 -0.2743
 8177TIP3    H145946   3.884   5.847   4.897  0.1995 -0.5822 -1.1156
 8177TIP3    H245947   3.933   5.769   5.017 -0.4507  0.7123  0.0239
 8178TIP3   OH245948   1.189   1.127   1.608  0.0396 -0.2138 -0.3521
 8178TIP3    H145949   1.127   1.170   1.666  0.1197 -0.0647 -0.3786
 8178TIP3    H245950   1.275   1.148   1.645  0.1705  0.9991 -1.2839
 8179TIP3   OH245951   0.653   3.730  12.317  0.2349  0.4218  0.1148
 8179TIP3    H145952   0.594   3.731  12.243 -0.2385  1.3647  0.4895
 8179TIP3    H245953   0.676   3.822  12.331  1.0421  0.1623  0.5623
 8180TIP3   OH245954   5.072   4.797  12.586 -0.0319 -0.5670  0.4452
 8180TIP3    H145955   5.017   4.782  12.508 -0.5551 -0.7152  0.8360
 8180TIP3    H245956   5.094   4.709  12.617  0.8784 -0.5109 -0.0139
 8181TIP3   OH245957   6.551   4.786  15.776  0.0771 -0.1110  0.4945
 8181TIP3    H145958   6.488   4.798  15.704 -0.5009  0.4352  1.0797
 8181TIP3    H245959   6.557   4.691  15.787  0.4904 -0.2153 -0.5455
 8182TIP3   OH245960   4.658   1.389  11.208  0.1980  0.6208  0.0130
 8182TIP3    H145961   4.668   1.380  11.113  1.2838  2.0147 -0.0336
 8182TIP3    H245962   4.735   1.440  11.235  0.4219 -0.5764  1.7814
 8183TIP3   OH245963   6.000   3.899   2.216 -0.1117  0.2496 -0.0799
 8183TIP3    H145964   5.927   3.900   2.278  0.1057 -1.0785  0.2328
 8183TIP3    H245965   6.022   3.806   2.207  2.1248  0.6773  0.5166
 8184TIP3   OH245966   3.293   4.096   4.686 -0.4698  0.3837  0.1193
 8184TIP3    H145967   3.206   4.063   4.668 -0.1359 -1.1768  1.1820
 8184TIP3    H245968   3.304   4.085   4.781  0.9497  0.3235 -0.0274
 8185TIP3   OH245969   3.677   2.640   3.512  0.5550 -0.3484 -0.2697
 8185TIP3    H145970   3.721   2.708   3.462 -1.0318  0.0203 -1.2411
 8185TIP3    H245971   3.726   2.560   3.493 -0.7906 -0.5280 -3.6456
 8186TIP3   OH245972   3.346   2.795  12.449  0.3592  0.4409  0.2610
 8186TIP3    H145973   3.414   2.853  12.415  0.5004  1.2242  1.7859
 8186TIP3    H245974   3.341   2.816  12.542 -2.0330  0.4659  0.1951
 8187TIP3   OH245975   0.748   1.553  12.496 -0.1269 -0.6453 -0.8888
 8187TIP3    H145976   0.664   1.519  12.465 -1.6827  2.5744 -0.6103
 8187TIP3    H245977   0.739   1.648  12.490  2.4755 -0.0827  1.8553
 8188TIP3   OH245978   2.148   5.485   5.607  0.8329 -0.4184  0.3743
 8188TIP3    H145979   2.192   5.422   5.665  1.7950  0.5990  0.8042
 8188TIP3    H245980   2.068   5.508   5.654  1.2855 -0.0958  1.0185
 8189TIP3   OH245981   1.054   0.922   4.612 -0.7397 -0.4084  0.6048
 8189TIP3    H145982   0.971   0.874   4.609 -0.6306 -0.6698 -3.2013
 8189TIP3    H245983   1.037   1.003   4.564  0.9572 -0.0398  0.5611
 8190TIP3   OH245984   6.069   0.373  14.607 -0.2108  0.0723  0.1487
 8190TIP3    H145985   6.102   0.367  14.518 -1.1695  0.9525 -0.2811
 8190TIP3    H245986   6.130   0.320  14.659  1.6979  1.4009 -0.6374
 8191TIP3   OH245987   4.846   4.613  12.817  0.5621 -0.2688  0.3390
 8191TIP3    H145988   4.917   4.587  12.759  0.8617 -0.0909  0.6202
 8191TIP3    H245989   4.889   4.664  12.886 -0.0724  1.4462 -0.4984
 8192TIP3   OH245990   6.263   4.505   3.926  0.1120 -0.0591 -0.1798
 8192TIP3    H145991   6.304   4.461   3.852 -1.2855 -1.3632 -0.2317
 8192TIP3    H245992   6.184   4.453   3.945 -1.0184  1.7812  0.5003
 8193TIP3   OH245993   3.880   6.214   4.137 -0.2635  0.2431  0.1175
 8193TIP3    H145994   3.850   6.293   4.092 -0.0315  0.6005  0.5843
 8193TIP3    H245995   3.812   6.195   4.201  0.6724  1.3011  1.4715
 8194TIP3   OH245996   3.334   3.367   2.391 -0.0878  0.1420 -0.1405
 8194TIP3    H145997   3.355   3.304   2.460 -3.6632  0.0150  1.0370
 8194TIP3    H245998   3.400   3.352   2.324  0.8608 -2.8913  1.2940
 8195TIP3   OH245999   2.655   6.654  11.009 -0.0508 -0.6132  0.4182
 8195TIP3    H146000   2.721   6.594  11.044  0.3440 -0.1282  0.5203
 8195TIP3    H246001   2.703   6.708  10.946 -0.6813 -1.2539 -0.6321
 8196TIP3   OH246002   4.332   5.454   3.236 -0.0864  0.0644 -0.0373
 8196TIP3    H146003   4.317   5.485   3.325 -0.0509  0.0285 -0.0188
 8196TIP3    H246004   4.323   5.533   3.181  2.6917  0.7035  0.2639
 8197TIP3   OH246005   6.252   0.576   4.472  0.2316 -0.5604  0.0742
 8197TIP3    H146006   6.253   0.607   4.381  0.7974 -0.6432  0.0521
 8197TIP3    H246007   6.201   0.643   4.519 -1.8805 -1.5467 -0.6516
 8198TIP3   OH246008   5.790   6.211   1.448  0.2619  0.1000  0.0065
 8198TIP3    H146009   5.721   6.167   1.498  0.1583  0.7446  0.4448
 8198TIP3    H246010   5.749   6.289   1.413  0.7844  0.5350  0.3383
 8199TIP3   OH246011   6.281   0.774   3.660 -0.0072  0.1191  0.2371
 8199TIP3    H146012   6.193   0.776   3.622 -0.0291 -1.2116  0.1715
 8199TIP3    H246013   6.310   0.683   3.649  1.5783  0.6493 -0.1849
 8200TIP3   OH246014   4.387   2.604  12.023 -0.3025 -0.0375  0.1167
 8200TIP3    H146015   4.382   2.628  12.115 -0.3995 -1.2833  0.4596
 8200TIP3    H246016   4.477   2.624  11.997 -0.2029  0.0831  0.5549
 8201TIP3   OH246017   2.705   3.694   3.338 -0.5376 -0.0509 -0.0477
 8201TIP3    H146018   2.635   3.638   3.371 -0.8856  1.7734  2.6919
 8201TIP3    H246019   2.663   3.750   3.274 -0.7197 -1.2903 -1.0437
 8202TIP3   OH246020   5.783   3.413   0.087 -0.0980 -0.0946 -0.4564
 8202TIP3    H146021   5.719   3.476   0.121 -0.1115  1.3457 -2.8751
 8202TIP3    H246022   5.741   3.328   0.097 -1.6455  0.6399 -0.3854
 8203TIP3   OH246023   0.705   2.909  12.824 -0.3026  0.0207  0.3416
 8203TIP3    H146024   0.727   3.002  12.825  1.8043 -0.4371  0.9532
 8203TIP3    H246025   0.784   2.865  12.792 -1.4942 -1.5250 -0.6541
 8204TIP3   OH246026   1.861   3.559  12.962 -0.2475  0.1914  0.9121
 8204TIP3    H146027   1.890   3.468  12.963 -2.3091 -0.5067  1.3846
 8204TIP3    H246028   1.845   3.579  12.870  3.0708  1.1252  0.4183
 8205TIP3   OH246029   1.373   1.153  14.714 -0.2382  0.6469 -0.4531
 8205TIP3    H146030   1.466   1.156  14.735 -0.1157 -0.4190 -0.7667
 8205TIP3    H246031   1.328   1.158  14.798  0.1439 -0.0466 -0.2043
 8206TIP3   OH246032   2.577   3.622   5.092 -0.1713 -0.1353  0.9109
 8206TIP3    H146033   2.591   3.624   4.998  0.5643  0.9989  1.0205
 8206TIP3    H246034   2.487   3.592   5.103 -0.9255  1.6050 -0.2298
 8207TIP3   OH246035   0.699   4.139   5.309  0.3011 -0.3120 -0.3419
 8207TIP3    H146036   0.739   4.119   5.224 -1.7092 -0.2688 -1.3758
 8207TIP3    H246037   0.617   4.090   5.308  0.6172 -0.9966  1.9818
 8208TIP3   OH246038   2.606   5.191   3.550  0.4993 -0.1051  0.1758
 8208TIP3    H146039   2.533   5.182   3.612 -0.0283  1.6079 -0.1396
 8208TIP3    H246040   2.589   5.125   3.483 -0.1848 -0.4321  0.6530
 8209TIP3   OH246041   1.806   2.605  15.158 -0.0835  0.6114 -0.0388
 8209TIP3    H146042   1.823   2.515  15.186 -0.6481 -0.3825 -2.6299
 8209TIP3    H246043   1.789   2.653  15.240 -1.0224 -1.8990  1.3449
 8210TIP3   OH246044   6.020   0.399   3.048  0.3917  0.2945  0.1174
 8210TIP3    H146045   6.081   0.431   2.982  1.2174 -1.7504 -0.1905
 8210TIP3    H246046   6.066   0.326   3.090 -1.3763 -0.5555  0.6881
 8211TIP3   OH246047   1.674   0.477  10.464  0.5059 -0.2902 -0.4532
 8211TIP3    H146048   1.630   0.539  10.407  2.1363  0.8373 -0.5566
 8211TIP3    H246049   1.754   0.453  10.417  1.0718 -0.6060  0.6294
 8212TIP3   OH246050   1.777   5.148  16.186  0.1943 -0.1425 -0.2825
 8212TIP3    H146051   1.871   5.155  16.169  0.2146 -2.1814 -1.4483
 8212TIP3    H246052   1.764   5.056  16.208 -1.7292 -0.3172 -1.8196
 8213TIP3   OH246053   0.080   6.704  16.219 -0.2219 -0.5923  0.5939
 8213TIP3    H146054   0.114   6.780  16.172  0.1124 -1.2762 -0.2969
 8213TIP3    H246055  -0.005   6.734  16.253 -1.2343 -0.5205 -1.7895
 8214TIP3   OH246056   0.640   2.475  10.544  0.2724 -0.2055  0.0952
 8214TIP3    H146057   0.718   2.465  10.490 -1.6727  0.3181 -3.0896
 8214TIP3    H246058   0.627   2.389  10.583  1.9047 -0.5611 -0.0627
 8215TIP3   OH246059   3.795   5.457  16.375  0.4352  0.0645 -0.0092
 8215TIP3    H146060   3.708   5.492  16.396  1.2211  1.2852  1.3328
 8215TIP3    H246061   3.777   5.369  16.340 -1.2605 -0.2001  1.3815
 8216TIP3   OH246062   4.013   4.315  11.445  0.3842 -0.5482 -0.1992
 8216TIP3    H146063   3.987   4.380  11.510 -1.8772 -2.2055  0.6695
 8216TIP3    H246064   4.081   4.263  11.489 -0.9900 -1.5353  0.8606
 8217TIP3   OH246065   0.117   3.490  15.865  0.3478  0.0950 -0.0562
 8217TIP3    H146066   0.098   3.414  15.919  1.0492 -1.0068 -1.3048
 8217TIP3    H246067   0.205   3.474  15.831  1.2114  2.2537  0.9307
 8218TIP3   OH246068   4.027   5.361   2.158  0.1096 -0.2225  0.0968
 8218TIP3    H146069   4.028   5.278   2.111  4.1759 -0.5448  0.4150
 8218TIP3    H246070   4.024   5.337   2.250 -4.4574  0.3352  0.3324
 8219TIP3   OH246071   3.207   2.741   0.266 -0.4041  0.5932 -0.4442
 8219TIP3    H146072   3.231   2.748   0.358 -0.0807  0.6836 -0.5369
 8219TIP3    H246073   3.124   2.788   0.259  0.0983  1.4974 -0.4101
 8220TIP3   OH246074   5.041   6.360  14.240 -0.4061 -0.2955  0.1886
 8220TIP3    H146075   5.119   6.406  14.210 -0.9647  0.6440  0.1623
 8220TIP3    H246076   5.068   6.319  14.322  0.3995 -0.8151 -0.3189
 8221TIP3   OH246077   2.661   1.684  16.621 -0.6818  0.2307 -0.3996
 8221TIP3    H146078   2.637   1.680  16.529  0.5437 -2.6247 -0.6865
 8221TIP3    H246079   2.754   1.705  16.622 -0.6719  0.1904  0.1881
 8222TIP3   OH246080   0.766   4.259  14.281  0.0942 -0.3578  0.0716
 8222TIP3    H146081   0.715   4.315  14.340  0.8327  0.3915  0.0180
 8222TIP3    H246082   0.742   4.170  14.307 -2.0151 -0.0543 -0.6363
 8223TIP3   OH246083   4.036   2.223   3.280 -0.1666  0.0326 -0.5641
 8223TIP3    H146084   3.967   2.220   3.346  0.5092 -1.5985  0.1086
 8223TIP3    H246085   4.077   2.309   3.292 -0.7133  0.1649  0.4379
 8224TIP3   OH246086   5.904   6.563  11.437 -0.3599 -0.4063 -0.0896
 8224TIP3    H146087   5.826   6.518  11.406  0.2811 -1.8092  0.2464
 8224TIP3    H246088   5.976   6.525  11.387  0.3987 -0.9659  1.3458
 8225TIP3   OH246089   0.558   1.627  13.483  0.2780  0.0988  0.8673
 8225TIP3    H146090   0.529   1.541  13.513  1.2900 -1.4095 -2.0052
 8225TIP3    H246091   0.482   1.684  13.493 -1.3308 -1.8401  0.3715
 8226TIP3   OH246092   3.945   1.651  16.259  0.2923  0.2126  0.5696
 8226TIP3    H146093   3.917   1.707  16.186  1.0474  0.3355  0.3640
 8226TIP3    H246094   4.040   1.664  16.264  0.0139  2.1216  3.1443
 8227TIP3   OH246095   2.895   4.500  13.818  0.3589 -0.0780  0.2600
 8227TIP3    H146096   2.856   4.586  13.828  1.6436  0.4859  0.6884
 8227TIP3    H246097   2.829   4.448  13.772 -0.1463  1.3319 -0.6529
 8228TIP3   OH246098   6.569   6.253  13.064  0.3022  0.1911 -0.7005
 8228TIP3    H146099   6.603   6.193  12.998  1.4185 -1.0486  0.9248
 8228TIP3    H246100   6.631   6.326  13.065  0.5041  0.0204 -0.7402
 8229TIP3   OH246101   3.816   1.025  15.811 -0.0330 -0.8616 -0.3530
 8229TIP3    H146102   3.727   1.015  15.777 -0.4641 -1.1063  0.7735
 8229TIP3    H246103   3.859   0.943  15.791  0.1221 -0.5403 -1.3853
 8230TIP3   OH246104   2.205   0.788  14.350 -0.5224 -0.0283  0.5325
 8230TIP3    H146105   2.297   0.767  14.369 -0.6850  0.7840  2.4368
 8230TIP3    H246106   2.208   0.871  14.302 -0.1662 -1.5106 -2.2258
 8231TIP3   OH246107   1.757   0.019  14.685 -0.3155 -0.8616  0.4255
 8231TIP3    H146108   1.833  -0.022  14.726  0.1711  0.4765  0.9289
 8231TIP3    H246109   1.742  -0.033  14.606  1.1175 -1.1756  0.3211
 8232TIP3   OH246110   6.520   2.413  12.522 -0.1560 -0.3014  0.3093
 8232TIP3    H146111   6.446   2.464  12.555  0.8407  0.3516  1.6400
 8232TIP3    H246112   6.594   2.440  12.577  0.9731 -1.2752 -0.6753
 8233TIP3   OH246113   0.032   3.412  17.213 -0.0691 -0.0872 -0.0625
 8233TIP3    H146114  -0.057   3.386  17.189 -0.6742  0.1463  1.7680
 8233TIP3    H246115   0.030   3.507  17.216  0.1111 -0.0932  0.3861
 8234TIP3   OH246116   2.584   4.709  15.218  0.0808 -0.5887  0.5649
 8234TIP3    H146117   2.497   4.668  15.221 -1.0543  1.5726 -0.4297
 8234TIP3    H246118   2.602   4.732  15.309 -0.4463 -0.9442  0.7682
 8235TIP3   OH246119   6.316   4.154   5.612 -0.4255  0.2977 -0.0276
 8235TIP3    H146120   6.327   4.236   5.564 -1.6601  0.7402  0.4070
 8235TIP3    H246121   6.224   4.153   5.636 -0.6860 -1.7494 -0.9567
 8236TIP3   OH246122   6.515   2.713  12.027  0.4328 -0.3738 -0.2434
 8236TIP3    H146123   6.553   2.795  11.994 -0.2125 -0.2317 -0.6474
 8236TIP3    H246124   6.568   2.692  12.105  1.9200 -0.6598 -1.2828
 8237TIP3   OH246125   3.115   1.135  10.679 -0.0557  0.1363  0.3210
 8237TIP3    H146126   3.098   1.042  10.695 -0.8056  0.1940 -0.0691
 8237TIP3    H246127   3.163   1.137  10.596 -1.3360  0.1672 -0.4432
 8238TIP3   OH246128   4.666   5.370  15.671 -0.2739 -0.4981  0.4295
 8238TIP3    H146129   4.754   5.342  15.647 -0.3757  0.3920 -1.1063
 8238TIP3    H246130   4.612   5.292  15.658  0.1368 -0.8121  0.5643
 8239TIP3   OH246131   1.258   6.516  16.048 -0.4203 -0.5813  0.0951
 8239TIP3    H146132   1.229   6.578  16.115 -2.9654 -1.4069 -0.1517
 8239TIP3    H246133   1.248   6.430  16.088 -0.2942 -1.0063 -0.7646
 8240TIP3   OH246134   0.673   2.919  11.863  0.1381  0.2231  0.3027
 8240TIP3    H146135   0.628   2.926  11.779  2.3814 -0.2409 -1.0033
 8240TIP3    H246136   0.640   2.994  11.913 -0.3310  1.2358 -1.4355
 8241TIP3   OH246137   0.654   3.886  11.896 -0.0246 -0.0669 -0.5123
 8241TIP3    H146138   0.635   3.826  11.824  0.0047 -0.4168 -0.2290
 8241TIP3    H246139   0.614   3.846  11.972  0.3798  0.0455 -0.2360
 8242TIP3   OH246140   3.477   1.038  15.386  0.1185  0.1655 -0.1160
 8242TIP3    H146141   3.406   1.070  15.330 -1.0811 -1.3060  0.4799
 8242TIP3    H246142   3.474   0.943  15.376  0.3172 -0.1005  1.8725
 8243TIP3   OH246143   1.628   1.827  11.964 -0.2747 -0.3233  0.0197
 8243TIP3    H146144   1.722   1.812  11.976  0.5275  2.7788 -1.5421
 8243TIP3    H246145   1.613   1.915  11.998 -3.1227 -1.4511  2.0963
 8244TIP3   OH246146   6.198   6.472  13.350 -0.4383 -0.0304  0.1923
 8244TIP3    H146147   6.126   6.480  13.412  0.0672 -0.1153  0.7999
 8244TIP3    H246148   6.166   6.516  13.271 -1.0981  0.0568  0.4966
 8245TIP3   OH246149   3.704   5.246   1.493  0.0111 -0.0459 -0.4341
 8245TIP3    H146150   3.683   5.329   1.536 -0.3509  0.6024 -1.7833
 8245TIP3    H246151   3.771   5.206   1.548  0.6051  1.4203 -0.0569
 8246TIP3   OH246152   2.314   5.632   4.935 -0.4737 -0.3777 -0.0585
 8246TIP3    H146153   2.331   5.619   5.028  0.6919  0.4522 -0.1310
 8246TIP3    H246154   2.219   5.646   4.929 -0.5907 -0.6987  0.9645
 8247TIP3   OH246155   2.247   5.537  10.999  0.0042 -0.4353 -0.0752
 8247TIP3    H146156   2.254   5.444  10.978 -0.2527 -0.2703 -0.9279
 8247TIP3    H246157   2.154   5.550  11.019 -0.3499 -0.0139 -1.7993
 8248TIP3   OH246158   2.621   5.734   4.342  0.3088  0.0986 -0.0823
 8248TIP3    H146159   2.572   5.754   4.262 -1.1125 -0.2300  0.6779
 8248TIP3    H246160   2.668   5.815   4.362 -1.2450  1.0118  0.0620
 8249TIP3   OH246161   3.000   6.550   1.045  0.2324 -0.1507 -0.0801
 8249TIP3    H146162   2.931   6.487   1.069  0.9105 -0.7950  0.2077
 8249TIP3    H246163   3.082   6.505   1.067  0.7398  2.1121  3.6282
 8250TIP3   OH246164   0.139   5.207   1.019  0.5591  0.1148  0.5145
 8250TIP3    H146165   0.166   5.117   1.000 -2.2980 -0.5296 -0.9998
 8250TIP3    H246166   0.117   5.206   1.112  1.1574 -0.5740  0.6573
 8251TIP3   OH246167   0.657   5.257   3.032 -0.1616  0.0533  0.0770
 8251TIP3    H146168   0.676   5.163   3.034 -2.4895 -0.4698 -0.0490
 8251TIP3    H246169   0.612   5.270   2.949  0.4416  1.3687 -0.0573
 8252TIP3   OH246170   4.203   5.900  14.086  0.4717 -0.0432 -0.2237
 8252TIP3    H146171   4.141   5.972  14.097  1.8028  1.0832  0.2310
 8252TIP3    H246172   4.283   5.942  14.055  0.8695 -1.5238 -1.3243
 8253TIP3   OH246173   3.505   5.385  15.667  0.2715 -0.0749 -0.1935
 8253TIP3    H146174   3.462   5.434  15.598  0.2253 -1.0165 -0.8541
 8253TIP3    H246175   3.434   5.358  15.725  0.0670 -0.8887 -0.8121
 8254TIP3   OH246176   3.934   5.860  16.688 -0.4649 -0.1584 -0.1698
 8254TIP3    H146177   3.905   5.888  16.601 -0.7171 -1.7706 -0.6392
 8254TIP3    H246178   3.854   5.851  16.739 -0.4884 -1.0403 -0.3512
 8255TIP3   OH246179   3.943   2.282   0.235 -0.0692  0.1165  0.2106
 8255TIP3    H146180   3.917   2.228   0.161 -0.1667  1.4524 -0.7610
 8255TIP3    H246181   3.860   2.314   0.272  0.0245  1.0193 -0.3264
 8256TIP3   OH246182   4.818   6.645  16.374  0.3141 -0.9479 -0.0841
 8256TIP3    H146183   4.823   6.680  16.463 -1.3444  0.4868 -0.5045
 8256TIP3    H246184   4.895   6.681  16.330 -0.2394  0.4974  0.0826
 8257TIP3   OH246185   2.660   3.367   0.855  0.2554  0.1406  0.8359
 8257TIP3    H146186   2.726   3.357   0.787 -0.1209  0.1532  0.4676
 8257TIP3    H246187   2.586   3.314   0.825 -0.6497  1.6562  0.2827
 8258TIP3   OH246188   1.160   2.849  11.065  0.4249  0.4210  0.0345
 8258TIP3    H146189   1.251   2.873  11.046  0.6462  1.3803  1.9867
 8258TIP3    H246190   1.166   2.797  11.146 -0.8922  2.5733  1.6277
 8259TIP3   OH246191   6.157   1.506   0.966 -0.5999  0.2811 -0.3943
 8259TIP3    H146192   6.238   1.468   1.001 -0.6215  1.1626  0.6838
 8259TIP3    H246193   6.143   1.585   1.019 -1.1448  1.1924 -1.8407
 8260TIP3   OH246194   4.871   4.921  16.164 -0.6963 -0.5677  0.5791
 8260TIP3    H146195   4.874   4.910  16.069 -0.8754  1.5249  0.2791
 8260TIP3    H246196   4.942   4.865  16.196  0.6240  0.1061 -0.9784
 8261TIP3   OH246197   3.399   0.452  16.012 -0.2409  0.4623 -0.6452
 8261TIP3    H146198   3.357   0.538  16.021  0.5786  0.8313 -0.1632
 8261TIP3    H246199   3.343   0.392  16.062  0.8388  1.3255  1.7778
 8262TIP3   OH246200   4.274   4.567   1.758 -0.3187  0.9181  0.2905
 8262TIP3    H146201   4.204   4.562   1.823 -0.9207 -1.6799 -0.4014
 8262TIP3    H246202   4.229   4.592   1.677 -0.4852 -0.5066 -0.0975
 8263TIP3   OH246203   4.661   5.306  10.758 -0.2021 -0.5129 -0.4419
 8263TIP3    H146204   4.675   5.390  10.715  0.3679 -0.2982  0.1476
 8263TIP3    H246205   4.568   5.305  10.780 -0.1322  0.1404 -0.0974
 8264TIP3   OH246206   5.207   4.471  16.607 -0.0851 -0.0878 -0.2049
 8264TIP3    H146207   5.170   4.388  16.579 -1.5752  0.5983 -0.3400
 8264TIP3    H246208   5.251   4.452  16.690 -3.0591 -0.4551  1.4215
 8265TIP3   OH246209   1.743   2.111  13.311  0.8749 -0.0361  0.2242
 8265TIP3    H146210   1.830   2.144  13.289  0.9012  0.8514  1.5459
 8265TIP3    H246211   1.758   2.023  13.345  1.2369  0.0163  0.1950
 8266TIP3   OH246212   3.453   6.082  16.924  0.1212 -0.2135 -0.3603
 8266TIP3    H146213   3.495   6.070  16.839  0.5099 -0.6305 -0.1163
 8266TIP3    H246214   3.513   6.139  16.972 -0.3701  0.4712 -0.5570
 8267TIP3   OH246215   5.043   4.475   0.176 -0.2127 -0.5781 -0.3165
 8267TIP3    H146216   5.071   4.384   0.178  0.2893 -0.4353 -0.6795
 8267TIP3    H246217   5.097   4.516   0.108  0.0940  0.1612  0.3487
 8268TIP3   OH246218   6.209   0.209  17.160  0.0788  0.1939 -0.6922
 8268TIP3    H146219   6.300   0.182  17.166 -0.1081 -0.2189  1.2631
 8268TIP3    H246220   6.204   0.287  17.216 -0.7286  0.2964 -0.8961
 8269TIP3   OH246221   2.062   3.500  13.442 -0.0561 -0.1834  0.3719
 8269TIP3    H146222   1.984   3.544  13.476  0.7794  0.1406  1.9643
 8269TIP3    H246223   2.031   3.415  13.411 -1.1404  0.1994  0.3658
 8270TIP3   OH246224   4.902   0.184   2.484 -0.4847  0.0664 -0.2085
 8270TIP3    H146225   4.819   0.138   2.495 -0.1233 -0.4913  0.2372
 8270TIP3    H246226   4.916   0.228   2.568 -0.4208  0.3100 -0.3467
 8271TIP3   OH246227   2.533   0.639  12.281  0.1580 -0.5302 -0.7517
 8271TIP3    H146228   2.472   0.588  12.227  1.2519 -0.2086 -2.3670
 8271TIP3    H246229   2.583   0.573  12.328 -0.3445 -0.8384 -0.6347
 8272TIP3   OH246230   4.147   2.765  10.961  0.1476 -0.0803 -0.0739
 8272TIP3    H146231   4.112   2.678  10.940  0.6285 -0.2611 -0.1336
 8272TIP3    H246232   4.110   2.786  11.047  1.0875 -0.9251  0.5561
 8273TIP3   OH246233   1.854   4.078   4.944 -0.7210  0.0475 -0.4191
 8273TIP3    H146234   1.851   4.068   5.039 -2.2809  0.0051 -0.4444
 8273TIP3    H246235   1.801   4.156   4.926 -0.5539 -0.0194 -1.2688
 8274TIP3   OH246236   6.058   2.596   6.418  0.4002  0.5504  0.2322
 8274TIP3    H146237   6.076   2.524   6.478 -0.5816 -0.2478 -0.3888
 8274TIP3    H246238   6.139   2.646   6.414  1.0153 -0.3802  0.8785
 8275TIP3   OH246239   3.719   4.825   1.886 -0.2232 -0.1539  0.0399
 8275TIP3    H146240   3.730   4.905   1.938 -2.1106  1.7326 -2.1917
 8275TIP3    H246241   3.804   4.812   1.844  0.4642 -0.0449  1.3575
 8276TIP3   OH246242   6.224   5.279  17.179  0.2548 -0.0431  0.0300
 8276TIP3    H146243   6.315   5.260  17.154  0.4065 -0.7213  1.0295
 8276TIP3    H246244   6.179   5.195  17.171  0.2469 -0.2299  1.6670
 8277TIP3   OH246245   1.204   6.721   6.213 -0.0127  0.3337  0.2574
 8277TIP3    H146246   1.287   6.761   6.237  0.3627  1.3567 -2.4030
 8277TIP3    H246247   1.155   6.790   6.168 -1.7779 -0.6177  0.5824
 8278TIP3   OH246248   3.400   3.779  16.454  0.3694  0.2775 -0.1915
 8278TIP3    H146249   3.366   3.713  16.394 -0.5021  0.4039  0.1529
 8278TIP3    H246250   3.414   3.857  16.399 -0.2624  0.3409 -0.2662
 8279TIP3   OH246251   2.647   6.756  15.382  0.7509 -0.3342 -0.0635
 8279TIP3    H146252   2.684   6.795  15.303 -1.3578  1.8027 -0.1220
 8279TIP3    H246253   2.558   6.730  15.357  0.1140  0.1790  1.5268
 8280TIP3   OH246254   0.412   6.567   4.653 -0.3786 -0.3779 -0.3509
 8280TIP3    H146255   0.477   6.636   4.666 -0.7652 -0.1092  0.1934
 8280TIP3    H246256   0.413   6.550   4.559  2.6365 -2.4842 -0.0884
 8281TIP3   OH246257   0.556   2.499  13.688  0.4211 -0.3462 -0.2806
 8281TIP3    H146258   0.610   2.535  13.618 -0.4555  1.8294  0.0758
 8281TIP3    H246259   0.604   2.518  13.768  0.9646 -1.9696 -0.1817
 8282TIP3   OH246260   3.158   3.275   2.664  0.5043 -0.1829  0.0066
 8282TIP3    H146261   3.253   3.266   2.662  0.3763 -1.5750 -0.8724
 8282TIP3    H246262   3.126   3.190   2.693 -0.5231 -0.3834 -1.5478
 8283TIP3   OH246263   5.316   6.643  12.180  0.1286  0.4712 -0.1573
 8283TIP3    H146264   5.332   6.734  12.155 -1.2438  0.3981 -1.4099
 8283TIP3    H246265   5.396   6.597  12.154  0.5416  1.1919 -0.1748
 8284TIP3   OH246266   2.358   4.025   2.833 -0.5683 -0.1824 -0.2169
 8284TIP3    H146267   2.373   4.100   2.776  1.3593 -0.0220  0.4212
 8284TIP3    H246268   2.271   4.041   2.871 -0.9348  0.8195 -1.3913
 8285TIP3   OH246269   6.244   5.404   2.317  0.1020  0.5568 -0.4450
 8285TIP3    H146270   6.306   5.332   2.329 -0.5483  0.2560  1.5207
 8285TIP3    H246271   6.298   5.482   2.314  0.8167  0.0527 -2.5392
 8286TIP3   OH246272   1.136   0.275  12.448 -0.0761 -0.0053  0.4338
 8286TIP3    H146273   1.100   0.364  12.443 -0.3795 -0.0214  1.7706
 8286TIP3    H246274   1.060   0.218  12.438 -0.1299 -0.0736  1.1516
 8287TIP3   OH246275   6.226   1.265  13.816  0.0845 -0.2374 -0.1330
 8287TIP3    H146276   6.247   1.262  13.910 -0.4439  1.5387  0.0958
 8287TIP3    H246277   6.165   1.192  13.803  1.1712 -1.3197  0.6055
 8288TIP3   OH246278   3.000   0.907   5.101 -0.2433  0.6245  0.1228
 8288TIP3    H146279   2.939   0.965   5.056 -0.1941  1.2807  0.8824
 8288TIP3    H246280   3.085   0.929   5.065 -0.1832  1.2625  0.6413
 8289TIP3   OH246281   6.385   1.544   4.292 -0.3186  0.4444  0.0924
 8289TIP3    H146282   6.348   1.495   4.219  2.3709  1.5056 -2.1771
 8289TIP3    H246283   6.371   1.636   4.269  0.4740  0.8119  0.9894
 8290TIP3   OH246284   4.094   3.168   0.910  0.2899 -0.1178 -0.1455
 8290TIP3    H146285   4.022   3.226   0.937  0.3549 -0.1973  0.2092
 8290TIP3    H246286   4.171   3.204   0.955  0.1633 -1.0153  0.8126
 8291TIP3   OH246287   6.111   4.603   5.638 -0.4087 -0.2803 -0.1651
 8291TIP3    H146288   6.119   4.565   5.551  1.8199  0.8998 -0.5434
 8291TIP3    H246289   6.154   4.540   5.696  0.5877  0.2021 -0.3559
 8292TIP3   OH246290   4.327   6.285   2.707  0.5988  1.2088  0.3714
 8292TIP3    H146291   4.313   6.283   2.613  0.3606  0.1646  0.4187
 8292TIP3    H246292   4.413   6.245   2.719  0.8886  1.8701  0.5626
 8293TIP3   OH246293   1.683   0.140  14.244  0.0150 -0.3642 -0.1665
 8293TIP3    H146294   1.628   0.207  14.284  0.2303 -0.1716 -0.1918
 8293TIP3    H246295   1.625   0.064  14.233 -0.1066 -0.3415  0.2950
 8294TIP3   OH246296   4.321   6.417   4.535  0.6068  0.1726 -0.0741
 8294TIP3    H146297   4.391   6.430   4.472 -0.4874 -1.3500 -1.7213
 8294TIP3    H246298   4.251   6.374   4.484 -0.6405 -0.3788  1.9882
 8295TIP3   OH246299   6.055   5.443   0.350  0.6080  0.3510 -0.2659
 8295TIP3    H146300   5.977   5.495   0.330 -0.4408 -1.8613 -2.5382
 8295TIP3    H246301   6.108   5.449   0.270  1.7489  0.0294  0.4346
 8296TIP3   OH246302   2.327   1.752   2.320  0.2354 -0.3281 -0.3519
 8296TIP3    H146303   2.241   1.790   2.300 -0.2979 -0.9050  0.8048
 8296TIP3    H246304   2.357   1.801   2.397 -0.0998 -1.6681  0.6585
 8297TIP3   OH246305   2.102   5.389   4.718 -0.1629  0.1228 -0.6483
 8297TIP3    H146306   2.196   5.397   4.705 -0.2693 -0.1670 -1.7223
 8297TIP3    H246307   2.092   5.333   4.795  0.5333  0.6343 -0.1773
 8298TIP3   OH246308   0.077   5.881   4.091 -0.4446 -0.1746 -0.1541
 8298TIP3    H146309   0.049   5.972   4.096 -0.1657 -0.0898 -0.1259
 8298TIP3    H246310   0.092   5.855   4.181 -1.8639 -0.6794 -0.0289
 8299TIP3   OH246311   5.045   0.638  15.251 -0.0602  0.4581 -0.1307
 8299TIP3    H146312   5.085   0.577  15.313  1.1541  2.8406  1.5740
 8299TIP3    H246313   4.967   0.670  15.295  0.7383  2.0762  0.2047
 8300TIP3   OH246314   6.436   0.672  11.650 -0.5319 -0.4441  0.0742
 8300TIP3    H146315   6.374   0.712  11.711  1.0535  3.0925 -0.3738
 8300TIP3    H246316   6.461   0.589  11.691  0.3795  1.6627  4.2810
 8301TIP3   OH246317   1.477   3.820   3.117 -0.7886  0.4416  0.4399
 8301TIP3    H146318   1.409   3.792   3.178 -0.7840 -2.6516 -0.7800
 8301TIP3    H246319   1.433   3.824   3.032  0.2889 -0.4712 -0.1805
 8302TIP3   OH246320   6.435   2.165   3.176 -0.3514 -0.6462  0.8206
 8302TIP3    H146321   6.457   2.073   3.188 -0.5644 -0.7919  0.0824
 8302TIP3    H246322   6.371   2.167   3.105  1.1711  0.2337 -0.5991
 8303TIP3   OH246323   1.319   1.112  16.874  0.1105 -0.3113  0.4027
 8303TIP3    H146324   1.402   1.079  16.841  0.8341  1.4416  0.3879
 8303TIP3    H246325   1.343   1.174  16.943 -1.2145 -0.3325  0.9122
 8304TIP3   OH246326   1.380   2.712  11.703 -0.0861 -0.3467  0.2129
 8304TIP3    H146327   1.455   2.755  11.662  0.6991 -1.0370  0.8847
 8304TIP3    H246328   1.418   2.657  11.771 -1.2440 -0.3722  0.8738
 8305TIP3   OH246329   1.175   4.142  15.972  0.1373  0.2835  0.2002
 8305TIP3    H146330   1.195   4.054  15.943 -1.3505 -0.7867  2.1501
 8305TIP3    H246331   1.216   4.149  16.059 -0.5943  1.1394  0.4952
 8306TIP3   OH246332   4.792   5.342   2.563 -0.2268  0.1385  0.1499
 8306TIP3    H146333   4.863   5.346   2.628 -0.6337  1.5981  0.5332
 8306TIP3    H246334   4.830   5.382   2.485 -0.8919  1.7730  0.6365
 8307TIP3   OH246335   1.635   5.044   6.185 -0.0927  0.2635  0.0940
 8307TIP3    H146336   1.659   5.103   6.257  0.0424 -0.1780  0.4218
 8307TIP3    H246337   1.540   5.048   6.180 -0.1085  0.2314  0.3589
 8308TIP3   OH246338   2.182   3.223  16.412  0.3643  0.9288  0.0256
 8308TIP3    H146339   2.266   3.225  16.458  0.5885 -0.7632 -0.2544
 8308TIP3    H246340   2.147   3.312  16.422  1.6911  1.3679  1.0490
 8309TIP3   OH246341   5.111   0.468  12.356 -0.2845 -0.6908  0.1708
 8309TIP3    H146342   5.118   0.464  12.452  0.1284 -1.7765  0.1125
 8309TIP3    H246343   5.202   0.468  12.325 -0.3849  0.8218 -0.2097
 8310TIP3   OH246344   5.990   5.329  16.705  0.2302 -0.0869  0.5638
 8310TIP3    H146345   5.937   5.325  16.626  1.0327 -1.2898  0.0474
 8310TIP3    H246346   6.074   5.291  16.680  1.2789  1.5300  1.4197
 8311TIP3   OH246347   0.255   5.477   2.037 -0.5880 -0.4834 -0.1910
 8311TIP3    H146348   0.265   5.477   1.942  1.2400  0.5162 -0.0431
 8311TIP3    H246349   0.296   5.395   2.065  2.3631  0.9045 -0.0542
 8312TIP3   OH246350   3.224   0.814   5.262  0.4118  0.5186  0.2772
 8312TIP3    H146351   3.129   0.814   5.253  0.3665 -0.3365  0.6827
 8312TIP3    H246352   3.240   0.844   5.352  0.5572  1.2343  0.0219
 8313TIP3   OH246353   5.319   4.853   3.133 -0.5598 -0.4221  0.1820
 8313TIP3    H146354   5.279   4.922   3.080  0.6434 -0.7214 -1.1662
 8313TIP3    H246355   5.273   4.858   3.217 -0.7438  1.7937  0.0215
 8314TIP3   OH246356   5.567   0.970   3.704 -0.2384  0.4178 -0.7539
 8314TIP3    H146357   5.589   1.039   3.767  0.2730 -0.1313 -0.3222
 8314TIP3    H246358   5.532   0.899   3.757  0.3078 -0.0947 -1.0657
 8315TIP3   OH246359   0.063   3.153  11.924 -0.4380  0.6616 -0.3672
 8315TIP3    H146360   0.121   3.116  11.990 -0.1083  0.7437 -0.6078
 8315TIP3    H246361   0.048   3.243  11.953 -1.4668  0.2724  0.3679
 8316TIP3   OH246362   5.033   6.309   3.158  0.0624 -0.8249 -0.2449
 8316TIP3    H146363   5.122   6.330   3.188  0.5458 -0.9244 -1.5364
 8316TIP3    H246364   4.977   6.330   3.233  0.8749  1.7127 -0.2241
 8317TIP3   OH246365   3.732   3.697  15.016 -0.5258  0.6668 -0.0248
 8317TIP3    H146366   3.673   3.746  14.959 -0.2518  0.5049 -0.4460
 8317TIP3    H246367   3.743   3.612  14.973  0.2142  0.7835 -0.0713
 8318TIP3   OH246368   4.865   3.127  13.570  0.4368 -0.7566 -0.2064
 8318TIP3    H146369   4.895   3.217  13.556 -2.3327  0.6381  1.7923
 8318TIP3    H246370   4.776   3.126  13.535 -0.3899 -2.0499  1.7840
 8319TIP3   OH246371   2.229   4.024  13.285  0.6318  0.1340 -0.2687
 8319TIP3    H146372   2.222   4.029  13.189 -0.9379  0.1491 -0.1909
 8319TIP3    H246373   2.138   4.021  13.314  1.0964  0.2232  1.2381
 8320TIP3   OH246374   4.575   3.392  16.067  0.1358  0.4445  0.0330
 8320TIP3    H146375   4.601   3.345  15.988  0.2316 -1.6740  1.2729
 8320TIP3    H246376   4.480   3.399  16.061  0.1329  0.1994 -0.2101
 8321TIP3   OH246377   5.696   4.074  15.605 -0.0444  0.1484  0.2458
 8321TIP3    H146378   5.686   4.170  15.608 -1.7836  0.0688  4.8477
 8321TIP3    H246379   5.607   4.041  15.594  0.2752 -0.9218  0.7665
 8322TIP3   OH246380   4.499   2.458   5.716 -0.5537 -0.5884  0.0668
 8322TIP3    H146381   4.560   2.409   5.771 -0.2819 -0.9237 -0.5258
 8322TIP3    H246382   4.537   2.455   5.628  0.1201  1.7390  0.2149
 8323TIP3   OH246383   0.101   1.635  12.167  0.1076  0.2099  0.3627
 8323TIP3    H146384   0.060   1.563  12.215  0.7003  1.4751  2.9308
 8323TIP3    H246385   0.176   1.661  12.220  0.6474  1.9221 -1.1120
 8324TIP3   OH246386   5.295   1.340  12.836  0.5863  0.6100 -0.2054
 8324TIP3    H146387   5.268   1.287  12.911  2.3268  0.8070  0.5984
 8324TIP3    H246388   5.360   1.401  12.871  2.0196  0.2128 -2.0012
 8325TIP3   OH246389   2.165   0.012   1.085  0.1630  0.2203 -0.2110
 8325TIP3    H146390   2.231  -0.051   1.057 -0.3853  0.0572 -1.2138
 8325TIP3    H246391   2.203   0.097   1.065  0.5809  0.1881  0.4097
 8326TIP3   OH246392   0.016   6.412   5.545 -0.0841 -0.3476  0.6098
 8326TIP3    H146393  -0.074   6.402   5.512  0.1422 -0.7413  0.0963
 8326TIP3    H246394   0.029   6.336   5.602 -0.3498  0.1383  1.3192
 8327TIP3   OH246395   2.050   4.853   2.692 -0.5062  0.1188 -0.2151
 8327TIP3    H146396   2.073   4.800   2.615 -0.7943 -0.6349  0.2070
 8327TIP3    H246397   1.965   4.891   2.669 -0.4635  0.1141 -0.3853
 8328TIP3   OH246398   6.099   2.862   0.181  0.4076 -0.4652 -0.2171
 8328TIP3    H146399   6.049   2.944   0.178  2.6180  0.9222 -1.7089
 8328TIP3    H246400   6.047   2.805   0.238 -1.3189  1.8782  0.7307
 8329TIP3   OH246401   2.027   1.383   1.553 -0.1488  0.0580  0.4104
 8329TIP3    H146402   1.965   1.336   1.608 -1.0361  0.9833  0.2483
 8329TIP3    H246403   2.082   1.315   1.515 -1.3200 -0.8382  0.2543
 8330TIP3   OH246404   6.139   6.086  15.135  0.7256 -0.0168 -0.3676
 8330TIP3    H146405   6.183   6.166  15.109  0.3612  0.3358  0.0939
 8330TIP3    H246406   6.091   6.058  15.056  1.2826 -0.0832 -0.6889
 8331TIP3   OH246407   1.006   1.954  11.273 -0.3662 -0.1002  0.3772
 8331TIP3    H146408   1.008   1.871  11.224  2.0854 -0.7049  1.3570
 8331TIP3    H246409   1.049   2.017  11.215  0.0260 -0.1441  0.6139
 8332TIP3   OH246410   6.736   6.345  12.215  0.4255  0.4850 -0.2520
 8332TIP3    H146411   6.794   6.355  12.290  0.1584 -1.5983  0.2862
 8332TIP3    H246412   6.650   6.370  12.247  0.5269  0.8599 -0.2607
 8333TIP3   OH246413   4.908   4.199   3.155 -0.7292  0.1245 -0.0128
 8333TIP3    H146414   4.847   4.257   3.110 -0.1799  0.8500  0.1545
 8333TIP3    H246415   4.994   4.223   3.120 -0.6322 -1.8110 -1.2664
 8334TIP3   OH246416   5.378   4.517   0.775  0.3457 -0.3274 -0.5423
 8334TIP3    H146417   5.364   4.580   0.705 -0.8259  0.2007  0.1387
 8334TIP3    H246418   5.315   4.447   0.759 -0.2941  0.0519  0.2580
 8335TIP3   OH246419   4.585   4.144  11.275 -0.0982 -0.0049 -0.9625
 8335TIP3    H146420   4.657   4.150  11.212 -0.0053 -2.5670 -1.1806
 8335TIP3    H246421   4.628   4.130  11.360 -0.3088 -0.1019 -0.8704
 8336TIP3   OH246422   0.779   2.045  10.601 -0.2736  0.0682 -0.3202
 8336TIP3    H146423   0.854   1.995  10.570  0.9639  3.1726 -3.0386
 8336TIP3    H246424   0.815   2.103  10.669 -1.4160 -1.7259  1.9429
 8337TIP3   OH246425   6.110   6.257   2.407  0.5585 -0.1381 -0.3670
 8337TIP3    H146426   6.057   6.313   2.465  0.6460  0.2451 -0.6530
 8337TIP3    H246427   6.200   6.286   2.422  0.6745 -0.6938  0.0137
 8338TIP3   OH246428   2.704   0.502   0.881  0.4209  0.0685 -0.9918
 8338TIP3    H146429   2.782   0.510   0.826  0.3663  0.0468 -1.0726
 8338TIP3    H246430   2.667   0.590   0.884  1.6105  0.5353  0.7673
 8339TIP3   OH246431   6.013   4.776   2.797  0.0432  0.2438 -0.6486
 8339TIP3    H146432   5.949   4.789   2.727 -3.3134 -0.0957  2.0611
 8339TIP3    H246433   6.074   4.849   2.788 -1.8982  1.7711 -2.2249
 8340TIP3   OH246434   3.959   0.268   5.515  0.1871 -0.5100 -0.0104
 8340TIP3    H146435   3.924   0.215   5.587 -0.3966 -1.1704 -0.7529
 8340TIP3    H246436   4.017   0.331   5.557  0.2051 -1.1716  0.9931
 8341TIP3   OH246437   1.894   5.591   5.659  0.0752  0.4818  0.1937
 8341TIP3    H146438   1.853   5.589   5.746 -1.3166 -0.8981 -0.4490
 8341TIP3    H246439   1.858   5.670   5.618 -0.1397  0.5349  0.4784
 8342TIP3   OH246440   1.627   3.836  13.512  0.7258  0.2127  0.4034
 8342TIP3    H146441   1.562   3.800  13.572  1.1893 -1.5757 -0.1097
 8342TIP3    H246442   1.600   3.927  13.500 -1.4454 -0.3480  0.5233
 8343TIP3   OH246443   5.227   1.559  16.997  0.1785 -0.2055  0.0680
 8343TIP3    H146444   5.175   1.601  17.065 -0.2055 -1.5434  0.6329
 8343TIP3    H246445   5.299   1.516  17.043  0.2728 -0.5984 -0.4250
 8344TIP3   OH246446   2.407   4.810  13.833  0.5262  0.1132  0.1592
 8344TIP3    H146447   2.330   4.846  13.876  0.4406 -0.6190  0.6191
 8344TIP3    H246448   2.458   4.771  13.903 -0.3032 -2.3627 -0.5253
 8345TIP3   OH246449   3.810   0.366   4.775  0.9635  0.1261  0.2282
 8345TIP3    H146450   3.792   0.315   4.854 -1.3242 -1.2144 -1.0624
 8345TIP3    H246451   3.843   0.302   4.712  0.8014  0.7811 -0.5415
 8346TIP3   OH246452   5.305   3.839   2.479 -0.0769 -0.3162 -0.6861
 8346TIP3    H146453   5.364   3.876   2.412 -1.5586  0.5298 -1.5727
 8346TIP3    H246454   5.307   3.745   2.462  1.4088 -0.3710 -0.3551
 8347TIP3   OH246455   2.996   3.408   6.413  0.3172  0.5349  0.2416
 8347TIP3    H146456   2.928   3.466   6.447  1.1857  1.2430  0.7999
 8347TIP3    H246457   3.071   3.423   6.470  0.7523 -0.6989  0.0172
 8348TIP3   OH246458   4.943   1.695  15.290  0.0722  0.2161  0.3307
 8348TIP3    H146459   5.035   1.669  15.290 -0.0719 -0.5644 -2.1600
 8348TIP3    H246460   4.943   1.784  15.255 -0.1536  0.0045 -0.2167
 8349TIP3   OH246461   6.415   6.529   1.343 -0.0356  0.3326 -0.2204
 8349TIP3    H146462   6.325   6.558   1.324  0.2025  1.8052  0.7648
 8349TIP3    H246463   6.412   6.434   1.330 -1.4540  0.4740 -1.2729
 8350TIP3   OH246464   6.610   0.947   4.785 -0.6750 -0.0432  0.0125
 8350TIP3    H146465   6.527   0.911   4.753 -0.5064 -0.3527 -0.0807
 8350TIP3    H246466   6.610   1.038   4.755  0.3172 -0.8045 -2.5269
 8351TIP3   OH246467   4.501   1.992   1.923  0.3790 -0.4919 -0.5052
 8351TIP3    H146468   4.499   1.995   1.827 -1.2585  0.9782 -0.4703
 8351TIP3    H246469   4.409   1.984   1.949  0.5847  1.3710  0.9597
 8352TIP3   OH246470   3.260   2.797   0.556 -0.2651  0.4326  0.2005
 8352TIP3    H146471   3.257   2.717   0.608 -2.5682 -0.2411 -0.8710
 8352TIP3    H246472   3.353   2.819   0.552  0.9225 -3.8719 -1.9350
 8353TIP3   OH246473   3.268   4.943  14.976  0.1406 -0.3591 -0.0969
 8353TIP3    H146474   3.186   4.966  14.933 -0.3972 -0.4034  0.8712
 8353TIP3    H246475   3.318   4.896  14.910 -0.9829 -1.1220 -0.4309
 8354TIP3   OH246476   2.479   1.699  15.268  0.7536 -0.3799 -0.0111
 8354TIP3    H146477   2.557   1.706  15.323  1.4018 -3.1733 -0.4284
 8354TIP3    H246478   2.514   1.685  15.180 -0.2770  0.8087 -0.6425
 8355TIP3   OH246479   3.743   4.531  13.052  0.3875  0.1765 -0.0483
 8355TIP3    H146480   3.672   4.491  13.102  0.3185 -1.2746 -1.2424
 8355TIP3    H246481   3.749   4.620  13.086 -1.7724  0.2340  0.3209
 8356TIP3   OH246482   5.206   3.766   6.085  0.1813  0.2013  0.0797
 8356TIP3    H146483   5.198   3.685   6.135 -0.4394  0.5301  0.5262
 8356TIP3    H246484   5.220   3.834   6.151 -0.1187  0.5692 -0.2314
 8357TIP3   OH246485   6.452   6.543  11.154  0.1003 -0.3032  0.2033
 8357TIP3    H146486   6.526   6.488  11.182  0.3113 -0.8963 -1.4202
 8357TIP3    H246487   6.441   6.523  11.061 -0.0414  2.1779 -0.3824
 8358TIP3   OH246488   1.473   1.467   3.649 -0.1901 -0.1166  0.5671
 8358TIP3    H146489   1.523   1.413   3.711  2.3170  1.3639 -0.0043
 8358TIP3    H246490   1.497   1.433   3.563  0.6404  1.2069  0.2456
 8359TIP3   OH246491   2.765   4.010   5.458  0.1677 -0.2170 -0.1175
 8359TIP3    H146492   2.695   3.948   5.479 -0.0025 -0.4446 -1.2585
 8359TIP3    H246493   2.722   4.081   5.411  0.5379  0.2146  0.1794
 8360TIP3   OH246494   2.261   4.766   4.898 -0.0073 -0.3776  0.1961
 8360TIP3    H146495   2.263   4.677   4.864  0.6335 -0.1957 -0.2534
 8360TIP3    H246496   2.236   4.757   4.990  0.8457 -1.0822  0.3672
 8361TIP3   OH246497   4.928   3.933  11.071  0.5142  0.1005  0.1139
 8361TIP3    H146498   4.974   3.995  11.014  0.3317  2.3659  2.2443
 8361TIP3    H246499   4.983   3.855  11.071  4.0693  2.3360  1.7953
 8362TIP3   OH246500   1.424   4.414  13.343 -0.3222  0.1424 -0.2656
 8362TIP3    H146501   1.384   4.414  13.256 -0.1075 -0.7335 -0.3740
 8362TIP3    H246502   1.517   4.399  13.326 -0.4096 -0.9391  0.1560
 8363TIP3   OH246503   1.820   2.475   5.313 -0.1251  0.6753  0.4169
 8363TIP3    H146504   1.839   2.393   5.359 -2.6621 -0.5890 -0.6087
 8363TIP3    H246505   1.902   2.497   5.269  0.6240 -1.3487  0.6743
 8364TIP3   OH246506   0.175   2.688  16.125 -0.2337  0.4021  0.1539
 8364TIP3    H146507   0.134   2.699  16.039 -1.3879 -0.1671  0.6108
 8364TIP3    H246508   0.126   2.617  16.166  0.9166  0.0335  0.9253
 8365TIP3   OH246509   1.537   4.209   1.369 -0.1306  0.0499 -0.1668
 8365TIP3    H146510   1.567   4.118   1.368 -1.3423 -0.3593 -0.3085
 8365TIP3    H246511   1.498   4.220   1.456 -1.4918 -0.0905 -0.7296
 8366TIP3   OH246512   1.143   5.319   2.786 -0.6599 -0.2368 -0.0659
 8366TIP3    H146513   1.142   5.408   2.820  2.1439 -0.2694  0.3376
 8366TIP3    H246514   1.170   5.265   2.861  1.6825 -0.8231 -1.2341
 8367TIP3   OH246515   0.018   2.376  14.847  0.1016 -0.3252  0.0572
 8367TIP3    H146516   0.088   2.373  14.782  0.0590 -0.4781  0.0171
 8367TIP3    H246517  -0.049   2.318  14.811 -0.4696  0.5833 -0.4078
 8368TIP3   OH246518   5.090   3.991   5.879  0.3568  0.0965  0.5374
 8368TIP3    H146519   5.026   3.920   5.878  0.6612 -0.2077 -1.3218
 8368TIP3    H246520   5.045   4.064   5.835  1.1043  0.0294 -0.3734
 8369TIP3   OH246521   4.127   5.387   0.885  0.0464  0.3102 -0.5516
 8369TIP3    H146522   4.118   5.481   0.868 -0.9282  0.3071 -0.1392
 8369TIP3    H246523   4.037   5.356   0.897  0.4260 -0.4244  0.6353
 8370TIP3   OH246524   6.557   6.738  10.895 -0.3833 -0.3302  0.1915
 8370TIP3    H146525   6.501   6.812  10.871  0.5905  0.2866 -0.2867
 8370TIP3    H246526   6.509   6.661  10.867 -0.8047  0.2082 -0.6136
 8371TIP3   OH246527   0.886   2.852  12.340 -0.2870 -0.0549  0.1970
 8371TIP3    H146528   0.959   2.889  12.290  0.2669 -0.0958  0.9449
 8371TIP3    H246529   0.821   2.828  12.274  0.3742 -0.0117 -0.4874
 8372TIP3   OH246530   2.898   5.885   3.545 -0.0418  0.6385 -0.1200
 8372TIP3    H146531   2.880   5.958   3.605  0.4562 -0.4058  1.3692
 8372TIP3    H246532   2.900   5.925   3.458  0.7476  2.4811  0.6930
 8373TIP3   OH246533   0.562   5.969   1.799  0.7836 -0.1186 -0.1063
 8373TIP3    H146534   0.594   5.903   1.860 -0.3158 -0.0427  0.5848
 8373TIP3    H246535   0.612   6.048   1.820 -0.0688  0.1048  1.2281
 8374TIP3   OH246536   5.983   6.478   1.442 -0.8428  0.0756  0.3578
 8374TIP3    H146537   5.971   6.402   1.500 -2.6356  1.1958  1.5702
 8374TIP3    H246538   5.982   6.553   1.501 -2.5493  1.2587 -1.0683
 8375TIP3   OH246539   2.094   1.751  10.389  0.1115  0.4199  1.0550
 8375TIP3    H146540   2.128   1.777  10.475  1.4744 -0.2048  0.7247
 8375TIP3    H246541   2.056   1.832  10.353 -3.5314  0.0492  3.5360
 8376TIP3   OH246542   5.286   5.843   4.254 -0.0041  0.0677  0.1920
 8376TIP3    H146543   5.241   5.887   4.182 -1.2385  0.5285  1.1998
 8376TIP3    H246544   5.344   5.780   4.211 -2.7900 -1.7542 -1.2166
 8377TIP3   OH246545   2.218   6.059   3.726  0.0948  0.3861  0.5716
 8377TIP3    H146546   2.265   6.020   3.800  0.0093  0.3742  0.6194
 8377TIP3    H246547   2.126   6.057   3.752  0.2065  1.9828  1.2230
 8378TIP3   OH246548   3.302   0.707  12.607 -0.2150  0.2002 -0.0207
 8378TIP3    H146549   3.384   0.744  12.575 -0.9242  1.9617  0.0810
 8378TIP3    H246550   3.240   0.780  12.605 -1.5742 -0.8778  0.6801
 8379TIP3   OH246551   2.661   3.394   6.555 -0.1077 -0.2002 -0.5926
 8379TIP3    H146552   2.706   3.477   6.538  0.5360 -0.3385  0.3780
 8379TIP3    H246553   2.718   3.347   6.615 -1.5489 -0.3398  0.7679
 8380TIP3   OH246554   6.687   5.688  12.237  0.2652 -0.1613  0.2010
 8380TIP3    H146555   6.646   5.774  12.229  0.5606  0.2229  2.3517
 8380TIP3    H246556   6.682   5.651  12.149 -0.1233  1.9291 -0.7066
 8381TIP3   OH246557   5.561   2.971   2.720 -1.2020  0.0618 -0.1436
 8381TIP3    H146558   5.552   3.027   2.644  0.8320  0.4556 -0.1547
 8381TIP3    H246559   5.506   3.011   2.787  0.0514  2.0079 -0.2105
 8382TIP3   OH246560   4.636   5.164   6.858 -0.1876 -0.1644 -0.3142
 8382TIP3    H146561   4.711   5.153   6.799 -0.3476 -0.5365 -0.4504
 8382TIP3    H246562   4.560   5.146   6.802 -0.3496 -0.3327 -0.0382
 8383TIP3   OH246563   0.085   5.441   4.538 -0.5009  0.2630  0.2510
 8383TIP3    H146564   0.109   5.522   4.582  0.8429  1.1732 -2.0096
 8383TIP3    H246565   0.148   5.376   4.570  1.2929  1.2168 -1.1282
 8384TIP3   OH246566   1.232   4.013  15.448  0.1835  0.6557 -0.1761
 8384TIP3    H146567   1.152   4.065  15.456 -1.1421 -1.3054  0.2010
 8384TIP3    H246568   1.222   3.966  15.365 -1.3414 -2.9641  1.7961
 8385TIP3   OH246569   3.063   2.804   6.275  0.1062  0.0249 -0.6051
 8385TIP3    H146570   3.147   2.764   6.252  0.9024  0.4181  1.4275
 8385TIP3    H246571   2.998   2.744   6.240  1.2450 -1.3445 -0.4660
 8386TIP3   OH246572   3.072   3.689  16.314 -0.0946 -0.3905  0.0901
 8386TIP3    H146573   3.084   3.647  16.400  1.4840  2.1278  1.2140
 8386TIP3    H246574   2.977   3.697  16.305 -0.3646 -2.2227  0.7577
 8387TIP3   OH246575   0.662   4.390   1.072 -0.0519 -0.0977  0.3398
 8387TIP3    H146576   0.751   4.419   1.052  0.6087 -1.3029  1.3301
 8387TIP3    H246577   0.609   4.425   1.001  0.8921  2.1594  0.6527
 8388TIP3   OH246578   6.756   1.787   1.256  0.9404 -0.6236  0.4925
 8388TIP3    H146579   6.715   1.791   1.170  0.5476  1.2561  0.7465
 8388TIP3    H246580   6.798   1.700   1.258  1.6923 -0.3750 -1.9156
 8389TIP3   OH246581   5.762   4.559   3.557 -0.2435 -0.3414  0.7633
 8389TIP3    H146582   5.682   4.507   3.567  0.1160 -0.4978  3.4534
 8389TIP3    H246583   5.829   4.509   3.603  1.4379 -0.1145 -1.2610
 8390TIP3   OH246584   3.885   2.493  12.478 -0.2665  0.3460  0.4420
 8390TIP3    H146585   3.794   2.505  12.507 -0.3884  1.3889 -0.2959
 8390TIP3    H246586   3.894   2.399  12.464 -1.4996  0.3167 -0.3023
 8391TIP3   OH246587   1.505   6.684   1.715  0.0080  0.4455 -0.1587
 8391TIP3    H146588   1.522   6.673   1.808 -1.1018  1.3082  0.1652
 8391TIP3    H246589   1.438   6.618   1.695  2.3870 -1.8545 -1.0721
 8392TIP3   OH246590   4.297   6.018  15.215 -0.0735  0.2333 -0.1090
 8392TIP3    H146591   4.378   6.059  15.187 -0.1377 -0.2204 -0.9928
 8392TIP3    H246592   4.233   6.043  15.149 -0.4231 -0.1964  0.0600
 8393TIP3   OH246593   0.218   2.912  13.066 -0.2248  0.9588  0.6825
 8393TIP3    H146594   0.219   3.006  13.048 -2.6642  0.7122 -1.2882
 8393TIP3    H246595   0.308   2.884  13.054  0.2869  2.7960 -0.1615
 8394TIP3   OH246596   6.644   3.004   1.045  0.1669 -0.4569 -0.1868
 8394TIP3    H146597   6.607   2.916   1.041  0.2241 -0.5069  0.3451
 8394TIP3    H246598   6.567   3.062   1.053  0.1750 -0.5423  0.6322
 8395TIP3   OH246599   6.234   6.681   3.948 -0.5446 -0.8754  0.3958
 8395TIP3    H146600   6.259   6.713   4.034 -1.6095 -2.1520  1.2100
 8395TIP3    H246601   6.198   6.758   3.903  0.7932 -0.0053  0.7381
 8396TIP3   OH246602   0.475   2.331   0.184  0.4988 -0.0822  0.0412
 8396TIP3    H146603   0.387   2.296   0.176  0.5385 -0.6043  1.5326
 8396TIP3    H246604   0.524   2.291   0.112 -0.2859 -0.4141 -0.3122
 8397TIP3   OH246605   6.576   6.629   3.104 -0.2310  0.0094 -0.3172
 8397TIP3    H146606   6.643   6.694   3.124 -0.8078  0.3505  0.5619
 8397TIP3    H246607   6.494   6.679   3.103 -0.7273 -0.7380  0.7233
 8398TIP3   OH246608   2.440   4.240  15.413  0.3306  0.0307  0.3090
 8398TIP3    H146609   2.395   4.290  15.345 -0.8242 -1.3719 -0.0001
 8398TIP3    H246610   2.382   4.245  15.489  1.4062  1.2204  1.1054
 8399TIP3   OH246611   5.297   5.191   1.187 -0.1209 -0.1816  0.2563
 8399TIP3    H146612   5.345   5.121   1.143  0.7243  1.3948 -1.4693
 8399TIP3    H246613   5.364   5.239   1.236 -0.3563  0.5087 -0.0864
 8400TIP3   OH246614   6.112   6.039  12.395 -0.3127  0.0627 -0.5437
 8400TIP3    H146615   6.150   6.100  12.459 -1.0565 -0.1219  0.1001
 8400TIP3    H246616   6.082   6.095  12.323 -3.6629  0.9567  1.2915
 8401TIP3   OH246617   4.705   0.531  11.824  0.1806 -0.5490  0.5189
 8401TIP3    H146618   4.791   0.494  11.804 -0.0135 -1.2058  0.8821
 8401TIP3    H246619   4.655   0.521  11.742  0.4095 -0.2676  0.3415
 8402TIP3   OH246620   5.762   4.030  12.757  0.1925 -0.1693  0.0437
 8402TIP3    H146621   5.688   3.971  12.772  1.5293 -2.7803 -2.6732
 8402TIP3    H246622   5.734   4.086  12.684 -0.5942  1.9008  1.8096
 8403TIP3   OH246623   6.226   4.943   2.396 -0.5620  0.5236 -0.6056
 8403TIP3    H146624   6.154   4.880   2.393 -1.3448  1.4230 -1.0204
 8403TIP3    H246625   6.200   5.013   2.337  0.3183  1.2223 -0.1970
 8404TIP3   OH246626   0.035   5.950   1.027  0.3537  0.5178 -0.2536
 8404TIP3    H146627   0.092   5.964   0.952  2.2207 -0.2135  0.9414
 8404TIP3    H246628   0.094   5.952   1.103 -0.8638 -2.1453  0.9044
 8405TIP3   OH246629   5.046   0.822   3.022 -0.1205  0.2063  0.1216
 8405TIP3    H146630   4.985   0.852   2.954 -0.5120 -0.6067  0.0977
 8405TIP3    H246631   5.003   0.844   3.105  0.6442  1.7754  0.1364
 8406TIP3   OH246632   3.707   1.505  15.055 -0.0257 -0.9092  0.3409
 8406TIP3    H146633   3.657   1.434  15.095  1.6986 -1.3865  1.7896
 8406TIP3    H246634   3.725   1.474  14.966 -3.4547 -0.0745 -0.7860
 8407TIP3   OH246635   4.280   4.476   5.302 -0.2755  0.0744 -0.6632
 8407TIP3    H146636   4.317   4.514   5.222 -0.1082 -0.6538 -0.9397
 8407TIP3    H246637   4.346   4.414   5.332 -1.6882 -2.0543 -1.7543
 8408TIP3   OH246638   4.765   5.479  14.959 -0.1412  0.1279 -0.1090
 8408TIP3    H146639   4.797   5.390  14.972  0.5678  0.3494 -0.2735
 8408TIP3    H246640   4.670   5.470  14.957 -0.1106 -0.5095  0.7082
 8409TIP3   OH246641   2.081   3.040   2.860 -0.1128  0.6901  0.3806
 8409TIP3    H146642   2.147   2.982   2.823  0.3449  1.5294 -0.1653
 8409TIP3    H246643   2.020   2.982   2.904 -0.2205 -0.3046 -0.9993
 8410TIP3   OH246644   1.343   4.848  15.814 -0.4105  0.7001  0.1256
 8410TIP3    H146645   1.307   4.784  15.875 -1.0990 -0.0807 -1.0661
 8410TIP3    H246646   1.427   4.873  15.853 -0.0982 -0.9542  0.5930
 8411TIP3   OH246647   1.253   3.579   1.807  0.4000  0.1591 -0.0378
 8411TIP3    H146648   1.249   3.671   1.835  1.5665 -0.5320  2.7664
 8411TIP3    H246649   1.338   3.571   1.764  0.0653  0.4907 -0.7741
 8412TIP3   OH246650   2.816   0.993  15.003 -0.0614  0.3039  0.1649
 8412TIP3    H146651   2.884   0.936  14.967  0.0306 -0.1578  1.0370
 8412TIP3    H246652   2.753   0.933  15.043 -0.0237  0.7926  0.9859
 8413TIP3   OH246653   2.632   6.448  16.030 -0.0936  0.5964  0.4545
 8413TIP3    H146654   2.714   6.413  15.995  0.1772  1.3453  0.3166
 8413TIP3    H246655   2.613   6.392  16.105  1.2223  1.1771  1.2653
 8414TIP3   OH246656   5.129   0.697   5.831 -0.1767 -0.0651  0.0432
 8414TIP3    H146657   5.207   0.712   5.885  0.7109 -0.7205 -1.0057
 8414TIP3    H246658   5.081   0.628   5.877  0.0501  0.0871  0.5103
 8415TIP3   OH246659   2.713   4.092  16.747 -0.4379 -0.6455 -0.4827
 8415TIP3    H146660   2.770   4.064  16.818 -0.2460  1.2191  0.1479
 8415TIP3    H246661   2.625   4.087  16.784 -0.3242  0.5030 -0.0084
 8416TIP3   OH246662   4.621   1.425   3.868 -0.1627  0.4523  0.1753
 8416TIP3    H146663   4.693   1.476   3.907 -0.6612 -0.0979  1.8969
 8416TIP3    H246664   4.643   1.421   3.775  0.7719  2.3488  0.2638
 8417TIP3   OH246665   1.264   0.887  11.405 -0.0359  0.1642 -0.3983
 8417TIP3    H146666   1.349   0.920  11.376 -0.5734  1.6795 -0.3938
 8417TIP3    H246667   1.220   0.860  11.324  0.3582 -0.4218 -0.4224
 8418TIP3   OH246668   2.862   6.617   3.183  0.1634 -0.3133  0.3591
 8418TIP3    H146669   2.930   6.651   3.240  2.2334 -1.5297 -1.2539
 8418TIP3    H246670   2.853   6.525   3.208 -0.5539 -0.2918  0.2146
 8419TIP3   OH246671   3.327   4.203  11.769  0.4876  0.1162 -0.1227
 8419TIP3    H146672   3.400   4.167  11.719  1.2215  0.0459  0.9565
 8419TIP3    H246673   3.366   4.272  11.823 -0.0042 -0.6903  1.3232
 8420TIP3   OH246674   6.655   0.921   2.403 -0.2066 -0.2293 -0.3944
 8420TIP3    H146675   6.663   0.829   2.377 -0.6078 -0.2225 -0.5435
 8420TIP3    H246676   6.707   0.969   2.337 -1.6929 -0.1562 -1.5763
 8421TIP3   OH246677   5.110   0.198  12.378 -0.1357 -0.2213  0.1843
 8421TIP3    H146678   5.099   0.284  12.418  0.8656 -0.4055  0.9014
 8421TIP3    H246679   5.038   0.146  12.412  0.8716 -0.4615  2.0171
 8422TIP3   OH246680   3.350   5.550   1.887  0.0069  0.0984  0.3860
 8422TIP3    H146681   3.410   5.583   1.954 -0.3828  0.7625  0.4201
 8422TIP3    H246682   3.264   5.549   1.930  0.2970 -3.2341  1.1755
 8423TIP3   OH246683   5.757   0.706  16.613 -0.7331 -0.4765 -0.1453
 8423TIP3    H146684   5.722   0.618  16.628 -0.7305 -0.5220 -0.4059
 8423TIP3    H246685   5.839   0.693  16.566  0.6943 -0.4732  2.2016
 8424TIP3   OH246686   6.066   0.420  12.987 -0.7927 -0.6220 -0.0008
 8424TIP3    H146687   5.973   0.423  13.007 -0.9413 -0.5758 -0.6844
 8424TIP3    H246688   6.100   0.504  13.018 -0.7580 -1.0627  1.2408
 8425TIP3   OH246689   2.199   0.764  13.081  0.4439  0.1264 -0.9650
 8425TIP3    H146690   2.160   0.682  13.112 -1.2707  0.5647 -1.8036
 8425TIP3    H246691   2.264   0.736  13.016  1.2851 -0.6178  0.1530
 8426TIP3   OH246692   2.283   2.971  11.450 -0.0513  0.4249 -0.1219
 8426TIP3    H146693   2.276   2.944  11.358 -1.2149  0.9234 -0.2019
 8426TIP3    H246694   2.229   3.049  11.456  0.8128  0.9739  0.7847
 8427TIP3   OH246695   0.850   5.998  11.233 -0.0892  0.3717  0.4346
 8427TIP3    H146696   0.857   6.062  11.162  1.5171  0.5987  0.7386
 8427TIP3    H246697   0.789   6.037  11.295  0.7024  1.5547  0.5144
 8428TIP3   OH246698   5.377   1.469  13.587  0.6639 -0.2135  0.4202
 8428TIP3    H146699   5.341   1.464  13.499 -0.0292  2.1097  0.4997
 8428TIP3    H246700   5.305   1.446  13.644  0.5845  0.0712  0.4354
 8429TIP3   OH246701   3.471   0.678  12.103  0.3852  0.4650 -0.1656
 8429TIP3    H146702   3.419   0.733  12.162  4.3981  2.6931  1.6940
 8429TIP3    H246703   3.524   0.623  12.161 -0.3027 -2.3393 -1.9628
 8430TIP3   OH246704   1.089   3.180   4.752  0.0244 -0.0239  0.2480
 8430TIP3    H146705   1.090   3.176   4.848  0.2205 -0.2133  0.2387
 8430TIP3    H246706   1.025   3.113   4.726 -0.2766  0.2599  0.2581
 8431TIP3   OH246707   3.271   0.776  14.876  0.6678 -0.2471  0.8160
 8431TIP3    H146708   3.227   0.695  14.901  0.1630 -0.0507  0.5748
 8431TIP3    H246709   3.274   0.773  14.780  0.2975  0.2013  0.7880
 8432TIP3   OH246710   0.441   6.169   3.828  0.3775  0.0578 -0.2009
 8432TIP3    H146711   0.483   6.237   3.881  0.5511  1.2199 -1.7553
 8432TIP3    H246712   0.509   6.142   3.766 -0.3836  0.1412 -1.1004
 8433TIP3   OH246713   3.344   3.752   5.135  0.2424 -0.7902  0.4111
 8433TIP3    H146714   3.380   3.668   5.103  1.1706  0.0400 -0.8262
 8433TIP3    H246715   3.396   3.771   5.213  0.2466 -1.1996  0.5148
 8434TIP3   OH246716   1.846   3.664   4.733  0.0316 -0.2883 -0.6246
 8434TIP3    H146717   1.865   3.662   4.827  0.8266  1.0542 -0.7335
 8434TIP3    H246718   1.795   3.744   4.721  1.2600  0.3831 -1.5501
 8435TIP3   OH246719   1.150   2.473  15.752  0.3088 -0.1250  0.3631
 8435TIP3    H146720   1.175   2.385  15.725  0.6578  0.1074 -0.0825
 8435TIP3    H246721   1.213   2.495  15.821 -0.2358 -0.5034  0.9889
 8436TIP3   OH246722   3.141   6.029  13.849 -0.2673  0.1720 -0.1644
 8436TIP3    H146723   3.202   5.965  13.886 -1.1859  0.2214  1.5514
 8436TIP3    H246724   3.176   6.048  13.763  1.4002 -0.7983  0.2468
 8437TIP3   OH246725   3.832   3.945   3.742 -0.3191 -0.5040  0.4424
 8437TIP3    H146726   3.820   3.939   3.647  3.6144  0.4036 -0.3004
 8437TIP3    H246727   3.845   4.039   3.758  1.5502 -0.8904  1.4292
 8438TIP3   OH246728   5.901   6.387   2.588  0.0618  0.3891  0.4019
 8438TIP3    H146729   5.867   6.308   2.631  2.7701 -0.8583  0.4389
 8438TIP3    H246730   5.869   6.459   2.642 -2.2976 -0.6191  0.5006
 8439TIP3   OH246731   3.071   0.126  14.689 -0.2019 -0.2025  0.8929
 8439TIP3    H146732   3.083   0.154  14.780 -0.2362 -0.1526  0.8819
 8439TIP3    H246733   3.077   0.030  14.693 -1.6212 -0.3048  1.1564
 8440TIP3   OH246734   5.355   1.449  16.740  0.2693 -0.0688 -0.3227
 8440TIP3    H146735   5.370   1.503  16.817 -0.5306 -0.2254 -0.0577
 8440TIP3    H246736   5.376   1.359  16.768  0.2445 -0.0907 -0.3720
 8441TIP3   OH246737   0.299   6.302   5.400 -0.0828  0.7776 -0.3417
 8441TIP3    H146738   0.378   6.345   5.366 -1.3886  2.3201 -1.5337
 8441TIP3    H246739   0.251   6.371   5.445 -1.8825  0.4727 -1.6680
 8442TIP3   OH246740   1.453   1.220   4.845  0.6317 -0.1225 -0.1315
 8442TIP3    H146741   1.433   1.294   4.788 -1.6541  0.1677  0.9146
 8442TIP3    H246742   1.399   1.148   4.811 -0.7279  0.0403  1.5247
 8443TIP3   OH246743   2.768   3.114   2.384 -0.1866  0.0834  0.0196
 8443TIP3    H146744   2.764   3.137   2.477 -0.0541  0.4148 -0.0542
 8443TIP3    H246745   2.744   3.195   2.338 -0.3438 -0.1045 -0.2323
 8444TIP3   OH246746   6.172   3.276   5.689 -0.4055  0.2724  0.0393
 8444TIP3    H146747   6.123   3.200   5.656  1.2332 -0.9548  0.3085
 8444TIP3    H246748   6.150   3.280   5.782 -0.9101  0.4788 -0.0837
 8445TIP3   OH246749   4.710   0.958  16.060 -0.3488 -0.3277  0.1930
 8445TIP3    H146750   4.640   0.938  15.997 -0.1213  0.1021 -0.2067
 8445TIP3    H246751   4.740   1.045  16.034  0.4314 -0.5662  0.2814
 8446TIP3   OH246752   5.773   3.672  11.469 -0.3596  0.1102  0.2649
 8446TIP3    H146753   5.846   3.635  11.519 -1.0379 -0.1562  1.0826
 8446TIP3    H246754   5.697   3.623  11.499 -0.5139 -1.8359 -2.7805
 8447TIP3   OH246755   0.534   4.265  14.508  0.7164  0.2457  0.4991
 8447TIP3    H146756   0.517   4.172  14.502 -1.4053  0.4993  1.7040
 8447TIP3    H246757   0.605   4.273  14.572  2.2944 -0.5926 -1.0670
 8448TIP3   OH246758   2.217   5.380   1.492 -0.4423  0.3254 -0.3493
 8448TIP3    H146759   2.298   5.351   1.452 -1.2558 -1.3178 -0.8825
 8448TIP3    H246760   2.149   5.353   1.430 -1.4824  0.6635  0.6086
 8449TIP3   OH246761   2.538   3.637  13.240  0.1303 -0.5611 -0.7364
 8449TIP3    H146762   2.585   3.554  13.250  1.2297  0.2485  1.3767
 8449TIP3    H246763   2.544   3.679  13.326 -0.2923  1.7794 -1.7787
 8450TIP3   OH246764   5.408   3.634  14.536  0.1195 -0.2025  0.3563
 8450TIP3    H146765   5.445   3.695  14.599 -0.5279 -0.4264  0.9626
 8450TIP3    H246766   5.469   3.636  14.462  0.6187  0.4357  0.7771
 8451TIP3   OH246767   0.836   0.189  11.709 -0.3340 -0.5053 -0.2668
 8451TIP3    H146768   0.803   0.226  11.791 -1.2227 -0.1916 -0.7564
 8451TIP3    H246769   0.804   0.099  11.708 -0.9009 -0.3037 -0.5826
 8452TIP3   OH246770   0.747   6.369  12.460  0.6693 -0.1754 -0.0820
 8452TIP3    H146771   0.729   6.302  12.525  3.8264 -1.2788 -0.1615
 8452TIP3    H246772   0.842   6.367  12.449  0.5665  2.0865 -2.4960
 8453TIP3   OH246773   5.198   0.412   6.072  0.4597  0.0051  0.0645
 8453TIP3    H146774   5.171   0.354   6.143 -0.1168  1.7314  1.3136
 8453TIP3    H246775   5.273   0.460   6.107 -0.5164  1.6757 -0.0320
 8454TIP3   OH246776   2.805   3.209  12.383  0.3131 -0.6379 -0.1393
 8454TIP3    H146777   2.886   3.190  12.429 -0.0966 -1.2602  0.3385
 8454TIP3    H246778   2.739   3.156  12.427 -0.1021 -1.2221 -1.3994
 8455TIP3   OH246779   4.245   0.286  12.047 -0.0983 -0.0950 -0.5980
 8455TIP3    H146780   4.331   0.260  12.079 -0.6049 -1.0034  0.0916
 8455TIP3    H246781   4.210   0.208  12.004  0.1352  0.8005 -2.5025
 8456TIP3   OH246782   1.499   2.016  16.775 -0.3073  0.1126 -0.2166
 8456TIP3    H146783   1.453   1.932  16.785  1.4893 -0.7558  1.3542
 8456TIP3    H246784   1.575   1.996  16.722 -0.3692  0.9844 -0.6528
 8457TIP3   OH246785   6.501   1.087   1.848 -0.5409  0.1260  0.6089
 8457TIP3    H146786   6.464   1.076   1.935 -0.6483  0.9887  0.6804
 8457TIP3    H246787   6.489   1.002   1.806 -3.1242  0.5083  0.4097
 8458TIP3   OH246788   3.036   1.199   3.076  0.3300 -0.0554 -0.2899
 8458TIP3    H146789   2.958   1.234   3.120  0.0440 -1.4050  0.3225
 8458TIP3    H246790   3.001   1.144   3.006  0.7733  0.8425 -1.2477
 8459TIP3   OH246791   4.086   6.404  11.941 -0.2125  0.4696  0.3251
 8459TIP3    H146792   4.170   6.397  11.986 -0.4723  1.4194  0.9712
 8459TIP3    H246793   4.106   6.383  11.850  0.6310  0.2066  0.5659
 8460TIP3   OH246794   0.211   1.427  11.940  0.1352  0.0812  0.2483
 8460TIP3    H146795   0.256   1.461  11.863  1.4599 -1.7631  0.1274
 8460TIP3    H246796   0.133   1.482  11.950  1.0416  1.6910 -1.1319
 8461TIP3   OH246797   5.943   3.834  14.425  0.0572  0.4712  0.0953
 8461TIP3    H146798   6.038   3.827  14.436  0.3529  1.3950 -1.5375
 8461TIP3    H246799   5.932   3.888  14.347 -1.8283  0.6065  0.4107
 8462TIP3   OH246800   0.544   4.951  12.830  0.2735  0.0228 -0.1457
 8462TIP3    H146801   0.594   4.989  12.759 -0.2308  0.7241 -0.1386
 8462TIP3    H246802   0.471   4.906  12.787  0.7935 -0.8330 -0.1468
 8463TIP3   OH246803   4.756   3.795  15.740  0.2294  0.4136 -0.3208
 8463TIP3    H146804   4.738   3.882  15.774 -1.4189 -0.5671  1.5366
 8463TIP3    H246805   4.734   3.800  15.647  0.0212  1.9234 -0.2130
 8464TIP3   OH246806   5.775   3.842   4.964 -0.2329 -0.0854  0.2822
 8464TIP3    H146807   5.834   3.915   4.944  0.4395 -0.2243  1.6598
 8464TIP3    H246808   5.762   3.847   5.059  0.0758 -1.9317  0.4606
 8465TIP3   OH246809   2.768   2.002   3.344  0.3028 -0.2770 -0.2187
 8465TIP3    H146810   2.795   1.972   3.257 -0.2702  2.1648 -1.3532
 8465TIP3    H246811   2.699   2.066   3.326  0.9906  1.1797  1.9252
 8466TIP3   OH246812   0.836   5.417   0.264 -0.3025 -0.1841  0.2984
 8466TIP3    H146813   0.746   5.444   0.246  0.3776  0.0658 -3.6423
 8466TIP3    H246814   0.839   5.325   0.235  1.0196  0.3067 -1.2830
 8467TIP3   OH246815   5.283   3.725   1.275  0.0065  0.1602  0.1392
 8467TIP3    H146816   5.232   3.655   1.235  2.2160 -1.8292  0.5431
 8467TIP3    H246817   5.364   3.728   1.224 -0.2777  2.9658 -0.2966
 8468TIP3   OH246818   0.428   4.162  16.417  0.1860  0.1357 -0.6376
 8468TIP3    H146819   0.437   4.162  16.322  1.2042 -0.8740 -0.5537
 8468TIP3    H246820   0.447   4.252  16.443 -0.6655  0.5548 -1.4274
 8469TIP3   OH246821   4.026   0.923   3.796  0.2166  0.3871  0.0234
 8469TIP3    H146822   4.042   0.864   3.722 -0.0676  0.2250  0.0900
 8469TIP3    H246823   4.012   0.864   3.870 -1.0065  0.5096 -0.0934
 8470TIP3   OH246824   4.451   1.333   4.045  0.1018 -0.0262 -0.5621
 8470TIP3    H146825   4.527   1.352   3.990  1.2058 -0.2894  0.8080
 8470TIP3    H246826   4.482   1.266   4.107 -1.5923 -1.0179 -0.7066
 8471TIP3   OH246827   1.203   6.615  13.186 -0.0383 -0.0807 -0.4741
 8471TIP3    H146828   1.283   6.666  13.184  0.2322 -0.5140 -0.7964
 8471TIP3    H246829   1.228   6.529  13.153  0.1745 -1.3725  2.6514
 8472TIP3   OH246830   1.275   4.121  11.739  0.5770  0.3472  0.0184
 8472TIP3    H146831   1.311   4.033  11.752  0.9362  0.0833 -2.3578
 8472TIP3    H246832   1.193   4.106  11.692  0.5098  1.2722 -0.1695
 8473TIP3   OH246833   4.705   2.748  16.389  0.4179  0.0904 -0.2408
 8473TIP3    H146834   4.752   2.808  16.331  0.6116 -0.4116 -0.6082
 8473TIP3    H246835   4.623   2.730  16.343 -0.2686  1.1729  0.5203
 8474TIP3   OH246836   2.139   1.934  16.622 -0.3141 -0.3921 -0.3166
 8474TIP3    H146837   2.059   1.910  16.669  0.6500 -1.5316  0.7930
 8474TIP3    H246838   2.132   1.890  16.537 -0.8302 -0.5103 -0.2158
 8475TIP3   OH246839   1.217   1.024   2.373  0.1162  0.4518 -0.2327
 8475TIP3    H146840   1.296   1.061   2.414  0.5616  1.3617 -1.8197
 8475TIP3    H246841   1.187   1.092   2.313 -1.5938 -0.1027 -0.0463
 8476TIP3   OH246842   6.439   4.054  16.776  0.1356 -0.0651  0.1094
 8476TIP3    H146843   6.509   4.003  16.815  2.3059  1.9238 -0.9583
 8476TIP3    H246844   6.464   4.064  16.685  0.1965  3.3584  0.3831
 8477TIP3   OH246845   1.072   6.015  13.290 -0.1991 -0.0454 -0.2642
 8477TIP3    H146846   0.979   5.996  13.301 -0.0572 -0.9090 -0.4869
 8477TIP3    H246847   1.074   6.094  13.237 -0.8097 -0.3293 -0.7195
 8478TIP3   OH246848   3.078   3.180   2.405 -0.2120  0.2023 -0.2535
 8478TIP3    H146849   3.113   3.247   2.346  0.5537  0.2983  0.2999
 8478TIP3    H246850   3.093   3.215   2.493 -0.7148 -0.2501  0.0174
 8479TIP3   OH246851   0.056   6.488  11.367  0.1839  0.1511  0.7499
 8479TIP3    H146852  -0.023   6.461  11.319  0.3315  0.3364  0.4027
 8479TIP3    H246853   0.115   6.413  11.359  1.7525  1.5328 -2.6939
 8480TIP3   OH246854   2.476   2.279   5.008  0.0908  0.0432 -0.1393
 8480TIP3    H146855   2.507   2.204   5.058  0.4423  0.5201  0.3781
 8480TIP3    H246856   2.448   2.342   5.075  2.5308  1.5504 -0.4272
 8481TIP3   OH246857   3.118   5.804   4.737  0.6417 -0.0994 -0.0273
 8481TIP3    H146858   3.174   5.791   4.814 -0.2320 -0.8997  0.4909
 8481TIP3    H246859   3.125   5.722   4.688  0.3439 -0.0000 -0.2418
 8482TIP3   OH246860   1.225   6.745   4.178 -0.1582  0.0259  0.3523
 8482TIP3    H146861   1.174   6.666   4.193 -0.1699  0.1797  1.1435
 8482TIP3    H246862   1.300   6.737   4.237 -0.0394  0.4939  0.2708
 8483TIP3   OH246863   4.787   3.506   2.942 -0.0385  0.5842 -0.1510
 8483TIP3    H146864   4.708   3.453   2.929 -0.4986  0.7855  1.5591
 8483TIP3    H246865   4.840   3.489   2.865  0.6237 -3.7340  0.9739
 8484TIP3   OH246866   5.923   0.525   5.314 -0.8521 -0.2428 -0.4438
 8484TIP3    H146867   5.835   0.509   5.349 -0.5256 -1.6888 -0.2173
 8484TIP3    H246868   5.982   0.486   5.379  0.1519  3.1666  0.8639
 8485TIP3   OH246869   1.218   4.057   5.014 -0.4173 -0.1186 -0.4855
 8485TIP3    H146870   1.236   4.147   4.987 -0.4602 -0.5577 -2.0560
 8485TIP3    H246871   1.300   4.026   5.052 -1.0779  1.3411  2.4189
 8486TIP3   OH246872   3.309   1.557   1.099 -0.1090  0.1088  0.1926
 8486TIP3    H146873   3.288   1.630   1.042  0.7936 -0.7658 -1.3456
 8486TIP3    H246874   3.257   1.484   1.065  0.1920 -0.3469  0.6847
 8487TIP3   OH246875   2.814   4.372  16.773 -0.4125  0.2311  0.1483
 8487TIP3    H146876   2.903   4.365  16.808 -1.3660  0.8243  2.9402
 8487TIP3    H246877   2.785   4.281  16.764  0.2496  0.0481 -0.2371
 8488TIP3   OH246878   0.940   4.457   5.541  0.4094  0.2636 -0.2670
 8488TIP3    H146879   0.945   4.414   5.455  0.9037  1.0521 -0.6430
 8488TIP3    H246880   1.023   4.505   5.549 -0.1483  1.1906  0.1158
 8489TIP3   OH246881   0.063   1.497   0.890  0.2117  0.0661  0.2184
 8489TIP3    H146882   0.033   1.411   0.861  3.3334 -1.6120  1.4481
 8489TIP3    H246883   0.022   1.508   0.976 -0.1844 -0.1899  0.0663
 8490TIP3   OH246884   1.112   1.305   4.236 -0.3493  0.4616 -0.4021
 8490TIP3    H146885   1.191   1.253   4.222 -0.4700  0.0069  0.5232
 8490TIP3    H246886   1.076   1.318   4.148  0.4140  0.1465 -0.7722
 8491TIP3   OH246887   5.834   0.245   1.934 -0.1460  0.0863  0.7351
 8491TIP3    H146888   5.874   0.274   1.852 -1.0760 -2.2587 -0.6340
 8491TIP3    H246889   5.891   0.279   2.003  0.5995  2.2232 -0.8452
 8492TIP3   OH246890   1.031   1.073  10.550  0.1003  0.6806  0.0338
 8492TIP3    H146891   0.960   1.040  10.604  0.6726 -0.5031  0.1008
 8492TIP3    H246892   0.991   1.088  10.464 -0.4500  1.0171  0.3440
 8493TIP3   OH246893   1.177   1.834   0.015 -0.0235 -0.7756 -0.2959
 8493TIP3    H146894   1.154   1.874   0.099  0.2569 -0.0003 -0.5813
 8493TIP3    H246895   1.208   1.907  -0.039 -0.6917 -1.1670 -1.2489
 8494TIP3   OH246896   3.036   3.954   0.607 -0.2785 -0.9323  0.3787
 8494TIP3    H146897   3.003   3.938   0.695  0.6868 -1.6058  0.6375
 8494TIP3    H246898   3.082   3.874   0.583  1.2023 -0.0403  0.0805
 8495TIP3   OH246899   6.408   4.456   5.792 -0.0255 -0.3816  0.0496
 8495TIP3    H146900   6.473   4.448   5.722  2.4880  0.0331  2.2264
 8495TIP3    H246901   6.428   4.539   5.835 -2.5847  0.1965  0.3130
 8496TIP3   OH246902   6.393   0.787  13.146 -0.0749 -0.5767 -0.1131
 8496TIP3    H146903   6.469   0.730  13.150 -1.3424 -2.3979 -0.8028
 8496TIP3    H246904   6.427   0.870  13.113  2.1911 -0.1639  2.8442
 8497TIP3   OH246905   4.055   4.298   0.778  0.2419  0.6139  0.2679
 8497TIP3    H146906   4.050   4.310   0.683  0.6895 -1.3476 -0.0353
 8497TIP3    H246907   4.143   4.326   0.801  0.9971 -1.1556 -0.3033
 8498TIP3   OH246908   3.470   6.098  14.443  0.4133 -0.0601  0.0287
 8498TIP3    H146909   3.483   6.173  14.500  0.1325 -2.4037  3.4961
 8498TIP3    H246910   3.545   6.041  14.460 -0.3639 -1.4539 -0.9308
 8499TIP3   OH246911   5.450   4.308   1.265  0.5770  0.3398  0.7182
 8499TIP3    H146912   5.459   4.394   1.308 -1.9089  0.6329  0.7611
 8499TIP3    H246913   5.360   4.306   1.234  0.8472 -1.9349 -0.0762
 8500TIP3   OH246914   2.045   5.281   6.147 -0.1437  1.0036  0.2128
 8500TIP3    H146915   1.972   5.289   6.086 -0.4393 -0.6011  0.3169
 8500TIP3    H246916   2.035   5.356   6.206 -1.1450  1.3263 -0.3442
 8501TIP3   OH246917   4.680   4.666  14.569 -0.1711 -0.3927 -0.0944
 8501TIP3    H146918   4.768   4.702  14.579 -0.0817 -0.4816 -0.5370
 8501TIP3    H246919   4.672   4.647  14.476 -0.2199 -1.5097  0.1253
 8502TIP3   OH246920   6.223   5.910   0.999  0.2544  0.4997  0.3131
 8502TIP3    H146921   6.146   5.957   0.968  0.9053  1.8784  0.7213
 8502TIP3    H246922   6.291   5.977   1.008  1.4244 -0.6255  0.2635
 8503TIP3   OH246923   4.719   1.651   5.254  0.2590 -0.1258  0.1305
 8503TIP3    H146924   4.692   1.651   5.162 -1.5007 -1.6559  0.5958
 8503TIP3    H246925   4.767   1.733   5.264  0.6608 -0.0023 -2.1831
 8504TIP3   OH246926   0.127   5.695   0.846 -0.0344  0.3749 -0.2446
 8504TIP3    H146927   0.091   5.754   0.780 -0.7507  0.9448  0.6297
 8504TIP3    H246928   0.061   5.694   0.916  1.1074  0.5227  0.8846
 8505TIP3   OH246929   5.958   4.311  12.312 -0.2697  0.3642 -0.5737
 8505TIP3    H146930   5.979   4.311  12.406  0.2331 -0.5323 -0.6718
 8505TIP3    H246931   5.920   4.397  12.296  1.4196  1.2624  0.0384
 8506TIP3   OH246932   3.310   5.865   5.519 -0.1487 -0.1453  0.1696
 8506TIP3    H146933   3.346   5.833   5.437  0.8750 -1.4196  1.0819
 8506TIP3    H246934   3.251   5.936   5.493  0.9842  0.2269 -1.5750
 8507TIP3   OH246935   4.867   5.351  10.956  0.0510  0.2254  0.7161
 8507TIP3    H146936   4.902   5.440  10.947  0.2166  0.4058  2.5926
 8507TIP3    H246937   4.808   5.340  10.882  0.8204  1.5086 -0.1294
 8508TIP3   OH246938   4.639   4.184  12.163 -0.1228 -0.2396  0.1704
 8508TIP3    H146939   4.659   4.133  12.241 -1.1563 -2.0142 -0.6769
 8508TIP3    H246940   4.653   4.124  12.090  0.0177  1.1316 -0.9817
 8509TIP3   OH246941   0.105   3.018  14.807 -0.1396 -0.1867  0.2188
 8509TIP3    H146942   0.132   3.046  14.719  0.6387  1.5932  0.9737
 8509TIP3    H246943   0.016   3.052  14.817  0.1415  0.4895  0.4724
 8510TIP3   OH246944   1.665   5.627  16.007 -0.7036  0.3546 -0.0809
 8510TIP3    H146945   1.626   5.713  15.988 -2.0586 -0.4330 -0.9967
 8510TIP3    H246946   1.596   5.579  16.051 -0.6577 -0.9604 -1.3949
 8511TIP3   OH246947   4.791   1.299   2.954 -0.3140  0.3564  0.2894
 8511TIP3    H146948   4.782   1.217   3.003 -2.6548  0.0816 -0.4489
 8511TIP3    H246949   4.820   1.272   2.867 -1.9278  0.1487 -0.2240
 8512TIP3   OH246950   6.202   4.631  15.058 -0.3238 -0.3697  0.2024
 8512TIP3    H146951   6.251   4.569  15.005  1.6808  0.8565  0.5040
 8512TIP3    H246952   6.147   4.679  14.996  1.1788  0.3091 -0.6471
 8513TIP3   OH246953   5.829   2.973  12.217  0.6260 -0.0364  0.2953
 8513TIP3    H146954   5.736   2.978  12.195  0.8314  1.3998 -0.3867
 8513TIP3    H246955   5.842   3.041  12.284  1.2942  0.1882 -0.0521
 8514TIP3   OH246956   3.332   0.876   3.212  0.8178 -0.5649  0.3087
 8514TIP3    H146957   3.271   0.853   3.282 -0.8409 -0.2887 -0.9926
 8514TIP3    H246958   3.378   0.794   3.192 -1.5021 -1.6550 -0.9196
 8515TIP3   OH246959   3.569   5.614   1.688  0.3687  0.2891 -0.4917
 8515TIP3    H146960   3.501   5.600   1.754  1.9853  0.0709  1.2332
 8515TIP3    H246961   3.559   5.705   1.661 -1.3001 -0.0593 -1.1437
 8516TIP3   OH246962   3.015   0.440  10.127  0.6108  0.4628 -0.2257
 8516TIP3    H146963   3.106   0.461  10.144  1.1623 -0.9479 -1.2291
 8516TIP3    H246964   2.979   0.518  10.085  2.0028  0.2173 -1.9470
 8517TIP3   OH246965   1.701   4.555   3.701  0.2576 -0.7434 -0.0349
 8517TIP3    H146966   1.665   4.559   3.790  0.0384  1.3354 -0.1687
 8517TIP3    H246967   1.721   4.462   3.688  0.6663 -1.0620  2.3154
 8518TIP3   OH246968   2.479   3.162  15.588  0.6824  0.0645 -0.0035
 8518TIP3    H146969   2.436   3.245  15.608  0.6797  0.0696 -0.0296
 8518TIP3    H246970   2.506   3.127  15.672 -2.3449 -1.5849  0.4101
 8519TIP3   OH246971   5.277   2.240   0.644 -0.7471  0.4346 -0.1036
 8519TIP3    H146972   5.318   2.158   0.672  1.0868  1.0207 -0.9611
 8519TIP3    H246973   5.350   2.297   0.621 -1.9908  2.2928  0.3528
 8520TIP3   OH246974   3.757   4.567   5.437 -0.3460  0.2932 -0.4090
 8520TIP3    H146975   3.834   4.511   5.447 -1.6488 -1.8746 -1.8716
 8520TIP3    H246976   3.706   4.552   5.516  1.3063  2.9322  1.3419
 8521TIP3   OH246977   5.095   5.099  11.996 -0.6093  0.0472  0.0197
 8521TIP3    H146978   5.139   5.046  12.062 -0.9699  0.2199  0.4020
 8521TIP3    H246979   5.080   5.039  11.923  1.8796  0.3962 -0.8781
 8522TIP3   OH246980   0.590   1.889   3.657  0.7347 -0.4312  0.4068
 8522TIP3    H146981   0.496   1.910   3.663  0.9029  0.1813  1.0908
 8522TIP3    H246982   0.611   1.850   3.742  1.6398  1.7647  1.2459
 8523TIP3   OH246983   2.522   4.997   2.461  0.4323  0.0034  0.0157
 8523TIP3    H146984   2.430   5.006   2.484  0.2002 -0.6286 -0.6445
 8523TIP3    H246985   2.568   5.048   2.527 -0.3716  0.0838  0.5259
 8524TIP3   OH246986   5.980   5.124   3.267  0.0163 -0.0158  1.1624
 8524TIP3    H146987   6.025   5.204   3.241 -1.4517  0.3371 -0.4586
 8524TIP3    H246988   6.048   5.056   3.262  0.4380  0.4817 -1.2362
 8525TIP3   OH246989   4.591   0.253  10.940  0.0393 -0.3962 -0.0338
 8525TIP3    H146990   4.637   0.193  10.881  0.5960 -2.7027  2.5356
 8525TIP3    H246991   4.659   0.316  10.966 -0.0241  0.1938 -1.2418
 8526TIP3   OH246992   6.397   5.087   3.046  0.2668 -0.0246  0.3403
 8526TIP3    H146993   6.334   5.127   2.986  1.0321  1.8750  0.7321
 8526TIP3    H246994   6.458   5.039   2.989 -1.4659 -1.8928 -0.0394
 8527TIP3   OH246995   1.925   0.448   0.454  0.7487  0.3508  0.2734
 8527TIP3    H146996   1.981   0.431   0.378  1.6417  0.2445  0.9418
 8527TIP3    H246997   1.975   0.511   0.507 -0.8854  2.3211 -0.3647
 8528TIP3   OH246998   1.317   1.559   1.980 -1.0540  0.2701  0.0741
 8528TIP3    H146999   1.240   1.582   1.928 -1.1501  0.1089  0.1461
 8528TIP3    H247000   1.388   1.554   1.917 -1.2328 -0.2386 -0.0849
 8529TIP3   OH247001   1.090   4.018   1.511 -0.4459  0.7484  0.3373
 8529TIP3    H147002   1.166   3.966   1.486  1.2528  2.2947  2.0670
 8529TIP3    H247003   1.101   4.101   1.465 -0.6500  1.2779  1.2276
 8530TIP3   OH247004   6.544   1.657   0.951  0.1004  0.2680  0.6940
 8530TIP3    H147005   6.505   1.623   1.031  0.3017  0.1530  0.7433
 8530TIP3    H247006   6.492   1.735   0.930  0.0324  0.2824  0.9205
 8531TIP3   OH247007   2.867   4.425   2.219  0.4010 -0.1568  0.1803
 8531TIP3    H147008   2.826   4.354   2.268 -1.3591  0.5470 -0.1697
 8531TIP3    H247009   2.854   4.401   2.127 -0.6411  0.8060  0.0525
 8532TIP3   OH247010   6.621   1.791  16.876  0.2493 -0.3345 -0.2531
 8532TIP3    H147011   6.687   1.805  16.944  0.1879 -2.2669  0.2627
 8532TIP3    H247012   6.573   1.874  16.872  2.2382  0.8902 -0.1739
 8533TIP3   OH247013   0.284   4.182  13.186 -0.0137 -0.3571 -0.5477
 8533TIP3    H147014   0.356   4.203  13.246 -0.0449  0.9034 -0.9300
 8533TIP3    H247015   0.239   4.265  13.172 -0.0593 -0.6405 -2.2602
 8534TIP3   OH247016   6.660   4.127  11.953  0.2394 -0.6297  0.3639
 8534TIP3    H147017   6.618   4.116  12.038 -0.1045 -0.0107  0.2841
 8534TIP3    H247018   6.591   4.111  11.890 -0.0667  0.9491  0.2365
 8535TIP3   OH247019   4.155   1.225  12.461  0.4238  0.1396 -0.4969
 8535TIP3    H147020   4.142   1.131  12.459 -1.3565  0.3384  0.0714
 8535TIP3    H247021   4.171   1.249  12.370 -2.7796 -0.3056 -1.2889
 8536TIP3   OH247022   2.627   6.121   2.915  0.5276 -0.3657 -0.3313
 8536TIP3    H147023   2.594   6.135   2.826  0.5153 -0.0792 -0.2819
 8536TIP3    H247024   2.552   6.141   2.971  0.3156 -1.2424 -0.2810
 8537TIP3   OH247025   5.890   6.008   4.985  0.3027 -0.2021 -0.5303
 8537TIP3    H147026   5.810   6.058   4.999  0.4818 -0.1161  0.2384
 8537TIP3    H247027   5.893   5.993   4.891 -0.4929 -0.0039 -0.5936
 8538TIP3   OH247028   1.928   2.979  17.184 -0.8379 -0.0837  0.6124
 8538TIP3    H147029   1.851   2.950  17.233 -1.6981  0.5318 -0.3411
 8538TIP3    H247030   1.947   2.907  17.124 -0.1497 -0.5819  1.4011
 8539TIP3   OH247031   3.966   0.859  10.552 -0.2797  0.6527  0.4116
 8539TIP3    H147032   3.970   0.950  10.523  1.0230  1.3809  2.6797
 8539TIP3    H247033   4.001   0.860  10.641  0.1608 -2.1457  0.3570
 8540TIP3   OH247034   0.966   0.876  16.647  0.0962 -0.0748  0.2720
 8540TIP3    H147035   1.036   0.846  16.704  1.2463  1.2248 -0.4149
 8540TIP3    H247036   0.887   0.837  16.684  0.9519 -0.1854  2.0783
 8541TIP3   OH247037   1.227   4.379  11.060 -0.0923  0.3377  0.0381
 8541TIP3    H147038   1.233   4.315  10.988  0.6526 -0.5916  0.8899
 8541TIP3    H247039   1.204   4.326  11.137  1.4580  0.9469  0.9596
 8542TIP3   OH247040   4.286   5.461   6.407  0.3449  0.5288 -0.0089
 8542TIP3    H147041   4.222   5.394   6.383  0.1927  0.9819 -0.9136
 8542TIP3    H247042   4.363   5.412   6.435  0.3989 -0.0286 -1.0985
 8543TIP3   OH247043   2.479   2.842  11.590  0.4210 -0.7746  0.4032
 8543TIP3    H147044   2.407   2.878  11.537 -0.2546 -0.1243  1.7052
 8543TIP3    H247045   2.475   2.748  11.575 -0.2715 -0.6808 -0.0617
 8544TIP3   OH247046   6.513   0.887   5.629 -0.6345 -0.5483  0.0810
 8544TIP3    H147047   6.513   0.978   5.656  1.0543 -0.9770  1.7152
 8544TIP3    H247048   6.569   0.885   5.552 -2.0842  0.0155 -1.0444
 8545TIP3   OH247049   3.538   4.001  14.100  0.3199 -0.2682 -0.2329
 8545TIP3    H147050   3.620   3.955  14.081  0.7233  0.9439 -1.6592
 8545TIP3    H247051   3.562   4.070  14.161  0.8903  1.4659 -2.2804
 8546TIP3   OH247052   2.667   3.357   1.499 -0.0628  0.0326  0.0907
 8546TIP3    H147053   2.688   3.411   1.422 -1.0566 -1.8698 -1.5990
 8546TIP3    H247054   2.578   3.383   1.523 -0.5723 -0.8292 -0.7734
 8547TIP3   OH247055   2.742   5.842  14.744  0.2103  0.3970  0.3292
 8547TIP3    H147056   2.728   5.878  14.656 -1.0234  0.6797  0.6222
 8547TIP3    H247057   2.747   5.919  14.800 -0.9516  0.1755  0.7581
 8548TIP3   OH247058   5.101   2.822   2.650 -0.1243  0.3159  0.0618
 8548TIP3    H147059   5.194   2.834   2.631 -0.2571  0.4307 -0.5287
 8548TIP3    H247060   5.075   2.901   2.697  0.0371  0.3605  0.0770
 8549TIP3   OH247061   4.382   2.404   0.244  0.0609 -0.3838  0.0984
 8549TIP3    H147062   4.473   2.383   0.265 -0.1757  0.6400  2.4268
 8549TIP3    H247063   4.352   2.458   0.317 -2.9513 -2.1382  0.3249
 8550TIP3   OH247064   4.447   3.025   3.062 -0.3015  0.0623  0.4825
 8550TIP3    H147065   4.464   3.118   3.075  0.4013  0.0053  0.0373
 8550TIP3    H247066   4.534   2.984   3.059 -0.4377 -0.2300 -1.9160
 8551TIP3   OH247067   4.907   5.832   1.559 -0.4644  0.5989  0.0524
 8551TIP3    H147068   4.897   5.737   1.564 -1.2234  0.6348 -0.5159
 8551TIP3    H247069   4.979   5.852   1.618  1.2137 -0.5853 -1.4835
 8552TIP3   OH247070   0.436   5.772   5.696 -0.9645  0.2520  0.1576
 8552TIP3    H147071   0.378   5.848   5.689 -1.4436  0.0615  1.8386
 8552TIP3    H247072   0.446   5.757   5.790 -0.3599 -1.3807 -0.1342
 8553TIP3   OH247073   2.815   0.071  14.481 -0.0588 -0.3682  0.2579
 8553TIP3    H147074   2.724   0.091  14.457 -0.3893 -1.1784  0.8056
 8553TIP3    H247075   2.815   0.071  14.577  0.2316 -1.5964  0.2749
 8554TIP3   OH247076   5.893   5.465   0.061 -0.2423  0.7664  0.2227
 8554TIP3    H147077   5.915   5.556   0.042  0.7520  0.5548  0.3268
 8554TIP3    H247078   5.887   5.423  -0.024  1.4317  0.4555  0.2270
 8555TIP3   OH247079   1.397   5.598   0.978 -0.7359  0.3499 -0.6692
 8555TIP3    H147080   1.375   5.513   1.018  0.6074  0.4844  0.4411
 8555TIP3    H247081   1.388   5.583   0.884  0.2786 -1.3050 -0.5598
 8556TIP3   OH247082   6.683   2.098   4.420  0.5313  0.3664  0.6554
 8556TIP3    H147083   6.763   2.051   4.445  0.1966 -0.2018  0.6756
 8556TIP3    H247084   6.626   2.092   4.497  0.3133  0.4239  0.5001
 8557TIP3   OH247085   3.666   2.745   3.138  0.5610 -0.6114 -0.1046
 8557TIP3    H147086   3.679   2.831   3.098 -0.0695  0.8684  2.6345
 8557TIP3    H247087   3.735   2.739   3.204  0.2007 -1.9281  0.1685
 8558TIP3   OH247088   5.772   4.055   1.683  0.1804  0.7879  0.2837
 8558TIP3    H147089   5.688   4.009   1.689  1.2184 -1.3441 -0.4178
 8558TIP3    H247090   5.751   4.147   1.699 -2.2511  0.2918  0.2593
 8559TIP3   OH247091   2.946   3.004   0.837 -0.5186  0.0895 -0.1780
 8559TIP3    H147092   3.020   2.995   0.777  1.7390  1.6425  2.1645
 8559TIP3    H247093   2.942   2.920   0.883  1.4610  0.7467  1.3360
 8560TIP3   OH247094   1.126   0.983  16.443  0.0532 -0.0694 -0.2147
 8560TIP3    H147095   1.055   0.925  16.471  0.6741 -0.9952 -0.5175
 8560TIP3    H247096   1.151   1.030  16.522 -0.4191 -0.2577  0.0516
 8561TIP3   OH247097   6.656   6.615  12.135  0.0048  0.2931 -1.2413
 8561TIP3    H147098   6.696   6.531  12.114  0.3649  0.1652 -0.1023
 8561TIP3    H247099   6.578   6.619  12.080 -0.5506 -1.2257 -0.6296
 8562TIP3   OH247100   4.217   2.149   3.993 -0.3909  0.1719 -0.7177
 8562TIP3    H147101   4.167   2.180   4.069  0.1762 -1.0954  0.2145
 8562TIP3    H247102   4.159   2.085   3.951  0.1749 -0.8286 -0.0034
 8563TIP3   OH247103   0.960   4.679   4.201  0.2639  0.3919  0.0503
 8563TIP3    H147104   0.986   4.643   4.116 -0.5583  0.1305 -0.0918
 8563TIP3    H247105   0.992   4.615   4.265  0.3753  0.3047 -0.0905
 8564TIP3   OH247106   5.952   6.393  15.175  0.5938 -0.3464 -0.3301
 8564TIP3    H147107   5.965   6.480  15.212 -1.4534 -0.8834  1.9108
 8564TIP3    H247108   6.000   6.395  15.092  0.9752  2.7332 -0.1582
 8565TIP3   OH247109   1.240   1.021  15.931 -0.4554  0.2253 -0.6028
 8565TIP3    H147110   1.305   1.079  15.890 -0.0721 -0.3032 -0.7526
 8565TIP3    H247111   1.170   1.080  15.958  1.0769  1.1804  1.6508
 8566TIP3   OH247112   0.470   3.296   5.037  1.1225  0.6511  0.3808
 8566TIP3    H147113   0.535   3.306   4.967  1.4181  3.3817  0.9235
 8566TIP3    H247114   0.387   3.280   4.991  1.7775 -0.5765 -0.4178
 8567TIP3   OH247115   3.209   1.686  11.326  0.1413  0.3778 -0.4697
 8567TIP3    H147116   3.243   1.649  11.244 -0.3897 -1.2055 -0.0134
 8567TIP3    H247117   3.145   1.751  11.298  1.4355  1.3528 -1.3056
 8568TIP3   OH247118   6.437   5.392  13.568  0.4461 -0.1704 -0.0584
 8568TIP3    H147119   6.350   5.394  13.607  0.1482 -0.0270 -0.7058
 8568TIP3    H247120   6.496   5.370  13.640 -0.2506 -1.3965  0.1708
 8569TIP3   OH247121   3.144   0.875  14.348 -0.1459  0.3906 -0.2652
 8569TIP3    H147122   3.101   0.931  14.413 -0.9534  0.7181 -1.0662
 8569TIP3    H247123   3.189   0.809  14.400 -0.6238  0.7543  0.6400
 8570TIP3   OH247124   5.895   6.472  13.483 -0.2157  0.1460 -0.4283
 8570TIP3    H147125   5.817   6.445  13.532  0.8531 -0.0371  1.2814
 8570TIP3    H247126   5.907   6.403  13.418 -1.0579 -0.2093 -0.2205
 8571TIP3   OH247127   2.558   2.103   4.399 -0.7277 -0.0230 -0.0830
 8571TIP3    H147128   2.491   2.126   4.464  0.7485  0.4121  1.3698
 8571TIP3    H247129   2.541   2.163   4.326 -0.6942  1.5186  1.1119
 8572TIP3   OH247130   5.001   1.717  11.588 -0.1192  0.2056 -0.2263
 8572TIP3    H147131   4.977   1.719  11.681  2.0053 -0.3060  0.3856
 8572TIP3    H247132   4.953   1.790  11.549 -1.8288 -0.1807  1.0469
 8573TIP3   OH247133   0.323   3.443   1.584 -1.0221 -0.3620 -0.2286
 8573TIP3    H147134   0.360   3.449   1.496  1.7419  0.6262  0.8754
 8573TIP3    H247135   0.301   3.533   1.607 -2.0295 -0.6554 -0.0059
 8574TIP3   OH247136   5.010   2.756   3.325  0.2423  0.2768 -0.1569
 8574TIP3    H147137   5.056   2.785   3.246  0.6286 -0.8090 -0.3464
 8574TIP3    H247138   5.072   2.774   3.396  0.0969  0.7866 -0.1551
 8575TIP3   OH247139   5.243   0.830   3.408 -0.3499 -0.4388 -0.1614
 8575TIP3    H147140   5.278   0.834   3.319  1.2260 -0.9256  0.4113
 8575TIP3    H247141   5.277   0.908   3.451 -1.8619  0.2878 -0.2089
 8576TIP3   OH247142   0.105   0.574  16.645  0.4820  0.8092 -0.4045
 8576TIP3    H147143   0.141   0.620  16.569  0.5173 -2.5356 -2.6159
 8576TIP3    H247144   0.178   0.522  16.679 -0.1110  0.5527  0.5111
 8577TIP3   OH247145   5.910   6.240   4.231  0.4251  0.3770  0.2027
 8577TIP3    H147146   5.964   6.274   4.159  1.1198 -1.0508  0.0130
 8577TIP3    H247147   5.973   6.208   4.295 -0.1775 -0.6294  0.3229
 8578TIP3   OH247148   0.614   4.829  11.279 -0.0739  0.1498  0.1820
 8578TIP3    H147149   0.634   4.749  11.230  0.0295 -0.3176  0.9719
 8578TIP3    H247150   0.612   4.898  11.213  2.2274 -0.0899 -0.2299
 8579TIP3   OH247151   0.611   3.072  13.714  0.2549  0.4633 -0.2324
 8579TIP3    H147152   0.558   3.113  13.782 -1.0429 -0.7348 -0.4449
 8579TIP3    H247153   0.575   2.983  13.707  0.9127  0.2942 -1.8846
 8580TIP3   OH247154   1.318   0.998   1.199 -0.6963  0.1755  0.4496
 8580TIP3    H147155   1.393   1.020   1.144 -1.3890 -0.5404 -0.8005
 8580TIP3    H247156   1.283   1.083   1.227 -1.2179  0.6098 -1.4329
 8581TIP3   OH247157   4.660   3.441   6.044  0.5620  0.2841 -0.0305
 8581TIP3    H147158   4.616   3.526   6.044  0.9051  0.4849 -1.2187
 8581TIP3    H247159   4.651   3.409   6.133 -0.3480  1.1689  0.2102
 8582TIP3   OH247160   1.957   1.140   0.492 -0.5500  0.4196  0.0994
 8582TIP3    H147161   2.038   1.181   0.524 -0.1663 -1.1653  1.3141
 8582TIP3    H247162   1.937   1.185   0.411 -0.0626  2.8576  1.2448
 8583TIP3   OH247163   2.022   5.451  13.556 -0.2649  0.5326 -0.3492
 8583TIP3    H147164   1.981   5.366  13.572  1.0593  0.1102  1.0330
 8583TIP3    H247165   2.054   5.479  13.642  1.0247  1.5143 -1.1001
 8584TIP3   OH247166   6.631   1.881   1.484  0.0797 -0.3343  0.6738
 8584TIP3    H147167   6.546   1.843   1.463  0.0235  0.0728  0.1629
 8584TIP3    H247168   6.690   1.845   1.417  0.2393 -0.3454  0.8199
 8585TIP3   OH247169   6.438   1.253  12.602  0.6311 -0.2550 -0.3053
 8585TIP3    H147170   6.494   1.257  12.524  0.4529  1.9230 -0.4053
 8585TIP3    H247171   6.468   1.327  12.656  2.8360 -3.3912  3.2591
 8586TIP3   OH247172   6.196   6.379   5.516 -0.0365 -0.7086 -0.0307
 8586TIP3    H147173   6.203   6.449   5.581  0.6732 -1.0450  0.2588
 8586TIP3    H247174   6.140   6.313   5.556  0.5613 -1.0054  0.3271
 8587TIP3   OH247175   5.482   4.470   2.142 -0.5536  0.2170 -0.2102
 8587TIP3    H147176   5.540   4.535   2.181  2.4620 -1.9911 -0.6236
 8587TIP3    H247177   5.462   4.504   2.055 -0.9266  1.5767  0.3809
 8588TIP3   OH247178   0.552   1.319   6.561 -0.0038  0.4987 -0.0421
 8588TIP3    H147179   0.578   1.228   6.544 -0.9857  0.3013 -0.5215
 8588TIP3    H247180   0.635   1.365   6.577  0.6140 -0.1979 -1.1329
 8589TIP3   OH247181   0.459   5.759   1.525  0.1065  0.5216 -0.3808
 8589TIP3    H147182   0.460   5.855   1.528 -0.3462  0.5903 -1.6724
 8589TIP3    H247183   0.542   5.736   1.483  0.8860  0.2472  1.2253
 8590TIP3   OH247184   4.771   2.821  13.031  0.2187 -0.2006 -0.4358
 8590TIP3    H147185   4.771   2.872  13.111  2.0782  1.3717 -1.3648
 8590TIP3    H247186   4.710   2.749  13.048 -0.2870  0.7192  1.9416
 8591TIP3   OH247187   5.296   1.063   3.959  0.2128  0.1100  0.6959
 8591TIP3    H147188   5.380   1.017   3.955  0.5733  0.8466 -0.7102
 8591TIP3    H247189   5.256   1.033   4.041  1.5036 -0.8321  1.0056
 8592TIP3   OH247190   6.392   1.689   6.249 -0.4860  0.5059 -0.5359
 8592TIP3    H147191   6.469   1.666   6.301  0.7326 -1.6037 -3.0031
 8592TIP3    H247192   6.427   1.739   6.175 -1.1037 -1.7185 -2.4944
 8593TIP3   OH247193   4.990   4.431  14.533  0.7731  0.0522  0.1769
 8593TIP3    H147194   5.027   4.343  14.528  1.1597 -0.0351  2.8572
 8593TIP3    H247195   4.911   4.421  14.588  1.3100  1.4634  1.2903
 8594TIP3   OH247196   1.808   3.178   3.917  0.1602  0.6872  0.2553
 8594TIP3    H147197   1.881   3.237   3.898  0.1864  0.5986  0.0816
 8594TIP3    H247198   1.849   3.099   3.952  0.1933  0.4044 -0.3999
 8595TIP3   OH247199   6.560   4.793  16.396  0.4734  0.8392 -0.1299
 8595TIP3    H147200   6.514   4.868  16.434  1.0188  0.4576  1.3829
 8595TIP3    H247201   6.653   4.812  16.413  0.7540  0.7147 -1.4454
 8596TIP3   OH247202   3.596   1.319   1.175 -0.5640 -0.0289 -0.2285
 8596TIP3    H147203   3.595   1.334   1.270  0.3743  0.6672 -0.3180
 8596TIP3    H247204   3.672   1.264   1.161  0.2583  1.2032 -0.7506
 8597TIP3   OH247205   2.992   4.174   1.002  0.3366 -0.6736  0.2405
 8597TIP3    H147206   2.940   4.219   0.936  0.8793  0.2465  0.4237
 8597TIP3    H247207   2.988   4.082   0.977  0.7822 -0.3142 -1.2605
 8598TIP3   OH247208   6.482   4.667  11.590  0.3112 -0.1981 -0.6722
 8598TIP3    H147209   6.549   4.621  11.539  1.6808  1.4806 -0.4856
 8598TIP3    H247210   6.532   4.713  11.658 -1.1439  0.3439  0.0630
 8599TIP3   OH247211   2.319   2.164  11.564 -0.2065  0.4084  0.3231
 8599TIP3    H147212   2.304   2.224  11.636  1.0852 -1.6646  2.4588
 8599TIP3    H247213   2.268   2.086  11.586  0.3375 -0.3442 -0.9248
 8600TIP3   OH247214   0.297   2.927   0.156  0.7350  0.1918 -0.2207
 8600TIP3    H147215   0.248   2.949   0.235  0.6734 -0.5681 -0.0403
 8600TIP3    H247216   0.361   2.998   0.147 -0.4558  1.2774 -0.5283
 8601TIP3   OH247217   3.579   3.232  17.066  0.6341 -0.1470  0.4407
 8601TIP3    H147218   3.645   3.270  17.009  1.5136 -2.1535  0.0314
 8601TIP3    H247219   3.500   3.227  17.012  0.3334  1.4596  0.6622
 8602TIP3   OH247220   5.444   5.378  16.257 -0.2410 -0.2723 -0.2246
 8602TIP3    H147221   5.422   5.438  16.329 -0.8979 -1.4986  0.6316
 8602TIP3    H247222   5.361   5.361  16.213  0.2281  0.8405 -1.6243
 8603TIP3   OH247223   1.484   5.602  11.493 -0.4852 -0.0094  0.2722
 8603TIP3    H147224   1.573   5.634  11.477  1.7450 -3.3978  4.2155
 8603TIP3    H247225   1.436   5.680  11.522  1.8973  1.4901  0.4651
 8604TIP3   OH247226   3.553   1.147   0.161 -0.5753 -0.6725 -0.2521
 8604TIP3    H147227   3.641   1.155   0.198 -0.4192 -0.9542 -0.5541
 8604TIP3    H247228   3.497   1.125   0.236 -0.4005 -0.4339 -0.0489
 8605TIP3   OH247229   3.855   3.213  17.209 -0.1730  0.0421 -0.3568
 8605TIP3    H147230   3.762   3.215  17.190  0.1033 -2.2623 -2.4791
 8605TIP3    H247231   3.882   3.123  17.191  2.1616  0.1287  1.9835
 8606TIP3   OH247232   1.590   3.872   3.641  0.3564  0.0300 -0.0179
 8606TIP3    H147233   1.599   3.937   3.710 -2.6772  0.8809 -0.2524
 8606TIP3    H247234   1.613   3.919   3.561  0.3645  0.1599  0.0602
 8607TIP3   OH247235   1.086   0.770   4.997  0.0910 -0.4471  0.3429
 8607TIP3    H147236   1.059   0.857   4.967 -0.3019 -0.4882  0.5829
 8607TIP3    H247237   1.022   0.710   4.959 -1.1873 -0.3858  2.2946
 8608TIP3   OH247238   4.031   3.206   1.834 -0.3631 -0.7400 -0.3913
 8608TIP3    H147239   3.973   3.132   1.848 -0.1677 -1.0999 -1.4739
 8608TIP3    H247240   4.119   3.168   1.826 -0.0846 -0.2791  0.2573
 8609TIP3   OH247241   5.177   0.148  15.143  0.1514 -0.5921 -0.2179
 8609TIP3    H147242   5.238   0.086  15.103  1.2598  1.5188 -1.9795
 8609TIP3    H247243   5.146   0.202  15.071 -2.7114 -0.5781  0.8669
 8610TIP3   OH247244   1.407   0.958   1.877  0.1656  0.1767  0.2686
 8610TIP3    H147245   1.449   1.032   1.922  0.0565  0.6862 -0.4664
 8610TIP3    H247246   1.377   0.902   1.949  0.2496  0.8385  0.8402
 8611TIP3   OH247247   3.112   2.018   0.364 -0.7580 -0.0037  0.3634
 8611TIP3    H147248   3.035   2.015   0.308 -1.1776 -0.3934  0.9596
 8611TIP3    H247249   3.181   2.053   0.307 -0.9125 -1.3738 -0.7214
 8612TIP3   OH247250   3.647   6.643  16.477 -0.3335  0.2716 -0.6112
 8612TIP3    H147251   3.616   6.719  16.526 -1.2248 -0.5319  0.1286
 8612TIP3    H247252   3.727   6.616  16.522 -0.6295  0.1112 -0.1720
 8613TIP3   OH247253   6.345   3.387  11.418 -0.5516  0.7157 -0.1765
 8613TIP3    H147254   6.388   3.302  11.429 -1.1284 -0.0110 -2.8018
 8613TIP3    H247255   6.350   3.404  11.324 -0.5033  3.6099  0.2636
 8614TIP3   OH247256   6.487   1.909   3.861  0.0136 -0.5583  0.1687
 8614TIP3    H147257   6.508   1.977   3.797 -2.6223 -0.1902 -0.4085
 8614TIP3    H247258   6.439   1.956   3.930  1.2293 -1.2738  1.5688
 8615TIP3   OH247259   4.226   6.768  16.444  0.3623  0.2650 -0.3007
 8615TIP3    H147260   4.161   6.839  16.451  2.0480  1.9420 -0.8492
 8615TIP3    H247261   4.254   6.752  16.534  1.1268  1.4622 -0.3041
 8616TIP3   OH247262   3.865   5.916   4.296 -0.4524  0.7443  0.2255
 8616TIP3    H147263   3.783   5.927   4.344  0.1076 -2.2755  2.1423
 8616TIP3    H247264   3.930   5.960   4.351 -0.4459  1.1080 -0.0725
 8617TIP3   OH247265   5.823   5.796  12.412  0.4057  0.6610  0.5013
 8617TIP3    H147266   5.897   5.774  12.355 -0.0746 -2.3717  0.8632
 8617TIP3    H247267   5.858   5.789  12.501 -0.3620 -1.2843  0.6900
 8618TIP3   OH247268   0.205   1.546  15.879  0.5430 -0.0367  0.0873
 8618TIP3    H147269   0.225   1.557  15.786 -0.3138  0.0197 -0.1001
 8618TIP3    H247270   0.282   1.580  15.925  0.2185  1.7077 -0.5743
 8619TIP3   OH247271   5.159   5.320  14.506  0.0298 -0.7262 -0.1476
 8619TIP3    H147272   5.065   5.307  14.489 -0.2238  0.0867  0.5272
 8619TIP3    H247273   5.162   5.397  14.564  0.9600 -2.0269  1.6212
 8620TIP3   OH247274   3.004   5.241  15.857  0.1652  0.0828  0.2245
 8620TIP3    H147275   3.080   5.196  15.894  0.8291  0.3987 -0.7224
 8620TIP3    H247276   3.024   5.334  15.866 -0.7683  0.2001  1.2832
 8621TIP3   OH247277   2.167   0.313  13.965 -0.1172 -0.2444 -0.3298
 8621TIP3    H147278   2.072   0.307  13.971 -0.0800 -0.3058  0.1802
 8621TIP3    H247279   2.190   0.387  14.021 -0.0285  0.9481 -1.8685
 8622TIP3   OH247280   1.377   1.068  12.136 -0.1493  0.0889 -0.8522
 8622TIP3    H147281   1.315   1.001  12.107 -0.1103 -0.5095  0.3839
 8622TIP3    H247282   1.429   1.088  12.057 -1.5417  0.2240 -1.7698
 8623TIP3   OH247283   3.651   6.403   5.213  0.0121 -0.1198 -0.4501
 8623TIP3    H147284   3.654   6.327   5.154 -0.0011 -0.5945  0.1542
 8623TIP3    H247285   3.726   6.392   5.271 -1.0328 -0.6945  0.8599
 8624TIP3   OH247286   3.553   1.592  12.681 -0.8884  0.4159 -0.1634
 8624TIP3    H147287   3.644   1.565  12.671 -0.9215  0.4208 -0.4939
 8624TIP3    H247288   3.529   1.628  12.595 -1.6007 -0.7729 -0.4864
 8625TIP3   OH247289   0.118   6.459   2.172 -0.4786 -0.5690  0.3470
 8625TIP3    H147290   0.097   6.432   2.083  0.3246  1.3589 -0.4743
 8625TIP3    H247291   0.212   6.478   2.169 -1.0047  2.5438  0.7196
 8626TIP3   OH247292   1.316   2.551   3.159  0.3568 -0.0726  0.4830
 8626TIP3    H147293   1.296   2.632   3.112  0.0808 -1.3857 -1.7978
 8626TIP3    H247294   1.265   2.557   3.240 -1.2163  1.1888 -0.5445
 8627TIP3   OH247295   3.987   4.813  13.493 -0.2814  0.1582  0.1911
 8627TIP3    H147296   4.030   4.822  13.408 -0.8020 -1.1730 -0.2464
 8627TIP3    H247297   4.058   4.815  13.556  0.3072 -0.6106 -0.4220
 8628TIP3   OH247298   4.052   5.092  13.733  0.4367  0.2804  0.0675
 8628TIP3    H147299   4.066   5.177  13.775 -0.7154  0.4795  0.0576
 8628TIP3    H247300   4.116   5.090  13.662 -1.0201  2.1390 -1.4001
 8629TIP3   OH247301   5.076   2.427   4.343 -0.2422 -0.1745  0.0481
 8629TIP3    H147302   5.085   2.490   4.271  0.0818  0.0668  0.2936
 8629TIP3    H247303   5.066   2.481   4.421 -0.8206 -0.4377  0.1568
 8630TIP3   OH247304   2.859   0.962  16.799 -0.1798 -0.0523 -0.6652
 8630TIP3    H147305   2.900   1.038  16.841 -1.5094  0.6383 -0.5721
 8630TIP3    H247306   2.908   0.887  16.833 -0.8895  0.5163  1.7728
 8631TIP3   OH247307   0.326   1.100   5.488 -0.0733  0.3709  0.0267
 8631TIP3    H147308   0.278   1.167   5.538 -1.6572 -0.7785  0.1170
 8631TIP3    H247309   0.418   1.117   5.508 -0.5285  1.5915  1.2359
 8632TIP3   OH247310   0.206   1.527   4.077 -0.2324  0.2546  0.4061
 8632TIP3    H147311   0.170   1.438   4.080  0.2940  0.0010 -0.4211
 8632TIP3    H247312   0.204   1.550   3.984  2.3755 -0.0428  0.2162
 8633TIP3   OH247313   6.634   2.335   2.541  0.0941  0.1262 -0.0964
 8633TIP3    H147314   6.597   2.420   2.517 -1.0569 -0.7784 -1.7435
 8633TIP3    H247315   6.626   2.331   2.636  0.6160  2.0268  0.0841
 8634TIP3   OH247316   4.222   4.735   0.733 -0.0030 -0.4075  0.5126
 8634TIP3    H147317   4.306   4.690   0.737  0.7832  1.0452  1.3097
 8634TIP3    H247318   4.177   4.709   0.813 -0.0303 -0.6685  0.4121
 8635TIP3   OH247319   6.730   4.962  15.885  0.2526  0.1004  0.6586
 8635TIP3    H147320   6.686   4.964  15.970  0.5237 -0.3307  0.8109
 8635TIP3    H247321   6.699   4.881  15.844  0.7749 -0.1248  0.6994
 8636TIP3   OH247322   1.283   5.262  14.122 -0.2382 -0.5103  0.2591
 8636TIP3    H147323   1.288   5.312  14.203 -1.3964 -1.8838  1.2453
 8636TIP3    H247324   1.248   5.323  14.058  0.3551  0.5026  0.8866
 8637TIP3   OH247325   0.472   1.167  14.724 -0.0860 -0.0396 -0.0467
 8637TIP3    H147326   0.480   1.229  14.651 -0.1652 -0.1321 -0.1325
 8637TIP3    H247327   0.535   1.098  14.703 -0.1118 -0.0682 -0.0288
 8638TIP3   OH247328   4.522   4.553   2.831  0.4105  0.0711  0.3791
 8638TIP3    H147329   4.508   4.602   2.912  0.6038 -2.0488  1.7744
 8638TIP3    H247330   4.592   4.600   2.786 -0.4191  1.9007  0.8929
 8639TIP3   OH247331   1.416   5.510  12.018 -0.0046  0.3613  0.3069
 8639TIP3    H147332   1.428   5.573  12.090  1.2725  1.0623 -0.4748
 8639TIP3    H247333   1.439   5.426  12.057 -0.7541  0.5162  1.1054
 8640TIP3   OH247334   3.469   4.132   4.233  0.1496  0.3880  0.0481
 8640TIP3    H147335   3.406   4.086   4.178  1.7858 -1.4102 -0.3934
 8640TIP3    H247336   3.516   4.189   4.172  0.9447 -0.4925 -0.1825
 8641TIP3   OH247337   6.013   1.399   4.119  0.5205 -0.1697 -0.0151
 8641TIP3    H147338   6.012   1.482   4.167 -2.4339  1.0959 -2.0167
 8641TIP3    H247339   5.998   1.332   4.186  0.0179  1.1833  1.2696
 8642TIP3   OH247340   1.707   5.742  14.281 -0.4603  0.0417 -0.7878
 8642TIP3    H147341   1.765   5.724  14.355  1.8473  3.2243 -1.6097
 8642TIP3    H247342   1.627   5.774  14.321 -0.6251 -1.6306  0.3257
 8643TIP3   OH247343   1.151   5.480   4.617  0.3635 -0.5873 -0.2095
 8643TIP3    H147344   1.133   5.487   4.523  0.7670 -1.4182 -0.3547
 8643TIP3    H247345   1.125   5.391   4.640 -0.3223 -0.1948  0.6072
 8644TIP3   OH247346   3.361   5.542  15.415 -0.1128  0.4024  0.5233
 8644TIP3    H147347   3.284   5.581  15.456 -0.0451 -0.2097  1.2626
 8644TIP3    H247348   3.420   5.616  15.400 -0.4085  0.7304  0.9529
 8645TIP3   OH247349   6.101   0.202  11.476 -0.0256 -0.3905 -0.5892
 8645TIP3    H147350   6.108   0.142  11.402 -0.7050 -1.1034 -0.1012
 8645TIP3    H247351   6.104   0.145  11.553 -1.5575  0.0916 -0.1367
 8646TIP3   OH247352   5.828   3.098   1.355 -0.3452  0.2716  0.0017
 8646TIP3    H147353   5.890   3.066   1.420 -2.1036  0.8207  2.0598
 8646TIP3    H247354   5.806   3.021   1.303 -0.5658 -0.7251  1.5071
 8647TIP3   OH247355   5.992   4.367   1.765 -0.6970 -0.4890  0.3542
 8647TIP3    H147356   6.032   4.281   1.759  1.6924  0.5406  0.4216
 8647TIP3    H247357   5.940   4.375   1.685  1.7503 -0.7689 -1.3878
 8648TIP3   OH247358   3.622   0.019   4.485 -0.0720  0.3015  0.3944
 8648TIP3    H147359   3.593  -0.066   4.451 -0.6917 -0.2669  2.2189
 8648TIP3    H247360   3.579   0.083   4.428 -1.8785 -0.5854  0.6726
 8649TIP3   OH247361   5.015   5.285   2.682  0.4093  0.3389  0.4142
 8649TIP3    H147362   5.007   5.316   2.772 -1.3908  0.9374  0.0888
 8649TIP3    H247363   5.104   5.308   2.656  0.5292  1.3207  1.6207
 8650TIP3   OH247364   3.353   5.111   1.066  0.7618  0.5258 -0.3839
 8650TIP3    H147365   3.344   5.124   0.972 -2.4412  2.5705  0.0529
 8650TIP3    H247366   3.348   5.199   1.103  2.4863 -0.1636  1.7333
 8651TIP3   OH247367   2.684   1.937   4.596  0.1393  0.6773 -0.1018
 8651TIP3    H147368   2.742   2.012   4.601 -0.9844  1.6306 -0.8336
 8651TIP3    H247369   2.609   1.968   4.545 -0.9959 -0.5244  0.7785
 8652TIP3   OH247370   0.154   3.799  16.859  0.1538 -0.1468  0.6104
 8652TIP3    H147371   0.063   3.817  16.836  0.4960  1.1636  0.1976
 8652TIP3    H247372   0.176   3.867  16.923  0.6426 -0.8667  1.2169
 8653TIP3   OH247373   0.276   4.656   3.651 -0.3376  0.4705 -0.3273
 8653TIP3    H147374   0.238   4.579   3.608 -0.1039  0.2395 -0.1246
 8653TIP3    H247375   0.327   4.699   3.582 -0.2663  0.3068 -0.3774
 8654TIP3   OH247376   0.734   1.098   1.678 -0.9882 -0.0933  0.5090
 8654TIP3    H147377   0.749   1.186   1.712 -1.2656  0.1931 -0.0865
 8654TIP3    H247378   0.682   1.055   1.746 -1.1365  0.3141  0.6628
 8655TIP3   OH247379   1.613   1.483   0.804  0.0836 -0.6305 -0.3316
 8655TIP3    H147380   1.600   1.577   0.789  1.1891 -0.7518 -2.3173
 8655TIP3    H247381   1.705   1.468   0.784  0.2259 -1.9565  1.1627
 8656TIP3   OH247382   3.852   2.432   3.486 -0.8383  0.0147  0.2145
 8656TIP3    H147383   3.916   2.425   3.416 -0.2683  0.4958  0.6723
 8656TIP3    H247384   3.869   2.355   3.541  0.2907  0.8431  1.0813
 8657TIP3   OH247385   2.329   4.401   4.632 -0.0328 -0.0015 -0.0840
 8657TIP3    H147386   2.249   4.370   4.676 -0.1769  0.1750 -0.2177
 8657TIP3    H247387   2.340   4.342   4.558  0.0220 -0.0938 -0.0023
 8658TIP3   OH247388   2.303   0.375  15.769  0.8489  0.1634  0.0376
 8658TIP3    H147389   2.357   0.303  15.802  0.2574 -0.0656  0.5300
 8658TIP3    H247390   2.291   0.433  15.844  0.5041  0.2647 -0.0911
 8659TIP3   OH247391   2.956   3.978  11.645  0.4498  0.3208 -0.6331
 8659TIP3    H147392   2.983   3.946  11.559 -2.3255  1.3938 -2.0499
 8659TIP3    H247393   2.898   4.052  11.626 -1.1932 -0.1061  2.1080
 8660TIP3   OH247394   6.381   5.708  11.246 -0.5063  0.1721 -0.4240
 8660TIP3    H147395   6.384   5.738  11.155 -1.9690 -2.8596 -1.5968
 8660TIP3    H247396   6.301   5.746  11.281  0.6394  2.3119  0.0883
 8661TIP3   OH247397   5.917   5.775  15.468 -0.2929  0.0529 -0.7526
 8661TIP3    H147398   5.849   5.718  15.433 -0.9758 -0.3516  1.1150
 8661TIP3    H247399   5.892   5.789  15.559  0.6986  2.1074 -0.7433
 8662TIP3   OH247400   0.769   2.804   0.373 -0.0968 -0.4249  0.0565
 8662TIP3    H147401   0.757   2.821   0.280 -1.4070  1.6480  0.5319
 8662TIP3    H247402   0.799   2.887   0.410  0.6898 -1.2784  1.4592
 8663TIP3   OH247403   0.825   0.073  16.928  0.2426  0.0155  0.3750
 8663TIP3    H147404   0.885   0.137  16.890 -0.8121  0.6529 -0.2505
 8663TIP3    H247405   0.779   0.121  16.997 -1.7835  0.5202 -1.2059
 8664TIP3   OH247406   5.134   6.420   1.543  0.6823 -0.0517  0.1756
 8664TIP3    H147407   5.108   6.416   1.450  1.3459 -1.4569  0.0318
 8664TIP3    H247408   5.060   6.382   1.590  0.1822  1.0055  0.2854
 8665TIP3   OH247409   5.673   1.250   5.907  0.1366  0.2244  0.3681
 8665TIP3    H147410   5.600   1.301   5.872  1.5614  0.9829 -1.6890
 8665TIP3    H247411   5.707   1.303   5.979 -0.4523  0.5538  0.4147
 8666TIP3   OH247412   5.703   6.231  12.015  0.1950  0.1031  0.1754
 8666TIP3    H147413   5.794   6.228  11.986 -0.0832 -2.5635 -0.6457
 8666TIP3    H247414   5.652   6.216  11.936 -1.0072  1.6704  0.6085
 8667TIP3   OH247415   5.434   4.614   3.785  0.2665  0.0947 -0.4528
 8667TIP3    H147416   5.396   4.576   3.706  0.3563 -0.4161 -0.2589
 8667TIP3    H247417   5.505   4.553   3.808  2.0226  1.6402 -1.4912
 8668TIP3   OH247418   5.279   1.512   1.923  0.3437  0.3433 -0.2851
 8668TIP3    H147419   5.373   1.528   1.921  0.1452  2.2601  1.6216
 8668TIP3    H247420   5.242   1.582   1.869 -0.1154  1.7492  1.7413
 8669TIP3   OH247421   5.046   1.637   4.999  0.3774 -0.0434 -0.2455
 8669TIP3    H147422   5.003   1.577   5.060 -1.0322 -1.4266 -2.4670
 8669TIP3    H247423   4.995   1.631   4.919  2.7607  0.8412 -1.9562
 8670TIP3   OH247424   1.043   1.120   1.875  0.4623  0.1242  0.2246
 8670TIP3    H147425   1.064   1.185   1.942  0.0883 -2.1412  2.7227
 8670TIP3    H247426   0.970   1.070   1.912  1.3362 -2.3222 -1.1128
 8671TIP3   OH247427   0.890   6.597  16.972  0.0645 -0.1511  0.1642
 8671TIP3    H147428   0.823   6.545  16.929 -0.0445  0.7222 -0.7653
 8671TIP3    H247429   0.919   6.660  16.905  0.4705  0.7167  1.1177
 8672TIP3   OH247430   2.818   1.938   5.597  0.3990 -0.7794  0.0522
 8672TIP3    H147431   2.737   1.948   5.547 -0.3816 -0.7017  1.2735
 8672TIP3    H247432   2.824   2.017   5.650  0.8602 -1.1287  0.5360
 8673TIP3   OH247433   0.782   2.754   2.880  0.2203 -0.0410  0.1034
 8673TIP3    H147434   0.702   2.768   2.828  1.0417  0.5214 -1.0665
 8673TIP3    H247435   0.843   2.715   2.818  1.1947  0.5352  0.6878
 8674TIP3   OH247436   5.562   6.763  11.261 -0.1742  0.7352 -0.1769
 8674TIP3    H147437   5.564   6.757  11.357 -2.3882  1.9409  0.0056
 8674TIP3    H247438   5.653   6.780  11.236  0.0524  3.2003  1.9681
 8675TIP3   OH247439   5.313   0.156  11.686 -0.1285 -0.4551 -0.0350
 8675TIP3    H147440   5.240   0.199  11.731  0.9412  1.4129  0.0179
 8675TIP3    H247441   5.309   0.189  11.597  0.1348 -1.0470 -0.2721
 8676TIP3   OH247442   2.104   1.223   2.253  0.0147  0.0536 -0.2362
 8676TIP3    H147443   2.032   1.271   2.212 -0.0795 -0.8444 -1.1589
 8676TIP3    H247444   2.123   1.273   2.333 -2.8740 -0.6742  1.0583
 8677TIP3   OH247445   4.763   1.615  12.739  0.0996  0.1047 -0.0356
 8677TIP3    H147446   4.816   1.626  12.660  1.1906 -1.0847  0.4964
 8677TIP3    H247447   4.676   1.643  12.712  0.3800 -0.4889 -1.7432
 8678TIP3   OH247448   0.643   5.144   2.380  0.0087  0.0441 -0.0507
 8678TIP3    H147449   0.680   5.200   2.448 -0.1967  1.3204 -0.9433
 8678TIP3    H247450   0.549   5.158   2.386 -0.0312 -0.0727 -0.3946
 8679TIP3   OH247451   6.350   2.233  14.520 -0.2593 -0.0743 -0.1393
 8679TIP3    H147452   6.393   2.300  14.574 -0.3180  0.2349 -0.4753
 8679TIP3    H247453   6.266   2.272  14.497 -1.3496 -1.2050  1.6492
 8680TIP3   OH247454   1.819   0.885  14.871 -0.3358 -0.2308  0.4058
 8680TIP3    H147455   1.848   0.975  14.888  1.4606 -0.1498 -2.4946
 8680TIP3    H247456   1.871   0.831  14.931  2.3949  0.3505 -1.2588
 8681TIP3   OH247457   5.765   1.900   5.106 -0.0956 -0.6714  1.5361
 8681TIP3    H147458   5.796   1.964   5.170 -0.1217 -0.4319  1.3065
 8681TIP3    H247459   5.836   1.836   5.100 -0.7052 -1.5460  2.9585
 8682TIP3   OH247460   6.291   5.925  15.286 -0.0972  0.1106  0.2748
 8682TIP3    H147461   6.231   5.984  15.239 -1.3666 -0.5926  0.9565
 8682TIP3    H247462   6.246   5.841  15.288  1.0535 -0.5235  0.5703
 8683TIP3   OH247463   5.370   0.164  16.842 -0.2052 -0.0362  0.3812
 8683TIP3    H147464   5.412   0.210  16.914  1.0009  2.2787 -1.6604
 8683TIP3    H247465   5.435   0.100  16.813 -0.1372  0.0011  0.4523
 8684TIP3   OH247466   2.158   0.724   1.284 -0.0016  0.2066  0.2493
 8684TIP3    H147467   2.149   0.632   1.311 -2.9542  0.1836 -0.4062
 8684TIP3    H247468   2.222   0.723   1.213 -1.3264 -1.6914 -1.0041
 8685TIP3   OH247469   5.620   4.272   5.066  0.2875  0.4423 -0.8527
 8685TIP3    H147470   5.700   4.325   5.061  1.1895 -0.9768 -3.2390
 8685TIP3    H247471   5.630   4.208   4.996 -2.1662 -0.9311 -0.0484
 8686TIP3   OH247472   2.001   0.094  10.533  0.2961  0.1153  0.2403
 8686TIP3    H147473   1.991   0.123  10.442 -2.1221  0.5663  0.5922
 8686TIP3    H247474   2.027   0.172  10.581 -0.3655  0.3377  0.2411
 8687TIP3   OH247475   6.084   0.142   5.450  0.1192  0.4445  0.1051
 8687TIP3    H147476   6.003   0.102   5.417  0.8080 -1.4646  0.5630
 8687TIP3    H247477   6.147   0.070   5.450  1.5326  1.6348  0.7791
 8688TIP3   OH247478   2.381   5.032   5.205  0.2860 -0.2501 -0.3393
 8688TIP3    H147479   2.408   4.940   5.208  0.6205 -0.1307  0.7007
 8688TIP3    H247480   2.320   5.041   5.277  0.7150  0.4834 -0.0593
 8689TIP3   OH247481   4.588   6.172  15.409 -0.2109 -0.0667  0.3412
 8689TIP3    H147482   4.553   6.145  15.324 -0.8253  2.1086 -0.1632
 8689TIP3    H247483   4.623   6.260  15.394  0.4507  0.0304  2.1567
 8690TIP3   OH247484   3.677   5.087   3.107  0.3382  0.0830  0.2636
 8690TIP3    H147485   3.768   5.107   3.081  0.5742 -2.3424 -1.1047
 8690TIP3    H247486   3.628   5.165   3.084  2.0657  1.4938  1.1177
 8691TIP3   OH247487   1.778   1.010   0.653  0.3003 -0.0984 -0.0346
 8691TIP3    H147488   1.764   0.955   0.576 -0.7779  0.4646 -0.2633
 8691TIP3    H247489   1.850   1.068   0.629  0.5146 -0.4744 -0.3051
 8692TIP3   OH247490   0.593   1.113  15.293 -0.0481  0.5931  0.4233
 8692TIP3    H147491   0.555   1.102  15.206  0.1312  2.1697  0.1179
 8692TIP3    H247492   0.630   1.027  15.314 -0.1272  0.1768 -1.0322
 8693TIP3   OH247493   0.321   3.904  11.884  0.1012  0.3116  0.3252
 8693TIP3    H147494   0.357   3.826  11.925 -0.2191  0.0001  0.0201
 8693TIP3    H247495   0.227   3.886  11.878  0.2666 -0.1666 -1.6278
 8694TIP3   OH247496   6.356   1.710   5.257 -0.1572 -0.0312 -0.1134
 8694TIP3    H147497   6.352   1.804   5.270  2.2155 -0.1067  1.9676
 8694TIP3    H247498   6.289   1.675   5.315 -2.8526  0.3442 -2.7632
 8695TIP3   OH247499   1.600   0.659  15.317 -0.0007  0.6211 -0.0414
 8695TIP3    H147500   1.596   0.706  15.233 -2.2051  1.4653  0.4730
 8695TIP3    H247501   1.635   0.574  15.294 -1.9433  0.2736 -2.1661
 8696TIP3   OH247502   5.505   5.085  14.480  0.3057 -0.2858  0.4581
 8696TIP3    H147503   5.579   5.134  14.444 -0.6551  0.8923  0.0260
 8696TIP3    H247504   5.428   5.137  14.456 -0.4381  0.4349  3.9293
 8697TIP3   OH247505   2.429   0.674   2.441  0.3993  0.0423 -0.4620
 8697TIP3    H147506   2.513   0.645   2.405  1.2520  3.1109 -1.2657
 8697TIP3    H247507   2.439   0.666   2.536  1.6400  0.3918 -0.5455
 8698TIP3   OH247508   2.202   2.473  13.373 -0.3023 -0.2471  0.2451
 8698TIP3    H147509   2.255   2.499  13.297 -1.4603  0.2466 -0.4301
 8698TIP3    H247510   2.155   2.396  13.343 -1.5307  0.5378  0.0766
 8699TIP3   OH247511   2.355   2.731  11.042  0.4124  0.0907 -0.4492
 8699TIP3    H147512   2.313   2.756  11.124 -1.6156 -1.1283 -1.0296
 8699TIP3    H247513   2.377   2.814  11.000  0.5950  0.7438  0.8727
 8700TIP3   OH247514   1.859   4.392   5.939 -0.5428  0.1949  0.3834
 8700TIP3    H147515   1.874   4.440   5.857 -1.0057 -0.9639 -0.4055
 8700TIP3    H247516   1.946   4.362   5.965 -0.5379 -0.4893 -0.3723
 8701TIP3   OH247517   0.920   4.032  16.256  0.0580 -0.4926  0.0378
 8701TIP3    H147518   0.942   4.036  16.163  0.9049 -1.4377  0.1807
 8701TIP3    H247519   0.935   3.941  16.281 -0.6104 -0.3525  0.9974
 8702TIP3   OH247520   0.007   0.549   4.154  0.4649  0.1610 -0.4140
 8702TIP3    H147521   0.079   0.611   4.157 -1.8577  3.1239 -1.3116
 8702TIP3    H247522  -0.072   0.603   4.155 -1.8466 -2.8971  1.3595
 8703TIP3   OH247523   0.163   5.055  10.395  0.0568  0.0529  0.3709
 8703TIP3    H147524   0.152   4.979  10.452 -1.5863  0.3983  0.5465
 8703TIP3    H247525   0.198   5.018  10.314 -0.0226 -0.7861  0.7001
 8704TIP3   OH247526   0.981   0.795  11.732 -0.1104 -0.0517  0.5974
 8704TIP3    H147527   0.907   0.753  11.689 -0.2929  1.4658 -0.6668
 8704TIP3    H247528   0.958   0.888  11.733  0.2793  0.1085  3.2602
 8705TIP3   OH247529   4.219   0.746  13.439  0.0771 -0.0459 -0.0972
 8705TIP3    H147530   4.205   0.722  13.530  0.5102 -1.0047 -0.2791
 8705TIP3    H247531   4.213   0.842  13.439  2.5233  0.1824  1.3722
 8706TIP3   OH247532   1.563   0.599   2.031  0.4066 -1.1986  0.0809
 8706TIP3    H147533   1.651   0.602   2.068  0.0031 -0.2421  0.9994
 8706TIP3    H247534   1.517   0.673   2.071 -0.4330 -0.8844 -1.3912
 8707TIP3   OH247535   4.789   3.622   5.296 -0.4165 -0.1539  0.6559
 8707TIP3    H147536   4.854   3.561   5.330  0.7182  0.5778 -0.1313
 8707TIP3    H247537   4.764   3.585   5.211 -0.6225 -0.1481  0.7137
 8708TIP3   OH247538   2.869   4.227   5.643 -0.0679 -0.2637  0.5271
 8708TIP3    H147539   2.809   4.159   5.612 -0.3464 -0.2821  1.0838
 8708TIP3    H247540   2.909   4.262   5.564  0.1236 -1.1195  0.2283
 8709TIP3   OH247541   2.748   1.380   4.976  0.6108 -0.2101  0.3493
 8709TIP3    H147542   2.782   1.321   5.043  0.7095  0.1082  0.5767
 8709TIP3    H247543   2.792   1.463   4.991  0.4155 -0.0539  0.0730
 8710TIP3   OH247544   4.214   2.386  11.992 -0.0472 -0.5014 -0.5565
 8710TIP3    H147545   4.284   2.451  11.983  0.4158 -1.2578 -3.4836
 8710TIP3    H247546   4.133   2.436  11.979  0.1144 -0.0549  0.1199
 8711TIP3   OH247547   0.432   1.162   2.472  0.1055  0.3157  0.2189
 8711TIP3    H147548   0.508   1.220   2.477 -0.4230  1.1052 -0.5830
 8711TIP3    H247549   0.389   1.187   2.390 -0.5504 -0.7034  0.2430
 8712TIP3   OH247550   2.216   2.909   2.096 -0.5401 -0.3773  0.0783
 8712TIP3    H147551   2.307   2.937   2.083 -1.0218  1.1882 -0.0752
 8712TIP3    H247552   2.221   2.813   2.097  1.0098 -0.3367 -0.5978
 8713TIP3   OH247553   5.735   4.452   3.302 -0.0629  0.3289  0.7286
 8713TIP3    H147554   5.772   4.506   3.372  1.0166 -0.1179  0.5224
 8713TIP3    H247555   5.655   4.497   3.277 -1.0897 -0.1143  3.0204
 8714TIP3   OH247556   5.538   0.296  11.762  0.4866  0.5550 -0.1497
 8714TIP3    H147557   5.569   0.265  11.677  1.6909 -2.5833  1.3025
 8714TIP3    H247558   5.447   0.266  11.767  0.8121 -0.3950  0.1630
 8715TIP3   OH247559   5.482   3.939  15.544 -0.3593  0.1908 -0.0821
 8715TIP3    H147560   5.451   3.856  15.579  1.2578 -0.6965 -0.6665
 8715TIP3    H247561   5.420   3.959  15.473 -0.5023 -0.7635 -0.2461
 8716TIP3   OH247562   1.440   6.245   1.704  0.6096 -0.4153  0.0300
 8716TIP3    H147563   1.371   6.216   1.644  1.1994  0.0800 -0.9275
 8716TIP3    H247564   1.506   6.177   1.700  0.3952 -0.6606  0.5796
 8717TIP3   OH247565   2.051   5.121   3.856  0.2274 -0.2778  0.1916
 8717TIP3    H147566   2.073   5.084   3.942  0.0124  1.7258  1.1697
 8717TIP3    H247567   2.066   5.050   3.795 -0.1082 -1.9369  1.9452
 8718TIP3   OH247568   0.166   2.676   3.572 -0.7933 -0.8930 -0.0270
 8718TIP3    H147569   0.137   2.756   3.616  1.1363  0.3148 -0.8094
 8718TIP3    H247570   0.085   2.629   3.551 -1.9051  0.0643  1.8521
 8719TIP3   OH247571   1.335   4.759   6.140 -0.4798  0.6531  0.7747
 8719TIP3    H147572   1.269   4.780   6.206 -0.8377  1.3351  0.2181
 8719TIP3    H247573   1.341   4.839   6.086 -1.0760 -0.2913 -0.7533
 8720TIP3   OH247574   6.582   5.433  15.836  0.2962  0.1142 -0.4685
 8720TIP3    H147575   6.620   5.472  15.758 -3.3144 -0.2147 -2.6030
 8720TIP3    H247576   6.579   5.339  15.817 -0.1935 -0.0267  0.2450
 8721TIP3   OH247577   5.905   4.918   2.508  0.0872 -0.2871 -0.0872
 8721TIP3    H147578   5.908   4.825   2.484 -0.2509 -0.4438  0.4458
 8721TIP3    H247579   5.918   4.964   2.426  1.9703 -0.7989 -0.1157
 8722TIP3   OH247580   4.432   0.511   3.736  0.3432  0.0778 -0.7104
 8722TIP3    H147581   4.376   0.438   3.712 -0.2690 -0.5760  2.2691
 8722TIP3    H247582   4.383   0.589   3.712 -2.3680 -0.4435  2.4301
 8723TIP3   OH247583   3.201   3.126   5.339  0.6094  0.5436  0.2186
 8723TIP3    H147584   3.147   3.197   5.303 -0.1839 -0.0193  0.2587
 8723TIP3    H247585   3.137   3.066   5.379  1.1683 -0.7454 -0.7823
 8724TIP3   OH247586   4.471   3.341   0.150 -0.1929 -0.0768  0.0573
 8724TIP3    H147587   4.503   3.250   0.146 -1.7407 -0.6457 -0.0482
 8724TIP3    H247588   4.392   3.336   0.204  0.8455  1.5886  1.8990
 8725TIP3   OH247589   3.483   0.247  15.164 -0.0920  0.0172  0.4313
 8725TIP3    H147590   3.420   0.212  15.227  0.6824  0.2980  1.3988
 8725TIP3    H247591   3.493   0.339  15.189  0.1588  0.1576 -0.1736
 8726TIP3   OH247592   3.245   1.725   3.436  0.2268  0.4273  0.0285
 8726TIP3    H147593   3.193   1.793   3.479 -0.1624  0.2525 -0.1588
 8726TIP3    H247594   3.202   1.643   3.459  0.4884  0.2691 -0.0338
 8727TIP3   OH247595   1.675   6.339  12.605 -0.1085 -0.1556 -0.3918
 8727TIP3    H147596   1.728   6.373  12.533  1.7688 -1.7583  0.1374
 8727TIP3    H247597   1.699   6.393  12.680 -0.4883  0.1757 -0.5060
 8728TIP3   OH247598   5.728   2.757   4.068 -0.1723 -0.0773  0.4207
 8728TIP3    H147599   5.709   2.737   3.976  0.0297 -0.8258  0.5417
 8728TIP3    H247600   5.654   2.720   4.116  0.1874 -0.5198  0.6407
 8729TIP3   OH247601   1.330   6.689   6.543 -0.0287 -0.0731 -0.4727
 8729TIP3    H147602   1.236   6.679   6.526  0.2814 -1.1632 -1.7049
 8729TIP3    H247603   1.369   6.607   6.513  1.2395  0.0091  0.8169
 8730TIP3   OH247604   3.850   3.768  13.887 -0.0057  0.0958  0.1871
 8730TIP3    H147605   3.841   3.855  13.925 -2.3796 -1.3360  3.4607
 8730TIP3    H247606   3.769   3.755  13.837 -0.4534 -0.7286  1.0827
 8731TIP3   OH247607   6.610   5.335   2.927 -0.3216  0.3442 -0.1085
 8731TIP3    H147608   6.606   5.240   2.931  0.9085  0.2697 -0.4709
 8731TIP3    H247609   6.614   5.355   2.833  2.0469  0.6051 -0.0105
 8732TIP3   OH247610   5.531   3.047  15.158  0.3551 -0.1601 -0.4812
 8732TIP3    H147611   5.500   3.052  15.248  1.0182  2.9410 -0.3291
 8732TIP3    H247612   5.626   3.040  15.165  0.4264  0.3037 -0.9284
 8733TIP3   OH247613   3.939   2.651  14.460 -0.3604 -0.1714  0.2378
 8733TIP3    H147614   3.861   2.649  14.405 -1.9128 -1.7537  2.3825
 8733TIP3    H247615   3.998   2.711  14.414 -1.9379 -0.6038 -2.5844
 8734TIP3   OH247616   4.578   5.996  14.838  0.3281 -0.1387  0.1870
 8734TIP3    H147617   4.561   5.921  14.895  0.5392  0.7884  1.5215
 8734TIP3    H247618   4.533   5.975  14.756 -0.5491 -1.2195  0.9197
 8735TIP3   OH247619   4.704   2.443   1.572  0.3692 -0.2281 -0.6037
 8735TIP3    H147620   4.715   2.445   1.667  1.4763 -1.7686 -0.6573
 8735TIP3    H247621   4.723   2.533   1.544  2.1887 -0.2144  0.4596
 8736TIP3   OH247622   3.873   3.188   1.196  0.0279 -0.4901  0.0373
 8736TIP3    H147623   3.861   3.246   1.272  1.4436  0.8213 -0.6968
 8736TIP3    H247624   3.890   3.102   1.234 -1.0935 -0.2507  1.1645
 8737TIP3   OH247625   4.586   6.121  11.425 -0.0039 -0.1393  0.7194
 8737TIP3    H147626   4.630   6.206  11.433  1.4987 -0.7184 -0.8237
 8737TIP3    H247627   4.546   6.123  11.338  2.9484 -2.1985 -0.8482
 8738TIP3   OH247628   0.482   3.964  13.304 -0.2374 -0.2485 -0.0774
 8738TIP3    H147629   0.408   3.904  13.295 -0.2758 -0.2177  0.0308
 8738TIP3    H247630   0.529   3.956  13.221  0.0982 -0.8781  0.1651
 8739TIP3   OH247631   4.626   0.248  14.705 -0.4527 -0.4490 -0.3826
 8739TIP3    H147632   4.689   0.289  14.645  0.5917 -1.7755 -0.2278
 8739TIP3    H247633   4.665   0.163  14.727 -2.4484 -1.4571 -0.5304
 8740TIP3   OH247634   4.257   1.704   4.720 -0.6900  0.3724  0.3508
 8740TIP3    H147635   4.266   1.626   4.666  1.4224 -0.1587  1.3693
 8740TIP3    H247636   4.162   1.717   4.729 -1.0806 -0.8416 -1.5255
 8741TIP3   OH247637   0.499   4.396  16.626  0.4645  0.1865 -0.1198
 8741TIP3    H147638   0.482   4.325  16.688  2.2501  0.0045  0.2355
 8741TIP3    H247639   0.415   4.439  16.615 -1.5850 -3.9176 -2.8921
 8742TIP3   OH247640   0.546   3.989   5.502  1.3447 -0.7155 -0.6447
 8742TIP3    H147641   0.579   3.899   5.505  2.6462 -0.2842 -1.1568
 8742TIP3    H247642   0.624   4.043   5.511  0.4826  0.3866  0.5920
 8743TIP3   OH247643   3.388   3.052  12.245 -0.0288 -0.0746 -0.1554
 8743TIP3    H147644   3.310   3.000  12.222 -0.4415 -0.0284  1.0394
 8743TIP3    H247645   3.424   3.080  12.162  0.0475 -2.0499 -0.8464
 8744TIP3   OH247646   6.303   0.784  14.456  0.4885  0.0410 -0.4858
 8744TIP3    H147647   6.271   0.710  14.507 -0.0802  0.2711 -0.4998
 8744TIP3    H247648   6.287   0.759  14.365  1.9947 -0.6014 -0.6121
 8745TIP3   OH247649   2.491   3.952  15.061  0.2783 -0.1081  0.1593
 8745TIP3    H147650   2.566   3.985  15.111 -0.4689  3.0292 -0.5899
 8745TIP3    H247651   2.420   4.013  15.081 -0.9450 -0.6463 -2.1751
 8746TIP3   OH247652   0.812   6.394  15.728 -0.4682 -0.1056  0.3578
 8746TIP3    H147653   0.836   6.383  15.636 -1.2514  0.8784  0.0177
 8746TIP3    H247654   0.832   6.486  15.747  1.2309 -0.6811  1.6652
 8747TIP3   OH247655   6.425   2.423  14.709  0.0810  0.1428 -0.3493
 8747TIP3    H147656   6.440   2.352  14.771 -0.1753  0.3910  0.0043
 8747TIP3    H247657   6.512   2.456  14.688  0.1451  0.3376  0.2117
 8748TIP3   OH247658   4.335   1.763   2.234 -0.2070 -0.1817 -0.2825
 8748TIP3    H147659   4.302   1.850   2.214 -1.6352 -1.1137 -2.3664
 8748TIP3    H247660   4.430   1.771   2.230 -0.2531  1.5544  1.0639
 8749TIP3   OH247661   0.412   3.720  14.292 -0.0770  0.2459 -0.0493
 8749TIP3    H147662   0.392   3.693  14.202  0.3796  1.5302 -0.5589
 8749TIP3    H247663   0.336   3.771  14.319  0.0037  0.2895  0.0973
 8750TIP3   OH247664   0.321   1.369   6.050  0.3386 -0.2572 -0.4054
 8750TIP3    H147665   0.301   1.459   6.024 -0.8815 -0.1012  0.9436
 8750TIP3    H247666   0.236   1.332   6.074  1.0713 -1.1545  0.8766
 8751TIP3   OH247667   1.832   0.183   5.778  0.3476 -0.2115  0.3443
 8751TIP3    H147668   1.775   0.109   5.800  0.0966 -0.0870  0.1199
 8751TIP3    H247669   1.776   0.260   5.787  1.3755  0.2838  3.5775
 8752TIP3   OH247670   3.230   4.025   1.193  0.3650 -0.2855 -0.1409
 8752TIP3    H147671   3.192   4.099   1.145  1.5226  1.4459  1.4615
 8752TIP3    H247672   3.320   4.052   1.211  0.6930 -1.9228  0.8363
 8753TIP3   OH247673   4.737   5.579  13.671 -0.1400  0.0322 -0.1985
 8753TIP3    H147674   4.734   5.503  13.612  0.6623 -0.9048  0.9326
 8753TIP3    H247675   4.814   5.565  13.725 -0.5913  1.1111  0.7695
 8754TIP3   OH247676   4.664   3.890  13.162 -0.9625 -0.6673 -0.3582
 8754TIP3    H147677   4.685   3.883  13.069  0.8486 -0.6586  0.0194
 8754TIP3    H247678   4.653   3.984  13.176 -0.4361 -0.6027 -0.3922
 8755TIP3   OH247679   4.231   5.459   4.557  0.6254  0.2611  0.1219
 8755TIP3    H147680   4.197   5.518   4.490  3.0240 -1.6223 -3.0351
 8755TIP3    H247681   4.296   5.510   4.604  0.3719  1.0197 -0.3393
 8756TIP3   OH247682   1.649   5.065   0.725  0.2942 -0.0073 -0.2914
 8756TIP3    H147683   1.672   5.051   0.817  2.1056 -0.5298 -0.7788
 8756TIP3    H247684   1.620   5.156   0.721 -2.3929 -0.6741  1.2230
 8757TIP3   OH247685   1.223   6.393   6.000 -0.3033 -0.3111 -0.2978
 8757TIP3    H147686   1.211   6.350   6.084  0.4237 -2.0211 -1.0124
 8757TIP3    H247687   1.313   6.372   5.975 -0.0952  1.1952 -0.9608
 8758TIP3   OH247688   4.657   1.970   1.229 -0.4351 -0.8849  0.0503
 8758TIP3    H147689   4.721   1.920   1.178 -0.7874 -0.9015 -0.3899
 8758TIP3    H247690   4.672   2.061   1.204 -1.6062 -1.0139 -1.2807
 8759TIP3   OH247691   6.238   0.325  14.392 -0.4923 -0.0510  0.2424
 8759TIP3    H147692   6.317   0.289  14.432  0.6441  1.7472 -0.3128
 8759TIP3    H247693   6.259   0.333  14.299 -1.1726  0.8150  0.1497
 8760TIP3   OH247694   2.521   1.239   2.061 -0.2540  0.5633  0.5678
 8760TIP3    H147695   2.596   1.182   2.075  0.4803  0.8379 -1.7014
 8760TIP3    H247696   2.557   1.328   2.064 -0.2400  0.6775 -1.3357
 8761TIP3   OH247697   1.035   1.485   2.489 -0.4216 -0.0408  0.0810
 8761TIP3    H147698   1.097   1.448   2.426  0.2220  0.5667  0.3542
 8761TIP3    H247699   0.954   1.496   2.438 -0.1629 -0.3470 -0.4107
 8762TIP3   OH247700   0.774   6.247  15.260 -0.0780  0.0445 -0.3224
 8762TIP3    H147701   0.768   6.338  15.230  1.0527  0.1462 -0.3123
 8762TIP3    H247702   0.793   6.197  15.181 -0.2100 -0.1089 -0.2561
 8763TIP3   OH247703   2.911   5.288   1.935 -0.4989 -0.0139 -0.0393
 8763TIP3    H147704   2.825   5.247   1.937 -1.1101  1.0357 -2.0962
 8763TIP3    H247705   2.925   5.311   1.843  1.0722  1.6985  0.5570
 8764TIP3   OH247706   4.180   2.522  16.622  0.4595  0.1489 -0.1712
 8764TIP3    H147707   4.223   2.552  16.541  0.7271 -0.2922 -0.1987
 8764TIP3    H247708   4.242   2.545  16.692  1.2643 -1.4202 -0.3088
 8765TIP3   OH247709   5.560   3.858  11.573  0.3668  0.8299  0.1503
 8765TIP3    H147710   5.645   3.814  11.574 -0.4732 -1.2105 -3.3792
 8765TIP3    H247711   5.573   3.936  11.519  0.0536  0.5804 -0.2950
 8766TIP3   OH247712   3.595   1.671   0.311  0.0200 -0.3380  0.2571
 8766TIP3    H147713   3.569   1.743   0.254  0.6112 -0.9139 -0.7777
 8766TIP3    H247714   3.611   1.711   0.396  2.8099  1.2329 -0.8718
 8767TIP3   OH247715   1.765   1.572  16.196  0.2253  0.2635 -0.4918
 8767TIP3    H147716   1.700   1.522  16.146  0.8719  0.5164 -1.6240
 8767TIP3    H247717   1.726   1.659  16.206  0.2408  0.3188 -0.8831
 8768TIP3   OH247718   5.805   2.028   4.816 -0.5897  0.1651 -0.1563
 8768TIP3    H147719   5.783   2.004   4.905  1.5228 -0.7825  0.1770
 8768TIP3    H247720   5.752   2.105   4.797 -2.6835 -0.9068  1.1145
 8769TIP3   OH247721   6.190   5.373   3.486 -0.1193 -0.8204 -0.1515
 8769TIP3    H147722   6.209   5.279   3.488 -1.5128 -1.1265  1.8753
 8769TIP3    H247723   6.144   5.386   3.403 -0.5055 -2.0737 -0.1586
 8770TIP3   OH247724   5.473   6.306  13.769 -0.3395 -0.3071  0.3036
 8770TIP3    H147725   5.430   6.390  13.786  0.5275  0.4327 -1.0283
 8770TIP3    H247726   5.408   6.255  13.720 -0.3933  0.0969 -0.0515
 8771TIP3   OH247727   3.469   4.697   6.258 -0.0902  0.4576 -0.3009
 8771TIP3    H147728   3.414   4.619   6.267  1.1827 -0.5531 -1.0730
 8771TIP3    H247729   3.418   4.767   6.301 -1.2899 -0.7555  0.3180
 8772TIP3   OH247730   2.132   1.012  11.751  0.4226  0.5515  0.0742
 8772TIP3    H147731   2.048   1.033  11.709  0.4923 -0.1304 -0.4067
 8772TIP3    H247732   2.140   1.077  11.821 -0.4219  0.7385  0.0074
 8773TIP3   OH247733   2.412   3.343   2.287 -0.0205  0.1430  0.1524
 8773TIP3    H147734   2.406   3.283   2.361  0.0111  0.7137  0.6179
 8773TIP3    H247735   2.488   3.313   2.237  0.3479  0.1568  0.7052
 8774TIP3   OH247736   3.162   4.080   5.366  0.5363 -0.0453 -1.0109
 8774TIP3    H147737   3.247   4.035   5.361 -0.4691 -2.1239 -0.7047
 8774TIP3    H247738   3.145   4.087   5.460 -0.3961 -1.2783 -1.0599
 8775TIP3   OH247739   4.047   5.946   3.317  0.3884 -0.1542  0.1177
 8775TIP3    H147740   4.098   5.903   3.385  1.3066  1.1761  0.3091
 8775TIP3    H247741   3.971   5.890   3.305  1.2212 -1.4806  0.7902
 8776TIP3   OH247742   1.857   0.595  16.349  0.1536  0.2199  0.1958
 8776TIP3    H147743   1.786   0.644  16.391  0.0588  0.0792  0.1969
 8776TIP3    H247744   1.839   0.600  16.256  0.4053  0.5966  0.1638
 8777TIP3   OH247745   1.651   4.430   1.579  0.6067  0.1667 -0.0891
 8777TIP3    H147746   1.716   4.499   1.565  0.8921 -0.1102 -0.1622
 8777TIP3    H247747   1.574   4.475   1.613  0.6356  0.5782 -0.5631
 8778TIP3   OH247748   1.611   1.817   0.728  0.4252 -0.0917 -0.1207
 8778TIP3    H147749   1.583   1.861   0.648  1.3738 -1.2136 -1.1077
 8778TIP3    H247750   1.704   1.838   0.736  0.5008 -0.5654  0.2939
 8779TIP3   OH247751   6.665   0.752  15.233 -0.0452 -0.0333  0.0735
 8779TIP3    H147752   6.724   0.768  15.307  0.5438 -0.5141 -0.2791
 8779TIP3    H247753   6.695   0.669  15.196 -0.6325 -0.0326 -0.4216
 8780TIP3   OH247754   6.665   2.207   1.348 -0.2325 -0.5194  0.1609
 8780TIP3    H147755   6.676   2.294   1.386  2.9711 -0.3744 -0.8349
 8780TIP3    H247756   6.572   2.187   1.360 -0.7654  2.4018  1.6981
 8781TIP3   OH247757   1.452   3.193  15.002  0.1508 -0.5694  0.0794
 8781TIP3    H147758   1.523   3.250  15.031  2.3791 -2.9584 -0.3195
 8781TIP3    H247759   1.488   3.104  15.006 -2.1391 -1.7540 -2.0727
 8782TIP3   OH247760   2.360   4.558   6.381 -0.9962  0.0399 -0.0780
 8782TIP3    H147761   2.422   4.621   6.418 -1.8841  0.7787  0.2006
 8782TIP3    H247762   2.274   4.590   6.410 -1.4490 -1.4923  0.3391
 8783TIP3   OH247763   3.231   4.524   4.738  0.0421 -0.2905 -0.2428
 8783TIP3    H147764   3.213   4.503   4.646 -0.0238  0.8907 -0.5168
 8783TIP3    H247765   3.186   4.455   4.788 -0.2607 -0.7137 -1.0762
 8784TIP3   OH247766   3.481   6.381   2.865 -0.2450 -0.2444  0.3228
 8784TIP3    H147767   3.524   6.441   2.926  0.4130 -1.1005  0.7394
 8784TIP3    H247768   3.388   6.388   2.884 -0.4410  2.2405 -1.1257
 8785TIP3   OH247769   4.111   5.440  15.976  0.0674 -0.8443  0.2804
 8785TIP3    H147770   4.114   5.467  16.068 -1.2926 -0.0933  0.1328
 8785TIP3    H247771   4.100   5.521  15.927 -2.0718 -1.4078 -0.3105
 8786TIP3   OH247772   4.174   0.390   3.300  0.2092 -0.1188  0.6362
 8786TIP3    H147773   4.259   0.391   3.257  0.1357  1.3877  0.4852
 8786TIP3    H247774   4.135   0.306   3.273  0.0051  0.8757 -2.5802
 8787TIP3   OH247775   4.685   5.360   1.998  0.0656  0.1147 -0.3699
 8787TIP3    H147776   4.659   5.396   1.913 -0.4731  1.6779  0.4210
 8787TIP3    H247777   4.667   5.430   2.061  5.2793  1.1071  0.4588
 8788TIP3   OH247778   0.303   4.862   3.878  0.1316 -0.5871 -0.3424
 8788TIP3    H147779   0.303   4.801   3.804 -1.3242 -2.6860  1.2822
 8788TIP3    H247780   0.216   4.902   3.876 -0.1646 -1.1588  0.5953
 8789TIP3   OH247781   1.055   6.542   2.454  0.3195  0.4175  1.1272
 8789TIP3    H147782   0.989   6.475   2.469  1.6113 -0.4624  3.1187
 8789TIP3    H247783   1.015   6.600   2.389 -1.3731 -1.4795  0.3834
 8790TIP3   OH247784   5.102   2.292   0.417  0.2869  0.2692  0.6750
 8790TIP3    H147785   5.104   2.222   0.352 -1.4317 -1.6049  2.5136
 8790TIP3    H247786   5.186   2.284   0.463  0.2793 -0.3037  0.5951
 8791TIP3   OH247787   1.256   5.532   5.217 -0.1594 -0.0608 -0.1749
 8791TIP3    H147788   1.341   5.504   5.253  2.2172  2.3883 -3.2291
 8791TIP3    H247789   1.235   5.612   5.265 -0.3313 -0.2366  0.0439
 8792TIP3   OH247790   3.019   1.487   2.271 -0.7228  0.2504 -0.6948
 8792TIP3    H147791   2.950   1.429   2.303 -0.1648 -1.6781 -2.7735
 8792TIP3    H247792   3.100   1.449   2.305 -0.4750  1.1086 -0.2861
 8793TIP3   OH247793   1.303   2.285   4.200 -0.3086  0.1442 -0.2290
 8793TIP3    H147794   1.352   2.204   4.209 -1.0947 -0.4574 -1.1462
 8793TIP3    H247795   1.253   2.292   4.281 -1.3937 -1.1147 -0.7416
 8794TIP3   OH247796   1.141   1.737  16.908 -0.2463  0.3208  0.5332
 8794TIP3    H147797   1.224   1.757  16.865 -2.1541  2.1430 -2.8017
 8794TIP3    H247798   1.155   1.654  16.952  3.2528  0.4723 -0.0535
 8795TIP3   OH247799   2.595   3.592   2.359 -0.3939 -0.5170 -0.8888
 8795TIP3    H147800   2.651   3.613   2.434 -0.4150  0.3076 -1.0985
 8795TIP3    H247801   2.506   3.591   2.394 -0.2691 -1.8619 -0.5473
 8796TIP3   OH247802   5.677   5.979   1.886 -0.5302  0.2281 -0.3490
 8796TIP3    H147803   5.646   6.057   1.932 -1.2627  0.2164 -0.8018
 8796TIP3    H247804   5.650   5.906   1.942  0.3715  0.2988  0.1968
 8797TIP3   OH247805   0.920   3.698   0.840  0.5624 -0.6740 -0.5433
 8797TIP3    H147806   0.855   3.768   0.841  0.7571 -0.4848  1.5588
 8797TIP3    H247807   0.903   3.652   0.757 -1.0540  0.4542 -0.8920
 8798TIP3   OH247808   1.057   4.513   4.399 -0.0716  0.1532 -0.2185
 8798TIP3    H147809   1.029   4.424   4.375 -0.0285  0.3088 -0.8638
 8798TIP3    H247810   1.041   4.518   4.493 -0.8324 -0.2691 -0.3133
 8799TIP3   OH247811   5.182   5.487   1.574  0.4206  0.0385 -0.1428
 8799TIP3    H147812   5.147   5.402   1.547 -1.5821 -0.2069  2.7696
 8799TIP3    H247813   5.275   5.482   1.553 -0.0171 -1.9921 -2.0012
 8800TIP3   OH247814   6.261   6.009  15.843 -0.2199  0.7937 -0.0126
 8800TIP3    H147815   6.281   6.102  15.844  0.6516  0.6125  1.3535
 8800TIP3    H247816   6.171   6.003  15.877 -1.3121  1.2862 -2.5340
 8801TIP3   OH247817   4.174   6.344  11.399  0.2038 -0.4096 -0.8952
 8801TIP3    H147818   4.144   6.413  11.339 -1.6088 -0.3172  0.0392
 8801TIP3    H247819   4.269   6.357  11.405  0.1010  1.0577 -1.9041
 8802TIP3   OH247820   0.761   1.058   4.333  0.7448  0.1316 -0.0451
 8802TIP3    H147821   0.778   0.968   4.306  0.6521  0.1806 -0.2683
 8802TIP3    H247822   0.712   1.096   4.260  0.9200  0.4082 -0.0166
 8803TIP3   OH247823   6.479   6.723   0.490 -0.1078 -0.3421 -0.1699
 8803TIP3    H147824   6.500   6.652   0.550  1.5057  0.2449  0.0298
 8803TIP3    H247825   6.405   6.691   0.439  1.1814 -2.6009 -0.7842
 8804TIP3   OH247826   2.928   2.497   4.619 -0.4420  0.2000  0.2590
 8804TIP3    H147827   2.860   2.564   4.605 -0.0626  0.4605 -0.3853
 8804TIP3    H247828   2.972   2.490   4.535 -0.9048 -1.3606  0.1199
 8805TIP3   OH247829   4.725   2.437   0.924 -0.0263 -0.2517  0.2723
 8805TIP3    H147830   4.632   2.453   0.939 -0.3839 -2.5809  0.9673
 8805TIP3    H247831   4.769   2.479   0.998 -0.5119  0.7470  0.0088
 8806TIP3   OH247832   5.625   0.153  12.962 -0.1278 -0.0200  0.0565
 8806TIP3    H147833   5.643   0.106  13.043 -0.1749 -1.0329 -0.5068
 8806TIP3    H247834   5.688   0.225  12.961 -0.2354  0.0976  1.0636
 8807TIP3   OH247835   3.996   3.130   2.246 -0.6723  0.1377 -0.6855
 8807TIP3    H147836   3.958   3.044   2.262  0.7310 -0.5633 -1.0153
 8807TIP3    H247837   4.090   3.114   2.237 -0.0787  1.9798  1.3632
 8808TIP3   OH247838   2.926   2.680  15.442  0.6427  0.4874  0.0564
 8808TIP3    H147839   2.861   2.741  15.407  0.5428  0.5972  0.4261
 8808TIP3    H247840   2.963   2.637  15.365 -0.1265  0.1639 -0.1360
 8809TIP3   OH247841   5.540   0.133   2.626 -0.1913 -0.1231  0.5403
 8809TIP3    H147842   5.625   0.154   2.664 -0.3957 -1.2830  1.6943
 8809TIP3    H247843   5.554   0.051   2.580 -0.7755 -0.5630  1.1277
 8810TIP3   OH247844   0.013   3.075   1.412 -0.9481  0.0635 -0.1325
 8810TIP3    H147845   0.081   3.078   1.479 -0.3402 -1.3282 -0.6397
 8810TIP3    H247846   0.057   3.039   1.334 -1.1646  3.2740 -1.9145
 8811TIP3   OH247847   0.078   0.597  13.213  0.3719  0.6831 -0.5554
 8811TIP3    H147848   0.069   0.553  13.298 -1.0679  0.0773 -0.9917
 8811TIP3    H247849   0.158   0.561  13.176  0.3886  0.0671  0.0444
 8812TIP3   OH247850   0.849   5.699  12.138  0.6340  0.9757  0.1984
 8812TIP3    H147851   0.864   5.793  12.146  1.5043  0.6913  2.6865
 8812TIP3    H247852   0.919   5.669  12.079 -0.2695  1.9780 -1.4505
 8813TIP3   OH247853   0.180   3.751   0.445  0.1216  0.1995  0.5287
 8813TIP3    H147854   0.135   3.829   0.478  0.8699  0.3421  1.2565
 8813TIP3    H247855   0.113   3.683   0.447  0.1967  0.0999  2.7976
 8814TIP3   OH247856   4.265   4.859   0.442  0.0314  0.0490 -0.1294
 8814TIP3    H147857   4.237   4.792   0.380  0.6655  0.5561 -0.9884
 8814TIP3    H247858   4.185   4.888   0.484 -0.3233 -0.8129 -0.1952
 8815TIP3   OH247859   5.203   1.375   1.285  0.2919  0.4735 -0.1463
 8815TIP3    H147860   5.260   1.451   1.288 -1.1107  1.7085 -2.2920
 8815TIP3    H247861   5.254   1.309   1.238 -0.1577  1.8269 -2.7684
 8816TIP3   OH247862   2.262   3.547   2.165 -0.4306  0.1582  0.2003
 8816TIP3    H147863   2.304   3.476   2.214  0.6474 -0.3267 -1.3376
 8816TIP3    H247864   2.169   3.540   2.187  0.0826  0.5074  2.7775
 8817TIP3   OH247865   2.770   2.980   1.101 -0.5333 -0.2710  0.9584
 8817TIP3    H147866   2.720   2.900   1.086 -1.8724  0.8128 -0.8430
 8817TIP3    H247867   2.835   2.956   1.167 -0.8068 -2.8417  0.4009
 8818TIP3   OH247868   5.063   1.533  12.754 -0.1765  0.2486 -0.1469
 8818TIP3    H147869   5.137   1.509  12.811  0.0819  0.7262 -0.2823
 8818TIP3    H247870   4.998   1.465  12.771  0.8481 -1.0299 -1.1207
 8819TIP3   OH247871   5.673   0.487   2.770 -0.2356 -0.1229  0.1745
 8819TIP3    H147872   5.750   0.544   2.764  0.1632 -0.7689 -1.6341
 8819TIP3    H247873   5.598   0.547   2.762  0.1798  0.1752 -3.2199
 8820TIP3   OH247874   0.561   1.979   0.999  0.0786  0.3785 -0.4746
 8820TIP3    H147875   0.652   1.952   0.992 -0.0359  0.4040 -2.9130
 8820TIP3    H247876   0.560   2.043   1.071  1.8340 -0.0706 -0.0065
 8821TIP3   OH247877   0.400   5.055   5.344 -0.2724  0.5750 -0.8526
 8821TIP3    H147878   0.426   5.106   5.267  0.2623  1.5464 -0.0547
 8821TIP3    H247879   0.385   5.121   5.412  0.6384 -0.3444  0.2635
 8822TIP3   OH247880   2.855   6.224  13.887  0.2555 -0.3804 -0.5600
 8822TIP3    H147881   2.782   6.174  13.851 -0.3189 -0.4217  0.6072
 8822TIP3    H247882   2.923   6.219  13.820 -1.5124  1.4323 -2.6724
 8823TIP3   OH247883   2.758   1.429   5.319 -0.0783  0.1242 -0.2764
 8823TIP3    H147884   2.724   1.508   5.277  0.4058  0.2807 -0.3740
 8823TIP3    H247885   2.853   1.437   5.314 -0.0165 -1.0419 -1.3632
 8824TIP3   OH247886   5.204   5.275  16.149  0.6503  0.7494  0.5741
 8824TIP3    H147887   5.114   5.257  16.174  0.6150  0.0353 -0.0255
 8824TIP3    H247888   5.198   5.344  16.083  0.4598  0.0470 -0.1588
 8825TIP3   OH247889   4.179   4.806  15.447  0.4129 -0.5044 -0.1184
 8825TIP3    H147890   4.239   4.875  15.419  0.1917 -1.3723 -3.0192
 8825TIP3    H247891   4.093   4.849  15.452  0.6177 -0.1260  0.1576
 8826TIP3   OH247892   4.972   0.763  13.046  0.4358  0.3221  0.1565
 8826TIP3    H147893   5.052   0.783  13.096  0.5787 -0.4185  0.2382
 8826TIP3    H247894   4.996   0.687  12.992 -0.3425 -0.1838  0.5041
 8827TIP3   OH247895   3.192   6.012   2.049  0.6240 -0.1182 -0.0441
 8827TIP3    H147896   3.215   6.034   2.139  2.1624 -1.4603 -0.0571
 8827TIP3    H247897   3.159   5.922   2.054  3.2172 -1.2203 -1.0790
 8828TIP3   OH247898   2.773   3.594  16.308 -0.1142 -0.1458 -0.2813
 8828TIP3    H147899   2.712   3.644  16.254  0.8050  0.2019 -1.0170
 8828TIP3    H247900   2.717   3.531  16.354 -1.0027 -0.0418 -1.1667
 8829TIP3   OH247901   3.350   5.257   5.658 -0.4342 -0.4893 -0.3885
 8829TIP3    H147902   3.302   5.279   5.578  0.3421 -0.2509 -0.7992
 8829TIP3    H247903   3.337   5.332   5.716  2.3550  1.2859 -1.8515
 8830TIP3   OH247904   1.385   6.376  12.620  0.4602  0.4490 -0.0199
 8830TIP3    H147905   1.478   6.383  12.597  0.6085 -0.1523  0.3630
 8830TIP3    H247906   1.341   6.356  12.538  0.7852 -0.1447 -0.0555
 8831TIP3   OH247907   4.077   0.847  17.156  0.4675 -0.5336  0.0700
 8831TIP3    H147908   4.100   0.932  17.192 -2.9753  0.8034 -0.5084
 8831TIP3    H247909   4.027   0.866  17.077  1.0170 -3.1885 -1.0580
 8832TIP3   OH247910   2.478   1.380  14.275 -0.2054  0.6109 -0.5697
 8832TIP3    H147911   2.451   1.471  14.287  4.2132  2.1582 -0.4033
 8832TIP3    H247912   2.534   1.382  14.198  0.2212 -1.9540 -0.4046
 8833TIP3   OH247913   0.120   5.460  12.720 -0.0022 -0.3046 -0.6682
 8833TIP3    H147914   0.157   5.538  12.679  0.9350  0.0315  0.7677
 8833TIP3    H247915   0.195   5.406  12.742 -0.6106 -1.3713 -1.1292
 8834TIP3   OH247916   4.815   4.241  12.676  0.2748 -0.2769 -0.0016
 8834TIP3    H147917   4.890   4.244  12.735  0.3269  1.1331 -0.1193
 8834TIP3    H247918   4.821   4.321  12.624 -0.2970 -1.0327 -1.2819
 8835TIP3   OH247919   5.796   0.885   5.614 -0.1008  0.5712  0.6473
 8835TIP3    H147920   5.720   0.928   5.652  0.3694  0.4759  1.7079
 8835TIP3    H247921   5.767   0.795   5.596  0.1457  0.1146  2.3596
 8836TIP3   OH247922   0.353   2.315  11.607  0.3430  0.3149  0.7427
 8836TIP3    H147923   0.383   2.378  11.542  4.1738  0.0972  2.0918
 8836TIP3    H247924   0.315   2.368  11.676 -1.2589  0.6979 -0.3626
 8837TIP3   OH247925   2.692   2.026  15.220  0.5968  0.5831 -0.1983
 8837TIP3    H147926   2.633   1.990  15.154  0.9429 -1.8489  0.7451
 8837TIP3    H247927   2.779   2.015  15.182  0.8530 -1.4472  0.8567
 8838TIP3   OH247928   1.309   5.662   4.973  0.3304 -0.5759  0.2630
 8838TIP3    H147929   1.271   5.583   5.011 -0.5138  0.1783  1.0245
 8838TIP3    H247930   1.251   5.733   5.002  0.8121  0.2689 -0.7784
 8839TIP3   OH247931   3.542   3.260  11.704 -0.4330 -0.6953 -0.5247
 8839TIP3    H147932   3.483   3.191  11.675  0.4972 -1.6407 -0.2113
 8839TIP3    H247933   3.518   3.336  11.650 -1.3174 -1.3116 -1.0271
 8840TIP3   OH247934   6.163   2.222   1.146 -0.0545 -0.6522 -0.2531
 8840TIP3    H147935   6.210   2.191   1.069 -0.5838  1.6061 -1.5800
 8840TIP3    H247936   6.074   2.190   1.134 -0.0270 -0.6897 -0.3595
 8841TIP3   OH247937   2.405   1.951   2.504 -0.1889 -0.3013 -0.7190
 8841TIP3    H147938   2.428   1.953   2.597  1.8186 -0.3745 -1.1776
 8841TIP3    H247939   2.403   2.043   2.477  0.0396 -0.3215 -0.8007
 8842TIP3   OH247940   6.442   1.149  12.342 -0.1512 -0.4376 -0.1651
 8842TIP3    H147941   6.476   1.174  12.256 -0.6452  0.7464 -0.0424
 8842TIP3    H247942   6.359   1.198  12.349  1.0884  1.5633  2.0195
 8843TIP3   OH247943   2.998   1.416  10.725 -0.0150  0.4769  0.3357
 8843TIP3    H147944   3.028   1.489  10.671  1.5762 -1.6948 -1.9549
 8843TIP3    H247945   3.034   1.338  10.682 -2.1522 -1.7408  2.2724
 8844TIP3   OH247946   0.375   0.901   2.282 -0.4721 -0.4898  0.1243
 8844TIP3    H147947   0.319   0.876   2.209 -1.9167  0.1339  0.9636
 8844TIP3    H247948   0.392   0.994   2.269  0.8567 -0.7857 -0.4109
 8845TIP3   OH247949   4.443   4.921   2.622 -0.1259 -0.1786  0.0276
 8845TIP3    H147950   4.494   5.001   2.610 -0.1735 -0.1132  0.2570
 8845TIP3    H247951   4.441   4.880   2.535 -2.4257  1.4543 -0.8023
 8846TIP3   OH247952   5.026   3.977   4.795  0.3765  0.4396 -1.0706
 8846TIP3    H147953   4.949   3.967   4.738  1.0025 -0.2775 -1.8124
 8846TIP3    H247954   5.091   3.917   4.759  0.9471  0.2861  0.1588
 8847TIP3   OH247955   2.406   2.117   5.648  0.0057 -0.5737 -0.8024
 8847TIP3    H147956   2.432   2.033   5.685  0.4312  0.0440  0.3382
 8847TIP3    H247957   2.321   2.136   5.689  1.1500  0.8144  1.1148
 8848TIP3   OH247958   3.404   6.637   3.945  0.1503  0.0946 -0.1796
 8848TIP3    H147959   3.324   6.587   3.964  1.4735 -2.0971 -0.0135
 8848TIP3    H247960   3.463   6.615   4.018  0.6492  2.3612  0.1748
 8849TIP3   OH247961   5.001   5.253   0.910  0.0079 -0.1531 -0.2077
 8849TIP3    H147962   5.013   5.337   0.866 -1.1129  0.1318 -0.0141
 8849TIP3    H247963   4.945   5.273   0.985 -1.8747 -1.3631 -1.2105
 8850TIP3   OH247964   0.013   3.769  12.121 -0.0100  0.2928 -0.3809
 8850TIP3    H147965   0.022   3.680  12.157 -0.3974 -0.2550 -1.5902
 8850TIP3    H247966   0.056   3.825  12.185 -0.5551 -0.6630  0.8668
 8851TIP3   OH247967   3.635   1.832  15.890  0.1925  0.8472 -0.3212
 8851TIP3    H147968   3.684   1.763  15.846 -1.0401  0.4573 -1.1428
 8851TIP3    H247969   3.569   1.859  15.827 -1.7773  0.1331  1.3048
 8852TIP3   OH247970   4.283   5.693  12.108 -0.4732  0.1327 -0.1954
 8852TIP3    H147971   4.227   5.738  12.171  0.5508  1.9813 -0.5387
 8852TIP3    H247972   4.320   5.619  12.157 -2.2577 -0.4360  0.3654
 8853TIP3   OH247973   3.603   5.763   6.546 -0.1159 -0.4143 -0.1496
 8853TIP3    H147974   3.595   5.704   6.621  0.3646  1.1640  1.1901
 8853TIP3    H247975   3.569   5.712   6.472 -2.3650 -1.3942  1.4391
 8854TIP3   OH247976   2.728   2.051   3.619  0.2041 -0.4234  0.5323
 8854TIP3    H147977   2.740   2.015   3.532  0.2702  0.0275  0.3519
 8854TIP3    H247978   2.690   2.138   3.604  2.5865  0.7355  0.8195
 8855TIP3   OH247979   1.296   5.087  14.888  0.2565  0.3767 -0.1531
 8855TIP3    H147980   1.215   5.075  14.937 -0.4488  1.9889 -0.8310
 8855TIP3    H247981   1.337   5.001  14.887 -1.8894 -0.7102 -0.5692
 8856TIP3   OH247982   3.326   2.266  11.598  0.4476  0.1865 -0.1744
 8856TIP3    H147983   3.327   2.334  11.665 -0.4903 -0.6023  0.6685
 8856TIP3    H247984   3.334   2.184  11.646 -0.0118 -0.3864 -1.0432
 8857TIP3   OH247985   6.467   6.615  11.929 -0.1859  0.5858 -0.2532
 8857TIP3    H147986   6.452   6.698  11.884  0.7715 -0.4675 -2.6574
 8857TIP3    H247987   6.413   6.552  11.881  1.2512 -0.6856 -0.2469
 8858TIP3   OH247988   3.631   4.541  11.964  0.2921  0.5674  0.0074
 8858TIP3    H147989   3.536   4.548  11.972  0.2832  1.4381 -0.6973
 8858TIP3    H247990   3.644   4.496  11.880  0.5023  0.3637  0.1496
 8859TIP3   OH247991   6.033   3.011   1.758  0.0547 -0.1496  0.0444
 8859TIP3    H147992   6.045   3.054   1.673  0.0934 -0.6839 -0.2194
 8859TIP3    H247993   6.107   3.041   1.810  0.5857 -0.6036 -0.4301
 8860TIP3   OH247994   6.270   0.538  14.833  0.1005  0.2010  0.4289
 8860TIP3    H147995   6.182   0.572  14.821  0.6202  1.1703 -0.9011
 8860TIP3    H247996   6.315   0.559  14.752  1.2113 -1.4156  0.5719
 8861TIP3   OH247997   5.335   2.752   6.679 -0.0352 -0.1467  0.2724
 8861TIP3    H147998   5.397   2.769   6.608 -0.1357  2.2574  0.7034
 8861TIP3    H247999   5.390   2.743   6.757 -0.0242 -1.4934  0.1377
 8862TIP3   OH248000   2.464   4.493   3.556  0.0049 -0.8222 -0.0689
 8862TIP3    H148001   2.543   4.533   3.592  0.1599 -0.6697 -0.5700
 8862TIP3    H248002   2.410   4.567   3.530  0.0734 -0.9372 -0.5336
 8863TIP3   OH248003   3.282   2.020  12.252  0.6492 -0.1071  0.0986
 8863TIP3    H148004   3.246   2.035  12.164 -1.3397  0.5515  0.9648
 8863TIP3    H248005   3.364   1.973  12.236 -0.3280 -1.2704 -2.0661
 8864TIP3   OH248006   2.829   4.366  10.920  0.4616 -0.0355  0.3520
 8864TIP3    H148007   2.828   4.461  10.914  1.1978 -0.0992 -1.2293
 8864TIP3    H248008   2.870   4.348  11.005  0.9380  1.0507  0.3726
 8865TIP3   OH248009   0.880   6.095   4.630  0.2327 -0.4625  0.0722
 8865TIP3    H148010   0.903   6.179   4.670 -0.5440  0.0858 -0.5970
 8865TIP3    H248011   0.795   6.110   4.589  0.4346 -1.3515 -0.7185
 8866TIP3   OH248012   0.025   4.403  14.628 -0.4429 -0.5201  0.1376
 8866TIP3    H148013   0.093   4.430  14.566 -0.0610  0.0780  0.7990
 8866TIP3    H248014   0.042   4.311  14.645 -0.6534 -0.7326 -0.7722
 8867TIP3   OH248015   4.522   5.580  12.009  0.0149  0.4593  0.3774
 8867TIP3    H148016   4.440   5.624  12.032 -0.4670  0.3053 -0.9489
 8867TIP3    H248017   4.494   5.492  11.981  0.6065  0.4557 -0.2243
 8868TIP3   OH248018   6.647   3.166   0.398  0.2396 -0.4761  0.5478
 8868TIP3    H148019   6.695   3.083   0.391 -1.0054 -1.2106  0.4046
 8868TIP3    H248020   6.558   3.140   0.422 -0.5559  0.7193 -0.9473
 8869TIP3   OH248021   5.286   5.319  15.416 -0.8225  0.4691  0.7596
 8869TIP3    H148022   5.353   5.298  15.480 -1.1803 -0.9418  0.7257
 8869TIP3    H248023   5.313   5.272  15.337 -0.5123  1.9869 -0.0756
 8870TIP3   OH248024   5.656   1.782   4.787  0.3599 -0.3769  0.4713
 8870TIP3    H148025   5.711   1.852   4.824  1.1921 -0.5520 -0.3880
 8870TIP3    H248026   5.648   1.805   4.694  0.7240 -1.4692  0.1611
 8871TIP3   OH248027   5.420   4.547  15.983  0.0304  0.9762  0.5304
 8871TIP3    H148028   5.464   4.519  15.902 -1.1397 -1.0110  0.5200
 8871TIP3    H248029   5.414   4.642  15.975  1.1401  0.9607 -1.0815
 8872TIP3   OH248030   1.305   6.419   1.006  0.1168  0.2337  0.0619
 8872TIP3    H148031   1.302   6.329   0.973  0.9835  0.4716 -0.6954
 8872TIP3    H248032   1.364   6.415   1.081  2.0792  0.5792 -1.3941
 8873TIP3   OH248033   4.511   3.391  16.405 -0.1434 -0.6771  0.3105
 8873TIP3    H148034   4.465   3.472  16.428 -0.4906 -1.2479  1.7235
 8873TIP3    H248035   4.449   3.343  16.350 -1.5897 -1.7270  2.7140
 8874TIP3   OH248036   1.816   0.165  12.637 -0.5381  0.0858 -0.2879
 8874TIP3    H148037   1.855   0.231  12.580 -0.8133  0.7990  0.3256
 8874TIP3    H248038   1.737   0.137  12.590  0.0529 -0.4835 -0.9679
 8875TIP3   OH248039   5.612   4.412   2.906 -0.2966 -0.0930 -0.3983
 8875TIP3    H148040   5.595   4.472   2.834  1.2101 -0.8885 -1.4549
 8875TIP3    H248041   5.680   4.353   2.874  1.2954  0.2599  2.0660
 8876TIP3   OH248042   2.524   4.466   3.139  0.2549 -0.1422 -0.0804
 8876TIP3    H148043   2.515   4.497   3.229  1.2090  1.1017 -0.3894
 8876TIP3    H248044   2.486   4.378   3.140 -0.9076  0.3478  1.2389
 8877TIP3   OH248045   2.633   0.530  11.542 -0.2053  0.0669  0.0671
 8877TIP3    H148046   2.624   0.445  11.585  2.4485 -0.6388 -0.5657
 8877TIP3    H248047   2.546   0.570  11.548 -1.4958 -2.6037  0.5230
 8878TIP3   OH248048   2.332   3.849  13.822 -0.0858 -0.0548 -0.0787
 8878TIP3    H148049   2.428   3.854  13.818 -0.0208 -0.4873  0.7112
 8878TIP3    H248050   2.303   3.887  13.739  0.7214  1.1577  0.1660
 8879TIP3   OH248051   0.099   4.176   5.165  0.1514 -0.3720  0.1705
 8879TIP3    H148052   0.146   4.093   5.156  0.9452  0.0805  0.0571
 8879TIP3    H248053   0.120   4.207   5.253 -1.7294 -1.2211  0.9810
 8880TIP3   OH248054   1.392   4.221  15.521 -0.6062 -0.2708 -0.3045
 8880TIP3    H148055   1.321   4.282  15.541 -1.0640 -1.2691  1.2664
 8880TIP3    H248056   1.348   4.137  15.504  0.2124 -1.5774  3.2407
 8881TIP3   OH248057   1.649   0.662  12.890  0.1156  0.0456 -0.8767
 8881TIP3    H148058   1.626   0.570  12.903 -1.2656  0.3729 -0.8102
 8881TIP3    H248059   1.720   0.678  12.951  0.2554 -0.9365 -0.7646
 8882TIP3   OH248060   1.006   5.822   5.651 -0.4366  0.1614  0.0389
 8882TIP3    H148061   1.084   5.787   5.694 -0.2389  0.4396 -0.0880
 8882TIP3    H248062   1.035   5.904   5.613 -0.5485 -0.1757 -0.8040
 8883TIP3   OH248063   6.664   1.613   4.773  0.1896 -0.0044  0.3115
 8883TIP3    H148064   6.576   1.625   4.736  0.1088 -1.3791 -0.0059
 8883TIP3    H248065   6.674   1.518   4.779  1.6649  0.1370  0.3535
 8884TIP3   OH248066   5.495   0.471  11.454 -0.5711  0.0197 -0.4449
 8884TIP3    H148067   5.504   0.550  11.400 -0.7131  0.2485 -0.1384
 8884TIP3    H248068   5.582   0.456  11.490  0.3452 -1.8915 -3.1177
 8885TIP3   OH248069   0.245   5.093   3.632  0.1013  0.0683  0.1664
 8885TIP3    H148070   0.190   5.032   3.681 -0.7085  0.0854 -0.7016
 8885TIP3    H248071   0.279   5.153   3.699  1.1316 -1.4536  1.0667
 8886TIP3   OH248072   3.395   6.269   1.272  0.1120 -0.1298 -0.2852
 8886TIP3    H148073   3.472   6.297   1.322  1.4337 -0.1739 -2.2115
 8886TIP3    H248074   3.413   6.179   1.247 -0.1550  0.1215 -1.4650
 8887TIP3   OH248075   2.576   3.126   5.225  0.2687  0.4134 -0.0553
 8887TIP3    H148076   2.586   3.219   5.244  0.6737  0.2481  0.5757
 8887TIP3    H248077   2.612   3.115   5.137  2.7690  0.4160  0.8765
 8888TIP3   OH248078   0.365   4.974  14.147 -0.5413 -0.2804 -0.3755
 8888TIP3    H148079   0.421   4.935  14.214 -0.3520  0.3490 -0.1588
 8888TIP3    H248080   0.410   5.055  14.122 -0.4650 -0.6361 -1.4652
 8889TIP3   OH248081   6.299   1.345  15.822  0.4392 -0.0031  0.2131
 8889TIP3    H148082   6.210   1.376  15.806  0.4704 -0.5468 -1.1823
 8889TIP3    H248083   6.302   1.259  15.780  2.6465  1.4725 -3.0707
 8890TIP3   OH248084   0.606   1.240   2.883 -0.4532  0.0880  0.8470
 8890TIP3    H148085   0.699   1.221   2.881 -0.3554  0.5877  0.2986
 8890TIP3    H248086   0.597   1.308   2.950 -0.2927  0.6855  0.2675
 8891TIP3   OH248087   4.907   3.529  15.069 -0.2712  0.2275  0.3284
 8891TIP3    H148088   4.967   3.581  15.016  0.0153 -1.9548 -1.6178
 8891TIP3    H248089   4.962   3.466  15.115 -0.8271 -0.0790  0.5908
 8892TIP3   OH248090   3.046   5.701   4.006 -0.2154  0.3233 -0.0769
 8892TIP3    H148091   2.990   5.625   4.022 -0.8483  1.1110  1.6769
 8892TIP3    H248092   3.006   5.746   3.932 -1.4755  0.4438  0.6476
 8893TIP3   OH248093   2.865   6.351  12.096  0.4877  0.6646  0.6093
 8893TIP3    H148094   2.813   6.319  12.022  0.9740 -0.7232  0.8389
 8893TIP3    H248095   2.800   6.369  12.164  0.1237  1.0191  0.1785
 8894TIP3   OH248096   4.800   2.723   3.891  0.4221 -0.1492  0.1126
 8894TIP3    H148097   4.860   2.775   3.944 -0.7776  0.6376  0.7532
 8894TIP3    H248098   4.821   2.632   3.912 -0.1503  0.1337  2.1593
 8895TIP3   OH248099   4.512   3.666  15.693 -0.1981 -0.4039 -0.2400
 8895TIP3    H148100   4.459   3.686  15.770  0.5958 -1.6666  0.6778
 8895TIP3    H248101   4.601   3.690  15.718 -0.2800  1.8207 -1.8170
 8896TIP3   OH248102   0.226   4.867  10.943  0.1525 -0.7136 -0.0605
 8896TIP3    H148103   0.246   4.776  10.924 -0.1886 -0.7165 -0.4017
 8896TIP3    H248104   0.130   4.872  10.941  0.1911 -0.0170 -1.6171
 8897TIP3   OH248105   2.933   5.547  15.312  0.3563 -0.1415 -0.1519
 8897TIP3    H148106   3.004   5.490  15.342  0.1459 -0.1914  0.2660
 8897TIP3    H248107   2.917   5.520  15.222 -0.0335 -1.0453  0.1757
 8898TIP3   OH248108   0.111   5.112  10.784 -0.4463  0.4004  0.4336
 8898TIP3    H148109   0.104   5.178  10.853  0.8562 -0.9371  1.9287
 8898TIP3    H248110   0.085   5.158  10.705 -0.2739  2.5119  1.5201
 8899TIP3   OH248111   3.460   1.011   4.990  0.0519 -0.6434  0.0013
 8899TIP3    H148112   3.396   1.082   4.977 -0.6223 -1.3524 -0.6874
 8899TIP3    H248113   3.407   0.933   5.005  0.6864 -1.5196 -1.9765
 8900TIP3   OH248114   6.456   5.923  14.309  0.2841 -0.3888 -0.3942
 8900TIP3    H148115   6.378   5.932  14.364  0.2433 -2.0375 -0.1446
 8900TIP3    H248116   6.478   6.013  14.284 -2.4529  0.0501 -1.5505
 8901TIP3   OH248117   6.383   6.007  15.596 -0.0520  0.2560 -0.0685
 8901TIP3    H148118   6.362   5.924  15.555 -1.5270 -1.1879  3.2644
 8901TIP3    H248119   6.327   6.011  15.673  1.3600  3.4722  0.9714
 8902TIP3   OH248120   6.458   5.792  15.810  0.6942 -0.2319  0.3044
 8902TIP3    H148121   6.529   5.847  15.842  0.4391 -0.3711  1.1340
 8902TIP3    H248122   6.379   5.846  15.822  0.7623  0.3848 -1.6938
 8903TIP3   OH248123   3.110   5.995   3.090 -0.1444  0.0734  0.2661
 8903TIP3    H148124   3.016   6.014   3.096  0.1784  1.4954  1.2704
 8903TIP3    H248125   3.114   5.900   3.076 -1.7362  0.0727 -0.3880
 8904TIP3   OH248126   1.780   5.527  10.953 -0.1651  0.0291  0.0469
 8904TIP3    H148127   1.718   5.520  10.880  0.3931 -0.2752 -0.4012
 8904TIP3    H248128   1.839   5.454  10.942 -0.4604 -0.4089  1.1930
 8905TIP3   OH248129   0.233   5.937   1.253  0.1087  0.2767  0.5670
 8905TIP3    H148130   0.264   5.969   1.338  2.3868 -2.8272  1.1065
 8905TIP3    H248131   0.293   5.977   1.190  0.9760 -0.4847  0.8893
 8906TIP3   OH248132   4.755   4.600  15.719  0.4972 -0.2292  0.9451
 8906TIP3    H148133   4.722   4.561  15.638 -0.9495  1.4974  0.6414
 8906TIP3    H248134   4.735   4.536  15.786 -0.3283 -0.7316  0.2410
 8907TIP3   OH248135   3.881   4.886  12.520  0.0409 -0.3460 -0.1009
 8907TIP3    H148136   3.923   4.951  12.463 -0.0021 -0.6280 -0.4647
 8907TIP3    H248137   3.954   4.839  12.561  0.0725 -0.1737  0.0400
 8908TIP3   OH248138   3.374   2.417   2.329 -0.0277  0.1477 -0.0522
 8908TIP3    H148139   3.292   2.406   2.281  0.2277  2.7696 -1.2095
 8908TIP3    H248140   3.349   2.401   2.421 -1.2108 -1.6956 -0.6248
 8909TIP3   OH248141   3.742   0.318   3.238 -0.0553  0.9834  0.2071
 8909TIP3    H148142   3.755   0.265   3.159 -0.4209  0.6670  0.3586
 8909TIP3    H248143   3.821   0.371   3.244  0.3768  0.3641  0.1235
 8910TIP3   OH248144   0.085   0.399   2.835  0.4025  0.2488 -0.1741
 8910TIP3    H148145   0.062   0.362   2.921  2.0456 -1.0386 -0.2302
 8910TIP3    H248146   0.077   0.325   2.775  0.1032  0.9343 -0.9968
 8911TIP3   OH248147   5.180   0.019   3.294  0.2574  0.3723  0.1205
 8911TIP3    H148148   5.121  -0.022   3.231 -1.2780 -0.3129  1.9133
 8911TIP3    H248149   5.264  -0.024   3.279  0.0239  0.4192 -1.5991
 8912TIP3   OH248150   4.199   1.161  16.645  0.4934  0.3548 -0.1970
 8912TIP3    H148151   4.216   1.172  16.738 -0.7478  0.9374 -0.0214
 8912TIP3    H248152   4.131   1.095  16.641  0.4081  0.4694 -0.6800
 8913TIP3   OH248153   5.820   3.389   5.654 -0.3782  0.5907  0.6915
 8913TIP3    H148154   5.892   3.362   5.597 -0.0034  0.6533  1.1267
 8913TIP3    H248155   5.771   3.453   5.603  0.5555  1.4231  0.8130
 8914TIP3   OH248156   5.807   2.968   2.153 -1.0795 -0.3323  0.5981
 8914TIP3    H148157   5.848   2.895   2.106 -0.8960  0.0458  0.1590
 8914TIP3    H248158   5.780   2.930   2.236  0.2821 -0.5761  0.9654
 8915TIP3   OH248159   5.584   4.645  17.136  0.0838  0.2074 -0.6328
 8915TIP3    H148160   5.659   4.674  17.188  0.3845 -1.2928 -0.1737
 8915TIP3    H248161   5.623   4.592  17.066 -0.5347 -0.6269 -0.3628
 8916TIP3   OH248162   4.462   5.304  11.172  0.4423  0.2246  0.2984
 8916TIP3    H148163   4.420   5.232  11.124 -0.5043  0.4898  0.6950
 8916TIP3    H248164   4.468   5.375  11.108  0.3712  0.1520  0.2102
 8917TIP3   OH248165   3.289   2.445   1.546  0.0424  0.0497 -0.2272
 8917TIP3    H148166   3.362   2.404   1.592  0.9165  1.4685 -0.3032
 8917TIP3    H248167   3.226   2.373   1.532  0.5323 -0.7871  1.5770
 8918TIP3   OH248168   4.711   3.746   3.257  0.0570  0.0110  0.2781
 8918TIP3    H148169   4.778   3.700   3.206 -0.0279 -1.4051  1.3868
 8918TIP3    H248170   4.631   3.734   3.206  0.2228 -0.2498  0.0737
 8919TIP3   OH248171   6.208   1.123   0.673 -0.6000 -0.7423  0.2697
 8919TIP3    H148172   6.200   1.028   0.675 -3.3111 -0.6383 -1.3789
 8919TIP3    H248173   6.118   1.155   0.678  0.2662  1.7852  1.1695
 8920TIP3   OH248174   6.160   5.755   0.360  0.2569  0.1560  0.5591
 8920TIP3    H148175   6.139   5.744   0.452 -1.3998 -0.3569  0.1455
 8920TIP3    H248176   6.092   5.814   0.326  1.0980  0.7005 -0.2524
 8921TIP3   OH248177   4.465   5.181  15.630 -0.4191 -0.2495 -0.3259
 8921TIP3    H148178   4.440   5.174  15.722 -0.9964 -3.1238 -0.6048
 8921TIP3    H248179   4.383   5.202  15.584 -0.2492  0.5517 -0.2868
 8922TIP3   OH248180   4.565   1.122   1.077 -0.3687  0.7558 -0.1407
 8922TIP3    H148181   4.549   1.038   1.120 -0.5075  0.3972 -0.8822
 8922TIP3    H248182   4.561   1.102   0.983 -1.3980  1.7822 -0.3262
 8923TIP3   OH248183   6.636   5.075  13.505 -0.4203  0.7681 -0.8574
 8923TIP3    H148184   6.705   5.121  13.554  0.0401  1.0214 -1.7181
 8923TIP3    H248185   6.680   5.043  13.426 -0.5109 -1.9952  0.1172
 8924TIP3   OH248186   1.539   6.289  13.224 -0.0446  0.3495 -0.2217
 8924TIP3    H148187   1.605   6.357  13.216 -1.8277  2.4467  1.6224
 8924TIP3    H248188   1.544   6.260  13.315 -0.4244 -0.8238 -0.5504
 8925TIP3   OH248189   0.071   1.657   3.226  0.0831 -0.5642 -0.3335
 8925TIP3    H148190  -0.018   1.626   3.210  0.4409 -0.8761 -1.8599
 8925TIP3    H248191   0.060   1.742   3.269 -0.9182 -1.5786  1.4883
 8926TIP3   OH248192   4.843   6.620  15.799  0.2449  0.0920  0.3325
 8926TIP3    H148193   4.758   6.610  15.842 -1.1745 -0.4942 -2.3775
 8926TIP3    H248194   4.865   6.712  15.810 -1.3261  0.5183  0.1043
 8927TIP3   OH248195   0.177   0.228   5.559 -0.1019  0.2343 -0.2419
 8927TIP3    H148196   0.086   0.252   5.576  0.3508  0.1561  2.7828
 8927TIP3    H248197   0.224   0.254   5.638  1.9962 -2.3249 -0.5107
 8928TIP3   OH248198   1.243   5.526   3.922 -0.0676  0.6666  0.3262
 8928TIP3    H148199   1.309   5.548   3.988 -0.7402  0.1801  1.1795
 8928TIP3    H248200   1.160   5.534   3.968 -0.5440  0.2421 -0.4479
 8929TIP3   OH248201   3.925   4.268  11.926  0.2630  0.0890 -0.0169
 8929TIP3    H148202   3.905   4.199  11.989 -1.0152 -0.2741 -0.7672
 8929TIP3    H248203   3.983   4.226  11.862 -1.2015 -0.6098 -0.9529
 8930TIP3   OH248204   5.954   6.166  12.855 -0.1591  0.0608 -0.0644
 8930TIP3    H148205   5.935   6.255  12.828 -0.0825  0.0763 -0.0686
 8930TIP3    H248206   6.037   6.173  12.902  0.9031 -0.3013 -1.7912
 8931TIP3   OH248207   3.888   5.940   6.084  0.6385  0.2930  0.0018
 8931TIP3    H148208   3.839   6.021   6.097 -0.8872 -0.7769  1.3183
 8931TIP3    H248209   3.867   5.887   6.160  1.8733 -1.2153 -0.6615
 8932TIP3   OH248210   1.688   2.082   5.587  0.2330  0.0923  0.0545
 8932TIP3    H148211   1.631   2.104   5.661 -1.7708  1.3858 -1.7415
 8932TIP3    H248212   1.652   2.000   5.553 -0.8197  1.0459 -1.2425
 8933TIP3   OH248213   1.699   1.901   6.060  0.1905 -0.0583  0.8726
 8933TIP3    H148214   1.627   1.908   5.998  0.2543  0.3620  0.8405
 8933TIP3    H248215   1.657   1.881   6.143  0.0661 -0.1761  0.7821
 8934TIP3   OH248216   2.205   4.970  12.141 -0.1104  0.0119 -0.6130
 8934TIP3    H148217   2.266   4.955  12.214  2.6160  0.4162 -2.6597
 8934TIP3    H248218   2.175   5.060  12.154 -0.0217 -0.0673  0.2254
 8935TIP3   OH248219   6.491   3.413  13.480 -0.4560 -0.2008 -0.1605
 8935TIP3    H148220   6.527   3.382  13.563 -1.4926  0.1260  0.4257
 8935TIP3    H248221   6.414   3.465  13.505 -0.4760  0.3379 -1.2953
 8936TIP3   OH248222   2.753   0.433   0.011 -0.2672  0.2146 -0.3214
 8936TIP3    H148223   2.788   0.401   0.094 -0.8841  0.8832  0.2063
 8936TIP3    H248224   2.752   0.356  -0.046  1.1564 -0.0168 -0.0521
 8937TIP3   OH248225   3.833   6.254   0.107  0.1636  0.3570 -0.2816
 8937TIP3    H148226   3.827   6.247   0.202  0.8616  0.0039 -0.2555
 8937TIP3    H248227   3.864   6.167   0.079 -1.0573  0.1035 -0.9279
 8938TIP3   OH248228   1.788   0.623   2.785  0.6121 -0.0123 -0.1792
 8938TIP3    H148229   1.827   0.580   2.709  0.8997  1.1153 -0.6928
 8938TIP3    H248230   1.851   0.691   2.809 -1.4591  2.7159 -1.8101
 8939TIP3   OH248231   0.631   4.421   0.790 -0.0603  0.0765  0.6311
 8939TIP3    H148232   0.565   4.360   0.759 -0.7662  1.4979 -0.8153
 8939TIP3    H248233   0.708   4.404   0.736  0.3419 -0.6754  1.4128
 8940TIP3   OH248234   6.475   0.824  16.407  0.2083  0.0659 -0.0560
 8940TIP3    H148235   6.483   0.731  16.426 -1.4985 -0.0226  0.3345
 8940TIP3    H248236   6.492   0.831  16.313  3.1152 -0.2229  0.3351
 8941TIP3   OH248237   6.035   5.313   1.165 -0.0551 -0.8562 -0.0679
 8941TIP3    H148238   6.080   5.361   1.095 -0.1300  0.3572  0.6770
 8941TIP3    H248239   5.948   5.294   1.129  0.2341 -1.0968 -0.6495
 8942TIP3   OH248240   1.870   6.633   5.189  0.0497 -0.4816  0.7809
 8942TIP3    H148241   1.855   6.670   5.276  0.1343  0.6190  0.3449
 8942TIP3    H248242   1.828   6.695   5.129  1.9519  0.0333 -0.1218
 8943TIP3   OH248243   1.656   4.225  16.484 -0.2081  0.2891 -0.0976
 8943TIP3    H148244   1.747   4.236  16.456 -0.5976 -0.2066 -1.6831
 8943TIP3    H248245   1.612   4.305  16.456 -1.1511 -1.2202 -3.5248
 8944TIP3   OH248246   4.384   4.585   5.085 -0.4180 -0.6941 -0.2180
 8944TIP3    H148247   4.412   4.521   5.020  0.2327 -1.6387  0.9553
 8944TIP3    H248248   4.450   4.654   5.081 -0.8679 -0.2972 -1.1569
 8945TIP3   OH248249   3.861   5.024   4.475  0.5888  0.4253 -0.1947
 8945TIP3    H148250   3.922   5.026   4.548  0.7167  0.6635 -0.3054
 8945TIP3    H248251   3.775   5.009   4.515  0.6643  0.5090 -0.0013
 8946TIP3   OH248252   5.812   3.016   0.940  0.3460 -0.4026  0.1987
 8946TIP3    H148253   5.760   2.990   1.016 -1.4516 -0.3817 -0.9708
 8946TIP3    H248254   5.897   2.972   0.953 -0.2977 -1.2951  1.6365
 8947TIP3   OH248255   2.771   4.068   1.948 -0.8070 -0.4334 -0.0041
 8947TIP3    H148256   2.687   4.110   1.966 -0.1861  1.1636 -0.6239
 8947TIP3    H248257   2.749   3.978   1.927 -2.0782 -0.9476  2.9429
 8948TIP3   OH248258   3.547   0.507   1.197 -0.4186 -0.2164 -0.3359
 8948TIP3    H148259   3.512   0.501   1.108 -1.1433 -0.0846 -0.0574
 8948TIP3    H248260   3.474   0.536   1.251  0.0450 -0.1887  0.2928
 8949TIP3   OH248261   1.625   2.218   1.866  0.1609  0.2869  0.0345
 8949TIP3    H148262   1.540   2.261   1.862 -0.3992 -0.7263  0.7484
 8949TIP3    H248263   1.659   2.223   1.776 -1.5270 -1.0473 -0.7228
 8950TIP3   OH248264   3.391   3.307   6.164 -0.5236  0.1252 -0.4447
 8950TIP3    H148265   3.392   3.282   6.072 -1.5125 -1.9301  0.0348
 8950TIP3    H248266   3.461   3.256   6.204 -0.0708  1.0396 -0.0352
 8951TIP3   OH248267   5.750   2.312  12.748  0.6623  0.6501 -0.4696
 8951TIP3    H148268   5.671   2.272  12.712  1.5996 -2.4794  0.6538
 8951TIP3    H248269   5.718   2.377  12.810 -1.0197  0.1240 -0.7477
 8952TIP3   OH248270   3.650   4.399   5.649 -0.1020  0.2319  0.1346
 8952TIP3    H148271   3.697   4.342   5.710  1.6574  2.1349  0.6675
 8952TIP3    H248272   3.611   4.339   5.586  1.1805 -1.5875  0.9704
 8953TIP3   OH248273   2.801   6.378  13.244  0.7016 -0.5706 -0.2954
 8953TIP3    H148274   2.796   6.346  13.334  1.2521  0.5862  0.1574
 8953TIP3    H248275   2.876   6.436  13.243 -1.1612  2.0106 -0.6531
 8954TIP3   OH248276   2.663   3.196   0.264 -0.0221 -0.2003  0.1968
 8954TIP3    H148277   2.694   3.279   0.301 -0.8601  0.3384 -0.2767
 8954TIP3    H248278   2.712   3.129   0.312  0.1345  0.5372  1.1078
 8955TIP3   OH248279   3.884   0.163   5.744 -0.0702 -0.1295 -0.0693
 8955TIP3    H148280   3.823   0.091   5.759  1.9391 -2.0101 -0.4123
 8955TIP3    H248281   3.899   0.201   5.830 -1.2354 -0.0161  0.1001
 8956TIP3   OH248282   3.750   0.265   0.513 -0.5091 -0.4101 -0.4849
 8956TIP3    H148283   3.821   0.252   0.575  0.1728  0.2080 -1.1239
 8956TIP3    H248284   3.787   0.244   0.428 -0.8710  0.6000 -0.9135
 8957TIP3   OH248285   6.682   5.033  17.174 -0.5696  0.0034 -0.4311
 8957TIP3    H148286   6.678   4.940  17.192 -1.6299  0.2183  0.5665
 8957TIP3    H248287   6.597   5.067  17.201  0.6971  1.6872  1.8647
 8958TIP3   OH248288   4.920   3.790  12.156 -0.0575 -0.0094 -0.1013
 8958TIP3    H148289   4.988   3.837  12.108 -0.8220  2.0527  0.7093
 8958TIP3    H248290   4.948   3.794  12.247 -0.7582  0.0055  0.1195
 8959TIP3   OH248291   1.167   5.785   6.317 -0.0439 -0.5296 -0.3347
 8959TIP3    H148292   1.255   5.823   6.329  0.2757 -1.2582 -0.2912
 8959TIP3    H248293   1.107   5.858   6.334  0.5310 -0.2448  0.5695
 8960TIP3   OH248294   4.355   5.915  16.367  0.4502 -0.2340 -0.1402
 8960TIP3    H148295   4.322   5.967  16.440 -0.1113  0.3141 -0.7762
 8960TIP3    H248296   4.405   5.844  16.408  0.0380  0.0020  0.7744
 8961TIP3   OH248297   0.061   3.708   2.464  0.0622  0.2199 -0.2488
 8961TIP3    H148298   0.106   3.793   2.464  2.8478 -1.1303  0.6181
 8961TIP3    H248299   0.115   3.653   2.408 -0.5663 -1.5133  0.7886
 8962TIP3   OH248300   2.799   2.603  12.300 -0.2773 -0.2458 -0.2228
 8962TIP3    H148301   2.715   2.558  12.311 -0.6634  0.1748 -1.3507
 8962TIP3    H248302   2.776   2.691  12.272  0.5570 -0.6094 -2.1932
 8963TIP3   OH248303   1.223   3.863  15.847 -0.0577 -0.2545 -0.9087
 8963TIP3    H148304   1.220   3.790  15.909  1.3247  0.4392  0.0083
 8963TIP3    H248305   1.310   3.857  15.807  1.2417  2.4505  1.1926
 8964TIP3   OH248306   3.640   4.402   4.440  0.0808  0.2967 -0.1364
 8964TIP3    H148307   3.728   4.385   4.475  0.8762  0.7660 -1.7845
 8964TIP3    H248308   3.586   4.333   4.477  1.7534 -1.7169 -1.2259
 8965TIP3   OH248309   2.605   2.124   0.209  0.5220  0.2616  0.1108
 8965TIP3    H148310   2.576   2.168   0.289 -0.3438 -0.4992  0.2304
 8965TIP3    H248311   2.546   2.156   0.141  0.1722 -0.3859  0.1117
 8966TIP3   OH248312   4.915   5.310  11.630 -0.0335  0.5042  0.7479
 8966TIP3    H148313   4.978   5.238  11.631 -1.1893 -0.5980 -0.8258
 8966TIP3    H248314   4.961   5.381  11.586  1.5037  1.1864  3.2765
 8967TIP3   OH248315   1.470   0.331   6.333 -0.6018  0.1480 -0.8249
 8967TIP3    H148316   1.409   0.404   6.318 -0.6179  0.7562  1.7212
 8967TIP3    H248317   1.555   0.373   6.342 -0.5420 -0.1720  0.2056
 8968TIP3   OH248318   1.939   6.413  12.902 -0.1149  0.0207 -0.3611
 8968TIP3    H148319   1.941   6.435  12.995 -1.0914 -1.0062 -0.0779
 8968TIP3    H248320   1.850   6.437  12.874  0.4441  1.1519 -1.2595
 8969TIP3   OH248321   0.733   1.834  13.421 -0.2140  0.3728  0.0397
 8969TIP3    H148322   0.661   1.771  13.434  1.0072 -1.6343 -1.9828
 8969TIP3    H248323   0.804   1.801  13.476  0.4475 -0.1245 -1.0651
 8970TIP3   OH248324   4.306   2.646   3.395 -0.4443  0.1917 -0.2099
 8970TIP3    H148325   4.370   2.695   3.447 -0.2694 -0.3161  0.0606
 8970TIP3    H248326   4.358   2.599   3.330 -0.5172 -0.3646  0.1254
 8971TIP3   OH248327   1.031   4.259   5.280 -0.4614 -0.4501 -0.0155
 8971TIP3    H148328   1.077   4.281   5.360 -0.6908  0.2006 -0.0605
 8971TIP3    H248329   1.000   4.169   5.294  2.3951 -1.6623 -0.7252
 8972TIP3   OH248330   6.482   6.542   1.608 -0.2095 -0.4012 -0.0564
 8972TIP3    H148331   6.402   6.510   1.650  0.3807 -1.1450  0.5242
 8972TIP3    H248332   6.464   6.535   1.514  0.0638 -2.9721  0.0191
 8973TIP3   OH248333   2.040   1.615   0.189  0.3730  0.2056 -0.4676
 8973TIP3    H148334   1.998   1.552   0.247  1.1413 -0.4196 -0.5721
 8973TIP3    H248335   2.046   1.571   0.105  2.0068 -0.0885 -0.2393
 8974TIP3   OH248336   4.421   3.642  16.574  0.5589 -0.0982  0.7247
 8974TIP3    H148337   4.333   3.624  16.608  1.3602 -1.8778  2.0201
 8974TIP3    H248338   4.408   3.652  16.479 -1.3321  2.0777  1.1270
 8975TIP3   OH248339   3.821   0.216  15.940  0.1031  0.7069  0.0953
 8975TIP3    H148340   3.815   0.248  15.850  0.2898  1.2161  0.2601
 8975TIP3    H248341   3.886   0.146  15.937 -1.6890 -1.0153 -0.6450
 8976TIP3   OH248342   5.156   1.994   6.022  0.2242  0.2126  0.4431
 8976TIP3    H148343   5.066   1.963   6.038 -0.0390  0.8830  0.2969
 8976TIP3    H248344   5.166   1.990   5.927  1.1640 -2.0408  0.5693
 8977TIP3   OH248345   0.453   4.300  13.380 -0.4856  0.2224 -0.1331
 8977TIP3    H148346   0.432   4.381  13.428  1.2759 -0.2362  1.5484
 8977TIP3    H248347   0.530   4.323  13.328 -0.0429 -0.3202  0.2715
 8978TIP3   OH248348   0.493   2.716   3.298 -0.3856  0.3474 -0.1622
 8978TIP3    H148349   0.445   2.795   3.274 -0.3305  0.0999 -1.1288
 8978TIP3    H248350   0.539   2.691   3.218 -1.3807 -1.3641 -0.2607
 8979TIP3   OH248351   0.649   4.171  11.539  0.4314  0.1231 -0.1432
 8979TIP3    H148352   0.728   4.218  11.514  2.0026 -1.4265  1.6071
 8979TIP3    H248353   0.626   4.119  11.462 -0.1260  2.0440 -1.3563
 8980TIP3   OH248354   4.793   3.517   3.878 -0.4718  0.5063 -0.0101
 8980TIP3    H148355   4.881   3.551   3.859 -0.4922  0.1337 -0.8225
 8980TIP3    H248356   4.735   3.577   3.830 -0.6870  0.9158  0.7480
 8981TIP3   OH248357   2.160   5.035   0.662  0.1450 -0.3154 -0.1627
 8981TIP3    H148358   2.084   4.978   0.673 -0.8775  0.9304 -0.5631
 8981TIP3    H248359   2.219   5.010   0.734 -0.2579 -1.8646 -0.3420
 8982TIP3   OH248360   6.566   5.008   5.703 -0.3773  0.3267  0.2662
 8982TIP3    H148361   6.603   5.067   5.769  0.0847  0.4746 -0.1192
 8982TIP3    H248362   6.584   4.920   5.736 -0.7649  0.4003  0.6756
 8983TIP3   OH248363   0.510   0.988   2.701 -0.1879  0.3042 -0.4948
 8983TIP3    H148364   0.451   1.030   2.638 -1.3837  1.6319  1.4181
 8983TIP3    H248365   0.551   1.061   2.747 -1.4729 -0.5174  2.1536
 8984TIP3   OH248366   0.121   0.750   1.186  0.2191 -0.1764  0.1005
 8984TIP3    H148367   0.122   0.750   1.091  1.9940 -2.7561  0.0360
 8984TIP3    H248368   0.212   0.770   1.211 -0.5685  2.2930  1.3733
 8985TIP3   OH248369   2.060   5.355   4.111  0.1471 -0.6458 -0.2674
 8985TIP3    H148370   2.046   5.443   4.077 -0.9905 -0.6789  0.0926
 8985TIP3    H248371   2.033   5.297   4.040  1.8092 -0.7463 -0.8815
 8986TIP3   OH248372   5.019   5.456  11.160 -0.0833  0.5653  0.2179
 8986TIP3    H148373   5.015   5.546  11.125 -0.1398  0.2200 -0.6884
 8986TIP3    H248374   4.951   5.409  11.112 -1.6753  0.5718  2.3467
 8987TIP3   OH248375   0.596   3.886   3.263  0.3196  0.5233 -0.8130
 8987TIP3    H148376   0.557   3.908   3.178 -0.6680 -1.5884 -0.9719
 8987TIP3    H248377   0.526   3.843   3.311  1.7015 -0.9498 -0.0376
 8988TIP3   OH248378   2.923   1.225   1.012 -0.6635  0.0672 -0.2182
 8988TIP3    H148379   2.995   1.196   1.068 -0.2637 -0.2666 -0.8988
 8988TIP3    H248380   2.951   1.203   0.924 -1.2489  0.6780 -0.5632
 8989TIP3   OH248381   1.588   6.294  12.219  0.0207 -0.7594  0.0087
 8989TIP3    H148382   1.605   6.226  12.285  0.1942 -1.5201 -0.7926
 8989TIP3    H248383   1.668   6.297  12.168  0.0707  0.1858  0.1394
 8990TIP3   OH248384   3.707   4.872  12.056  0.2291 -0.1219 -0.3808
 8990TIP3    H148385   3.697   4.966  12.040  0.3373 -0.0286  0.0789
 8990TIP3    H248386   3.750   4.839  11.978 -0.7768  0.0247 -1.0146
 8991TIP3   OH248387   4.403   6.312  16.729 -0.2872  0.3323  0.3564
 8991TIP3    H148388   4.425   6.219  16.729 -1.0666  0.1328  1.0705
 8991TIP3    H248389   4.342   6.322  16.802 -0.8520  1.2503 -0.2201
 8992TIP3   OH248390   3.857   2.795   3.317  0.4969  0.0207 -0.2625
 8992TIP3    H148391   3.946   2.796   3.351  0.4654 -0.1590 -0.1768
 8992TIP3    H248392   3.842   2.885   3.288 -0.1129  0.6539  1.8650
 8993TIP3   OH248393   4.687   6.169   1.736  0.0313 -0.1387 -0.3134
 8993TIP3    H148394   4.617   6.106   1.754  2.3591 -2.4583  1.3052
 8993TIP3    H248395   4.709   6.153   1.644 -0.1743 -0.8623 -0.2446
 8994TIP3   OH248396   5.775   3.222  11.777 -0.0548 -0.1172  0.0076
 8994TIP3    H148397   5.700   3.167  11.796  0.7194 -1.2334 -0.0525
 8994TIP3    H248398   5.850   3.172  11.810  0.7071  0.7266 -0.4005
 8995TIP3   OH248399   4.701   4.613  14.306  0.2545 -0.3425  0.8806
 8995TIP3    H148400   4.734   4.640  14.220 -0.1519  1.1533  1.1549
 8995TIP3    H248401   4.722   4.520  14.312 -0.4251 -0.6969 -1.1782
 8996TIP3   OH248402   3.347   5.562  14.511  0.6282  0.3616  0.0984
 8996TIP3    H148403   3.357   5.633  14.449 -1.1948 -1.1333 -2.0766
 8996TIP3    H248404   3.391   5.488  14.470 -0.9092 -0.7564  0.3460
 8997TIP3   OH248405   6.429   5.300   2.608  0.4255  0.5602 -0.0821
 8997TIP3    H148406   6.458   5.301   2.517  2.0197 -1.1242  0.3509
 8997TIP3    H248407   6.425   5.207   2.631 -0.4759  0.9345  1.4238
 8998TIP3   OH248408   0.398   1.596   0.076  0.2637 -0.5109 -0.3140
 8998TIP3    H148409   0.331   1.603   0.144 -0.3752 -0.9465 -0.8845
 8998TIP3    H248410   0.430   1.506   0.084  0.8403 -0.2800  0.0057
 8999TIP3   OH248411   4.317   1.309   2.742  0.2226  0.1047 -0.0414
 8999TIP3    H148412   4.293   1.219   2.719 -1.8210  0.7118 -0.4109
 8999TIP3    H248413   4.409   1.316   2.717 -0.2238 -1.1642 -2.2832
 9000TIP3   OH248414   6.321   3.666   4.233 -0.0587 -0.4539  0.0094
 9000TIP3    H148415   6.256   3.596   4.239  0.0367 -0.4595  1.3016
 9000TIP3    H248416   6.270   3.747   4.234 -0.0454 -0.4451  1.5218
 9001TIP3   OH248417   6.159   3.927  12.962  0.7908  0.9040 -0.5838
 9001TIP3    H148418   6.244   3.968  12.948  1.2379 -0.0415 -0.7051
 9001TIP3    H248419   6.178   3.849  13.016  0.0438  0.5508 -0.8151
 9002TIP3   OH248420   5.703   6.473   6.105 -0.1357  0.1598 -0.6696
 9002TIP3    H148421   5.750   6.392   6.126 -0.3715 -0.6357 -2.9147
 9002TIP3    H248422   5.763   6.543   6.132  1.8918 -0.8096 -2.3297
 9003TIP3   OH248423   2.578   3.737   5.752 -0.2687  0.5087  0.5423
 9003TIP3    H148424   2.540   3.724   5.839 -0.0479  0.3496  0.6153
 9003TIP3    H248425   2.651   3.796   5.767 -0.6095  0.9796  0.3704
 9004TIP3   OH248426   1.306   5.850   6.026 -0.0185 -0.6978 -0.5136
 9004TIP3    H148427   1.215   5.874   6.038 -0.8605 -3.0452 -1.6453
 9004TIP3    H248428   1.337   5.908   5.956 -0.8009 -0.2802 -0.5175
 9005TIP3   OH248429   2.320   6.233  14.847 -0.5475 -0.1138 -0.4335
 9005TIP3    H148430   2.325   6.255  14.941 -1.8943 -1.7560  0.0612
 9005TIP3    H248431   2.357   6.145  14.842  0.7200  0.4543 -1.6916
 9006TIP3   OH248432   1.635   0.533  14.755 -0.4077 -0.3091  0.3037
 9006TIP3    H148433   1.669   0.445  14.741  1.1352  0.0503  1.4327
 9006TIP3    H248434   1.540   0.523  14.757 -0.2498 -2.0299  0.8976
 9007TIP3   OH248435   0.255   1.235  12.296 -0.1882  0.1650  0.3108
 9007TIP3    H148436   0.298   1.259  12.214 -0.4429 -0.6615 -0.0760
 9007TIP3    H248437   0.166   1.270  12.287 -0.1814  0.1764  0.2878
 9008TIP3   OH248438   5.637   2.111   0.590 -0.3724  0.1151  0.5410
 9008TIP3    H148439   5.654   2.167   0.665 -1.7547  2.3715 -0.7113
 9008TIP3    H248440   5.545   2.086   0.598  0.2701 -2.3269  1.2074
 9009TIP3   OH248441   1.320   4.042   6.504  0.0181 -0.3521  0.0787
 9009TIP3    H148442   1.406   4.055   6.463  0.0415 -0.6428  0.0303
 9009TIP3    H248443   1.272   4.122   6.485  0.8577  0.5351  1.5747
 9010TIP3   OH248444   2.868   5.916   4.645  0.6084 -0.0422 -0.1509
 9010TIP3    H148445   2.955   5.876   4.652  0.4252 -0.5653 -0.8263
 9010TIP3    H248446   2.842   5.904   4.554 -0.2719 -0.0821  0.0932
 9011TIP3   OH248447   1.220   0.096   3.918  0.5431 -0.5879  0.1601
 9011TIP3    H148448   1.209   0.062   4.007 -0.6445 -1.5282 -0.3171
 9011TIP3    H248449   1.268   0.027   3.872 -1.4600 -1.4949 -0.6894
 9012TIP3   OH248450   6.494   6.774   2.490  0.8108  0.6627  0.1805
 9012TIP3    H148451   6.463   6.836   2.556  1.0970 -0.1113  1.0623
 9012TIP3    H248452   6.586   6.760   2.512  0.9698  0.5845 -0.5302
 9013TIP3   OH248453   3.124   1.852  14.523 -0.4915 -0.2411  0.7626
 9013TIP3    H148454   3.133   1.934  14.571 -0.0771 -0.1701  0.5626
 9013TIP3    H248455   3.121   1.785  14.592  2.3685 -0.3606  0.8580
 9014TIP3   OH248456   4.695   4.337   3.870  0.3343 -0.4279 -0.0890
 9014TIP3    H148457   4.722   4.391   3.944 -1.3333 -0.9912  0.9788
 9014TIP3    H248458   4.640   4.395   3.817  1.4974 -0.0358 -0.9064
 9015TIP3   OH248459   3.491   4.596   1.201  0.2312  0.0599 -0.0431
 9015TIP3    H148460   3.543   4.650   1.260  1.6313 -0.5047 -0.6988
 9015TIP3    H248461   3.462   4.655   1.132  0.4358  0.2805  0.0608
 9016TIP3   OH248462   4.887   3.128   4.040 -0.0568  0.4688 -0.0406
 9016TIP3    H148463   4.896   3.154   4.132 -0.7872 -1.6202  0.6746
 9016TIP3    H248464   4.794   3.107   4.030  0.0880  0.3121 -1.1630
 9017TIP3   OH248465   4.175   5.431  11.752  0.6211 -0.0533  0.3899
 9017TIP3    H148466   4.199   5.518  11.722  0.7438 -0.3343 -0.3602
 9017TIP3    H248467   4.169   5.379  11.672  0.5760 -0.7406  0.8295
 9018TIP3   OH248468   3.405   0.648   0.589  0.2658  0.0800 -0.5252
 9018TIP3    H148469   3.391   0.701   0.511 -1.7245 -0.1177 -0.3663
 9018TIP3    H248470   3.452   0.705   0.650  0.8182  0.6201 -1.4469
 9019TIP3   OH248471   3.617   6.780  11.981 -0.4970 -0.1056 -0.6227
 9019TIP3    H148472   3.659   6.808  12.062 -0.9547  1.8951 -1.0254
 9019TIP3    H248473   3.688   6.745  11.928  0.1440  0.3591 -0.0946
 9020TIP3   OH248474   4.781   3.784   3.984  0.9759 -0.1231  0.3252
 9020TIP3    H148475   4.770   3.697   3.945  1.4489 -0.4284  0.8656
 9020TIP3    H248476   4.693   3.807   4.015  0.8148 -0.3350  0.0311
 9021TIP3   OH248477   0.777   2.062  15.300  0.3588 -0.2377 -0.5602
 9021TIP3    H148478   0.772   1.988  15.238 -0.9636 -0.2797 -0.4327
 9021TIP3    H248479   0.687   2.095  15.304  0.9824  1.5519 -0.8061
 9022TIP3   OH248480   0.411   3.781   0.310 -0.1828  0.0084 -0.2735
 9022TIP3    H148481   0.336   3.756   0.365  1.9128 -2.4167  1.7233
 9022TIP3    H248482   0.471   3.824   0.370  0.8288  0.2405 -1.4274
 9023TIP3   OH248483   5.579   0.675   5.266  0.5579  0.1046  0.2047
 9023TIP3    H148484   5.614   0.591   5.296  3.2677  1.1909  0.3613
 9023TIP3    H248485   5.563   0.663   5.172  1.2501 -0.5086  0.1583
 9024TIP3   OH248486   0.400   3.026   3.524  0.0640  0.3317  0.0615
 9024TIP3    H148487   0.320   2.983   3.555  0.4456 -2.8810 -2.8289
 9024TIP3    H248488   0.471   2.968   3.552  0.8682  0.3601 -1.8020
 9025TIP3   OH248489   5.450   3.970  13.416 -0.0727 -0.0512 -0.3887
 9025TIP3    H148490   5.434   3.926  13.500 -0.2378 -0.0665 -0.4284
 9025TIP3    H248491   5.402   4.053  13.423 -1.2006 -0.6300 -0.9808
 9026TIP3   OH248492   4.499   0.568   5.760  0.2455  0.1635 -0.4653
 9026TIP3    H148493   4.475   0.586   5.851 -0.2598 -0.7947 -0.4026
 9026TIP3    H248494   4.581   0.518   5.767  0.6007  0.7148 -0.5752
 9027TIP3   OH248495   1.034   3.134   3.555 -0.5665 -0.1436  0.4084
 9027TIP3    H148496   1.079   3.213   3.582 -1.7229  1.5714 -2.3141
 9027TIP3    H248497   0.941   3.158   3.555 -1.0286 -1.7762  0.3154
 9028TIP3   OH248498   5.416   2.943  16.181  0.4385 -0.0908  0.1519
 9028TIP3    H148499   5.372   2.997  16.247 -2.9471 -1.8788 -0.3978
 9028TIP3    H248500   5.429   3.002  16.106  3.7036  1.7749  1.9771
 9029TIP3   OH248501   4.549   0.049  16.584  0.1693  0.0090  0.3394
 9029TIP3    H148502   4.584  -0.002  16.657 -0.0865  0.5024  0.8123
 9029TIP3    H248503   4.460   0.070  16.610  0.5348  1.4071  0.5349
 9030TIP3   OH248504   6.507   6.592   2.012  0.0451 -0.6238 -0.0826
 9030TIP3    H148505   6.437   6.641   2.055 -1.1313 -1.1343 -1.3527
 9030TIP3    H248506   6.528   6.643   1.934 -1.1555 -2.0585 -1.3941
 9031TIP3   OH248507   1.920   5.912   2.841 -0.3759  0.2075  0.4413
 9031TIP3    H148508   1.998   5.899   2.894 -0.7904 -0.5150  0.8913
 9031TIP3    H248509   1.928   5.847   2.771 -0.7944 -0.1885  0.7542
 9032TIP3   OH248510   3.302   6.404  12.919 -0.2426  0.1806  0.0706
 9032TIP3    H148511   3.222   6.419  12.870  0.6782  0.8642 -1.2620
 9032TIP3    H248512   3.279   6.427  13.009 -1.3832  0.9235 -0.3830
 9033TIP3   OH248513   1.114   4.939   4.754  0.0087 -0.0576 -0.0480
 9033TIP3    H148514   1.110   4.923   4.849 -1.2056 -1.7041 -0.3271
 9033TIP3    H248515   1.023   4.934   4.725  0.4094  0.0067 -1.3764
 9034TIP3   OH248516   6.705   0.330  15.760 -0.7306  0.0780 -0.0087
 9034TIP3    H148517   6.740   0.283  15.836  0.9145  0.5534 -0.4353
 9034TIP3    H248518   6.611   0.314  15.764 -0.4851 -1.3328  1.1485
 9035TIP3   OH248519   5.641   3.341   3.514 -0.6642  0.1129  0.1764
 9035TIP3    H148520   5.717   3.303   3.469 -1.3251 -1.4323  0.3027
 9035TIP3    H248521   5.679   3.409   3.570  0.3812  0.7950 -1.2785
 9036TIP3   OH248522   2.629   3.849   3.613 -0.2303  0.0949  0.1314
 9036TIP3    H148523   2.717   3.822   3.639  1.2605  3.0061 -1.4119
 9036TIP3    H248524   2.611   3.798   3.534 -1.0437 -2.2614  1.7346
 9037TIP3   OH248525   5.887   5.774  12.696 -0.1481 -0.0488  0.0134
 9037TIP3    H148526   5.806   5.780  12.746 -1.2330 -0.6858 -1.5816
 9037TIP3    H248527   5.913   5.682  12.702 -0.4992 -0.2139 -0.8903
 9038TIP3   OH248528   0.333   1.040  15.715  0.1443  0.1748  0.1342
 9038TIP3    H148529   0.271   0.979  15.755  0.9969 -0.8314 -0.0352
 9038TIP3    H248530   0.344   1.008  15.626  1.2839  0.0270  0.3126
 9039TIP3   OH248531   3.241   4.504   1.335  0.1225  0.3298  0.4653
 9039TIP3    H148532   3.312   4.533   1.279  2.4330 -2.5415  1.6588
 9039TIP3    H248533   3.180   4.459   1.276 -0.1655  1.8172 -0.4087
 9040TIP3   OH248534   2.337   2.174  14.976  0.0766  0.1306  0.1058
 9040TIP3    H148535   2.350   2.243  15.042 -1.1444 -1.3300  1.9696
 9040TIP3    H248536   2.262   2.203  14.925 -0.1577  0.3882  0.5927
 9041TIP3   OH248537   0.025   0.304  17.158 -0.0986 -0.1751  0.0409
 9041TIP3    H148538   0.057   0.265  17.239  0.5978 -0.0783 -0.1854
 9041TIP3    H248539  -0.063   0.267  17.147 -0.3113  0.0441  0.9867
 9042TIP3   OH248540   0.815   5.204  14.319 -0.2248 -0.3879  0.2794
 9042TIP3    H148541   0.882   5.206  14.388  0.6540  0.1288 -0.5724
 9042TIP3    H248542   0.736   5.172  14.364  0.2376  0.2388  1.6028
 9043TIP3   OH248543   6.020   0.640  14.819  0.2638 -0.1256  0.0493
 9043TIP3    H148544   6.001   0.729  14.848  0.1927  0.3858 -1.5077
 9043TIP3    H248545   5.959   0.624  14.747  2.0906 -0.4053 -1.5206
 9044TIP3   OH248546   4.259   0.192  13.963  0.4612  0.2965 -0.1869
 9044TIP3    H148547   4.222   0.266  13.915 -1.2018 -0.7162 -0.6015
 9044TIP3    H248548   4.194   0.122  13.951 -0.6584  0.2455  4.4674
 9045TIP3   OH248549   4.821   2.324   2.159 -0.2700  0.1051  0.2481
 9045TIP3    H148550   4.900   2.373   2.182  1.6084 -3.1399  1.3672
 9045TIP3    H248551   4.751   2.368   2.206  1.0100  2.3917  0.1769
 9046TIP3   OH248552   0.533   5.215  14.726  0.1199 -0.0217 -0.1793
 9046TIP3    H148553   0.609   5.255  14.767 -0.9180  0.5755  1.2186
 9046TIP3    H248554   0.468   5.285  14.722  0.2409  0.0639 -3.1826
 9047TIP3   OH248555   2.549   1.226   1.371  0.0907 -0.3965  0.0003
 9047TIP3    H148556   2.585   1.297   1.425 -3.0613  0.7444  0.8557
 9047TIP3    H248557   2.576   1.247   1.282 -0.4280  1.7252  0.2924
 9048TIP3   OH248558   0.139   4.004  13.348  0.2192 -0.1777 -0.0614
 9048TIP3    H148559   0.202   4.046  13.288  1.1599 -2.6037 -0.8668
 9048TIP3    H248560   0.090   3.944  13.293 -0.4970 -0.7946  1.2123
 9049TIP3   OH248561   0.577   4.779  14.596 -0.2374  0.0911 -0.2393
 9049TIP3    H148562   0.575   4.840  14.670  0.1604  0.9537 -0.9198
 9049TIP3    H248563   0.670   4.759  14.584 -0.4821 -2.6907  1.5629
 9050TIP3   OH248564   1.467   3.541   4.133  0.1888  0.2148 -0.2751
 9050TIP3    H148565   1.437   3.495   4.212 -0.0987  0.1631 -0.4133
 9050TIP3    H248566   1.530   3.482   4.093  0.8111  0.5081  0.2487
 9051TIP3   OH248567   1.713   4.403  11.779  0.0759  0.3817 -0.3046
 9051TIP3    H148568   1.766   4.425  11.856  1.9760 -0.0671 -1.4085
 9051TIP3    H248569   1.643   4.347  11.813  0.0026  1.3767  1.2960
 9052TIP3   OH248570   3.626   4.460  13.743  0.0163  0.1439  0.0404
 9052TIP3    H148571   3.660   4.457  13.832  0.9223 -1.3096 -0.3208
 9052TIP3    H248572   3.532   4.445  13.752  0.3832 -2.1927  0.6460
 9053TIP3   OH248573   0.058   2.752  11.798 -0.5576 -0.8985 -0.3928
 9053TIP3    H148574   0.133   2.809  11.780 -0.6208 -0.5822  0.3156
 9053TIP3    H248575  -0.017   2.799  11.763 -0.6858 -0.2669  0.6920
 9054TIP3   OH248576   1.703   0.415  15.220 -0.3192 -0.0629  0.3086
 9054TIP3    H148577   1.758   0.344  15.253  0.5289  0.1725 -0.5298
 9054TIP3    H248578   1.738   0.433  15.132 -0.5553  1.3344  0.4731
 9055TIP3   OH248579   6.373   5.253   6.215  0.0349 -0.3547  0.1933
 9055TIP3    H148580   6.460   5.215   6.201  0.0040 -0.7999  1.1365
 9055TIP3    H248581   6.386   5.315   6.287 -0.2874  0.1004 -0.1360
 9056TIP3   OH248582   3.594   5.931  14.167 -0.2205 -0.4650 -0.3319
 9056TIP3    H148583   3.673   5.887  14.135  0.1320  1.3512 -2.2768
 9056TIP3    H248584   3.568   5.987  14.094 -2.1535  0.4983  1.0199
 9057TIP3   OH248585   1.580   3.998   3.871 -0.3106 -0.5263  0.0724
 9057TIP3    H148586   1.600   3.951   3.952  0.1054 -2.0649 -0.8712
 9057TIP3    H248587   1.556   4.086   3.899  1.6804 -0.4412  1.7288
 9058TIP3   OH248588   6.216   5.687   1.604 -0.1378 -0.0835  0.9576
 9058TIP3    H148589   6.213   5.735   1.521 -1.0189 -0.1554  0.9351
 9058TIP3    H248590   6.267   5.609   1.586 -1.7118 -0.9452  0.0118
 9059TIP3   OH248591   3.319   0.996   0.302 -0.4651  0.4813 -0.0057
 9059TIP3    H148592   3.279   0.984   0.216 -1.5301  0.1378  0.5132
 9059TIP3    H248593   3.340   0.907   0.331 -0.0649  0.5997  0.0654
 9060TIP3   OH248594   0.762   5.912   3.558  0.3289 -0.2868 -0.8763
 9060TIP3    H148595   0.792   5.937   3.471 -3.7030 -1.7582 -2.9291
 9060TIP3    H248596   0.678   5.956   3.568 -1.1261 -3.1495  0.5797
 9061TIP3   OH248597   6.202   5.186   2.885 -0.6091 -0.0456 -0.6070
 9061TIP3    H148598   6.133   5.182   2.818 -2.6638  1.6461  1.2790
 9061TIP3    H248599   6.190   5.271   2.927  0.8941 -0.8542  1.6074
 9062TIP3   OH248600   2.254   5.628  10.629 -0.0870 -0.3808 -0.2960
 9062TIP3    H148601   2.255   5.704  10.688 -0.5920 -0.6200  0.0192
 9062TIP3    H248602   2.188   5.569  10.665  0.3978 -1.0405 -0.4592
 9063TIP3   OH248603   0.281   2.463   5.314 -0.4927 -0.1826  0.2123
 9063TIP3    H148604   0.373   2.473   5.288 -0.1051  0.6917  1.7922
 9063TIP3    H248605   0.268   2.368   5.316  0.9887 -0.4149  1.7984
 9064TIP3   OH248606   0.708   2.014  17.072 -0.6877  0.3284  0.3869
 9064TIP3    H148607   0.793   1.981  17.102 -0.1075 -0.1359 -1.5948
 9064TIP3    H248608   0.666   1.938  17.031 -2.5362  0.2947  2.1773
 9065TIP3   OH248609   2.452   6.705   1.331 -0.0320 -0.0976 -0.0813
 9065TIP3    H148610   2.436   6.659   1.248  1.9156  1.0343 -1.1938
 9065TIP3    H248611   2.525   6.764   1.310 -0.0783  0.8545  2.2383
 9066TIP3   OH248612   0.589   1.203   5.274 -0.0526  0.3743  0.9914
 9066TIP3    H148613   0.625   1.222   5.361 -2.8679 -2.6532  3.0986
 9066TIP3    H248614   0.597   1.108   5.266 -0.7787  0.4742 -1.6747
 9067TIP3   OH248615   3.736   5.597   3.629 -0.1431  0.6169  0.1562
 9067TIP3    H148616   3.799   5.552   3.685  0.4921 -2.1165 -2.4971
 9067TIP3    H248617   3.670   5.631   3.690  1.9642  0.4205  2.7242
 9068TIP3   OH248618   3.690   2.195   1.339  0.5772 -0.4156 -0.0151
 9068TIP3    H148619   3.643   2.250   1.402 -1.3247 -0.4050 -1.3482
 9068TIP3    H248620   3.671   2.106   1.367 -2.2191 -0.4979 -1.7188
 9069TIP3   OH248621   3.692   4.006   5.783 -0.1672 -0.1482 -0.1033
 9069TIP3    H148622   3.696   3.920   5.825  1.0277 -0.2692 -0.4121
 9069TIP3    H248623   3.599   4.024   5.773 -0.4557 -1.8891 -0.9706
 9070TIP3   OH248624   1.356   3.438   2.430  0.0106  0.1788 -0.1142
 9070TIP3    H148625   1.350   3.362   2.372  0.0303 -0.0788  0.2234
 9070TIP3    H248626   1.435   3.484   2.400  0.0204  0.0481 -0.2922
 9071TIP3   OH248627   4.049   2.697   2.964 -0.5315  0.3461  0.1412
 9071TIP3    H148628   4.049   2.791   2.983 -2.5133  0.3558  0.3751
 9071TIP3    H248629   3.963   2.681   2.925  0.3061 -1.1451 -1.1984
 9072TIP3   OH248630   4.983   6.778  14.489  0.1688 -0.2699 -0.3135
 9072TIP3    H148631   4.954   6.720  14.419 -1.6970  1.8443 -1.4037
 9072TIP3    H248632   4.975   6.866  14.453  1.4509  0.7961  1.7776
 9073TIP3   OH248633   0.018   4.615  14.051 -0.3214 -0.5300  0.4545
 9073TIP3    H148634  -0.034   4.689  14.083 -1.0320 -1.1003  0.6429
 9073TIP3    H248635  -0.030   4.582  13.976 -0.4221 -1.2805  0.8408
 9074TIP3   OH248636   3.769   5.359   0.488 -0.1452  0.4403  0.2380
 9074TIP3    H148637   3.847   5.393   0.444  0.5957  1.2187  2.0545
 9074TIP3    H248638   3.796   5.275   0.524 -0.7003 -0.1185 -0.6026
 9075TIP3   OH248639   2.120   3.189  14.335  0.3765  0.3358  0.7787
 9075TIP3    H148640   2.104   3.215  14.244 -2.0045  3.7066  1.9695
 9075TIP3    H248641   2.214   3.202  14.348  1.2952 -2.5573 -1.6805
 9076TIP3   OH248642   6.046   6.649   2.938  0.3543 -0.0930 -0.5317
 9076TIP3    H148643   6.119   6.646   3.000  1.3080  1.8645 -1.4662
 9076TIP3    H248644   5.977   6.696   2.985  1.0160  1.2364 -0.8355
 9077TIP3   OH248645   5.368   0.820   2.562  0.2126  0.1263 -0.3768
 9077TIP3    H148646   5.276   0.797   2.550  0.0870  1.4809 -2.5834
 9077TIP3    H248647   5.415   0.766   2.498  0.8570  0.1377  0.0700
 9078TIP3   OH248648   1.213   3.284   2.223 -0.3501  0.8225  0.1778
 9078TIP3    H148649   1.120   3.276   2.203 -0.2999  1.2874 -0.2770
 9078TIP3    H248650   1.236   3.202   2.265 -0.8019  0.4029 -0.3717
 9079TIP3   OH248651   4.497   3.494  10.938 -0.4640 -0.2647 -0.5609
 9079TIP3    H148652   4.579   3.542  10.932 -0.8973  0.4192 -1.1246
 9079TIP3    H248653   4.452   3.533  11.013 -1.4134  1.1860 -1.8302
 9080TIP3   OH248654   6.126   1.401  11.590 -0.4337 -0.0134 -0.1543
 9080TIP3    H148655   6.034   1.424  11.574 -0.9009 -0.3707  1.7201
 9080TIP3    H248656   6.176   1.467  11.542 -1.6927  1.2924  0.2517
 9081TIP3   OH248657   6.031   5.096   3.601 -0.0113  0.0299 -0.1859
 9081TIP3    H148658   6.090   5.116   3.529 -0.6690 -0.8247 -0.9828
 9081TIP3    H248659   6.079   5.031   3.653  0.2568  0.2683 -0.1336
 9082TIP3   OH248660   3.517   5.881   1.684  0.1294 -0.1186  0.0007
 9082TIP3    H148661   3.594   5.904   1.735 -0.1217  0.9574 -0.0829
 9082TIP3    H248662   3.500   5.957   1.629 -1.7643  0.2104  0.9551
 9083TIP3   OH248663   1.877   3.016  12.205 -0.3849  0.4830 -0.2471
 9083TIP3    H148664   1.832   2.934  12.185  0.1234 -0.2762  1.5142
 9083TIP3    H248665   1.830   3.051  12.281  0.1450  1.2149 -0.2483
 9084TIP3   OH248666   2.949   5.349   1.652 -0.2078 -0.4326 -0.5530
 9084TIP3    H148667   2.920   5.403   1.578  0.7581 -0.7265 -1.1654
 9084TIP3    H248668   3.044   5.353   1.649 -0.0948  1.2970  1.9983
 9085TIP3   OH248669   0.946   6.582  13.107  0.0600 -0.2372 -0.1604
 9085TIP3    H148670   1.016   6.635  13.146  0.0210 -0.1414 -0.2197
 9085TIP3    H248671   0.967   6.581  13.013 -0.3360  0.2707 -0.2573
 9086TIP3   OH248672   5.177   2.761   4.975  0.1347 -0.3783 -0.2205
 9086TIP3    H148673   5.095   2.809   4.977  0.4368  0.1350  0.3066
 9086TIP3    H248674   5.221   2.791   4.896 -0.1912 -0.6650 -0.5099
 9087TIP3   OH248675   3.547   1.176  10.693 -0.3989 -0.2603 -0.5105
 9087TIP3    H148676   3.548   1.109  10.761 -2.0708  0.5870  0.3957
 9087TIP3    H248677   3.630   1.222  10.703 -1.1408  0.7238  1.9129
 9088TIP3   OH248678   3.802   6.626   3.689 -0.3446 -0.3781 -0.6243
 9088TIP3    H148679   3.890   6.662   3.676 -0.0147 -1.1890 -0.6690
 9088TIP3    H248680   3.780   6.646   3.780 -0.4990  0.6338 -0.8650
 9089TIP3   OH248681   2.596   6.385  11.620 -0.7654  0.8991 -0.6183
 9089TIP3    H148682   2.667   6.363  11.561 -0.2596 -0.4535  0.4359
 9089TIP3    H248683   2.516   6.373  11.569 -0.2684  2.2396 -1.7531
 9090TIP3   OH248684   0.198   5.519   2.798  0.3508  0.0319  0.1774
 9090TIP3    H148685   0.150   5.585   2.847  1.4962 -0.7872  2.5841
 9090TIP3    H248686   0.272   5.566   2.759 -0.2383  0.5822 -0.3064
 9091TIP3   OH248687   3.032   2.644   5.396 -0.4640  0.2285 -0.1846
 9091TIP3    H148688   2.967   2.704   5.359  0.1685  0.5198 -0.8496
 9091TIP3    H248689   3.092   2.700   5.444  1.4417  0.4756 -2.6785
 9092TIP3   OH248690   1.676   3.780   5.978 -0.1934 -0.3605  0.2142
 9092TIP3    H148691   1.585   3.770   6.006  0.2005 -1.8015  1.0901
 9092TIP3    H248692   1.680   3.867   5.939 -1.4537  0.5622  2.0289
 9093TIP3   OH248693   5.624   3.047  14.737 -0.1291 -0.1605  0.6368
 9093TIP3    H148694   5.686   3.009  14.674 -0.1855 -1.1022  1.1344
 9093TIP3    H248695   5.538   3.029  14.699 -0.2403 -2.2289  1.7573
 9094TIP3   OH248696   6.607   5.874   6.196 -0.1081  0.5099 -0.3720
 9094TIP3    H148697   6.548   5.923   6.254  1.4997  0.9471  0.9874
 9094TIP3    H248698   6.671   5.940   6.166 -1.1110  0.3907 -3.0312
 9095TIP3   OH248699   4.340   3.464  14.177  0.0841 -0.0861 -0.0935
 9095TIP3    H148700   4.330   3.434  14.087  0.4177 -0.1177 -0.1215
 9095TIP3    H248701   4.324   3.558  14.173 -0.6572 -0.2043 -0.0582
 9096TIP3   OH248702   4.913   2.539   6.115 -0.6663  0.0440 -0.0487
 9096TIP3    H148703   4.971   2.470   6.146  0.8475  1.1188 -0.3580
 9096TIP3    H248704   4.855   2.558   6.188 -1.1464 -1.5602  0.0205
 9097TIP3   OH248705   0.464   5.910   3.656 -0.0536 -0.2359 -0.3763
 9097TIP3    H148706   0.396   5.851   3.689  1.1404 -1.7986 -0.5820
 9097TIP3    H248707   0.443   5.920   3.563 -0.4947 -0.0070 -0.2536
 9098TIP3   OH248708   1.631   2.145  15.286  0.2696 -0.1574 -0.2081
 9098TIP3    H148709   1.699   2.137  15.353  1.0414 -2.1915 -1.1642
 9098TIP3    H248710   1.679   2.146  15.203 -0.6292  2.8155 -0.8127
 9099TIP3   OH248711   4.653   5.342  16.494 -0.5549 -0.2249 -0.1941
 9099TIP3    H148712   4.596   5.296  16.433 -0.6765  1.8959 -1.7691
 9099TIP3    H248713   4.738   5.347  16.450 -0.8923  2.1604 -0.7043
 9100TIP3   OH248714   0.466   6.622  10.856 -0.9912 -0.8166 -0.4438
 9100TIP3    H148715   0.444   6.608  10.763  1.9151 -1.0475 -1.1696
 9100TIP3    H248716   0.508   6.540  10.883 -0.6824 -0.2811  0.7324
 9101TIP3   OH248717   6.134   0.103  16.930 -0.0452 -0.2285  0.2907
 9101TIP3    H148718   6.149   0.103  17.025 -2.2469 -1.3469  0.7146
 9101TIP3    H248719   6.062   0.165  16.917 -1.6107 -2.0611 -0.2177
 9102TIP3   OH248720   2.818   0.991  16.173 -0.2930 -0.6776  0.0455
 9102TIP3    H148721   2.727   0.965  16.160 -1.4412  2.3195  1.1493
 9102TIP3    H248722   2.825   1.011  16.266  0.3438  2.5492 -0.5517
 9103TIP3   OH248723   5.032   1.208  10.846  0.1892 -0.0056  0.1035
 9103TIP3    H148724   5.114   1.256  10.843  0.6874 -0.8826 -1.6952
 9103TIP3    H248725   5.054   1.120  10.815 -1.2106 -0.5966  0.7072
 9104TIP3   OH248726   6.656   6.729  12.985 -0.4069 -0.0179  0.5904
 9104TIP3    H148727   6.666   6.812  12.939  3.5764 -0.9260 -0.6636
 9104TIP3    H248728   6.609   6.673  12.923  1.8869 -0.2099 -1.1361
 9105TIP3   OH248729   1.854   4.460   5.443 -0.3096  0.1456 -0.4288
 9105TIP3    H148730   1.791   4.429   5.377 -1.3464  0.6208  0.3133
 9105TIP3    H248731   1.939   4.459   5.397 -0.3217 -3.2451 -0.6197
 9106TIP3   OH248732   2.435   5.041  11.359  0.1264 -0.6748  0.1499
 9106TIP3    H148733   2.422   5.117  11.303  1.2707 -1.4487 -1.2389
 9106TIP3    H248734   2.517   5.002  11.328 -0.3801 -2.4245  0.8749
 9107TIP3   OH248735   2.390   5.006   1.822 -0.2002  0.1119  0.2311
 9107TIP3    H148736   2.432   5.091   1.838  0.4356 -0.2486  0.4733
 9107TIP3    H248737   2.303   5.029   1.788 -1.0251  0.8918  2.6397
 9108TIP3   OH248738   6.029   5.549  12.715 -0.2631 -0.1109 -0.2587
 9108TIP3    H148739   6.007   5.473  12.660 -0.0550  1.4358 -2.6252
 9108TIP3    H248740   6.123   5.539  12.732 -0.3035 -0.5525 -0.2726
 9109TIP3   OH248741   2.774   3.723   1.508  1.0320  0.0642 -0.1945
 9109TIP3    H148742   2.686   3.692   1.530  0.3532  1.6361 -0.5161
 9109TIP3    H248743   2.811   3.653   1.454 -0.6806  0.0762 -1.4870
 9110TIP3   OH248744   1.323   3.831   2.841  0.3257 -0.0823  0.2860
 9110TIP3    H148745   1.268   3.752   2.844  0.1084  0.0675  2.8922
 9110TIP3    H248746   1.260   3.903   2.836  0.1729  0.0620  2.7258
 9111TIP3   OH248747   0.805   2.802  13.241 -0.4101  0.1612  0.1752
 9111TIP3    H148748   0.737   2.796  13.309  0.8135  1.1824  1.5546
 9111TIP3    H248749   0.767   2.758  13.165 -2.9932  1.4792  0.5740
 9112TIP3   OH248750   5.842   0.116  16.267 -0.2267  0.3884 -0.2221
 9112TIP3    H148751   5.928   0.110  16.309 -0.6434 -0.4796  0.5441
 9112TIP3    H248752   5.799   0.189  16.311 -0.9586 -1.0045  1.4943
 9113TIP3   OH248753   1.082   1.087  11.218  0.2467 -0.5886 -0.1404
 9113TIP3    H148754   0.997   1.049  11.193  0.5861 -0.6486 -1.2700
 9113TIP3    H248755   1.146   1.025  11.185  0.7365 -0.9990  1.5107
 9114TIP3   OH248756   3.616   0.512   1.963  0.2367 -0.4057 -0.1763
 9114TIP3    H148757   3.563   0.439   1.929 -2.9280  1.2229  0.7949
 9114TIP3    H248758   3.612   0.501   2.058  0.1359  0.7272 -0.0394
 9115TIP3   OH248759   3.326   0.251  13.660 -0.0526 -0.0130 -0.6314
 9115TIP3    H148760   3.333   0.294  13.574  2.1855  0.4283 -0.2733
 9115TIP3    H248761   3.382   0.303  13.717 -0.8568 -0.7958  0.9255
 9116TIP3   OH248762   1.331   3.323   4.293 -0.0154  0.8027  0.0218
 9116TIP3    H148763   1.332   3.266   4.217  0.6537  2.9127 -1.6530
 9116TIP3    H248764   1.405   3.295   4.347 -0.0969 -0.2922 -0.4303
 9117TIP3   OH248765   5.098   3.130   3.199  0.3249  1.0762 -0.1766
 9117TIP3    H148766   5.023   3.095   3.247  0.7613  0.8620  0.3507
 9117TIP3    H248767   5.060   3.198   3.142 -0.4716  0.0201 -0.9401
 9118TIP3   OH248768   1.475   5.222  12.082  0.4807 -0.3426  0.0771
 9118TIP3    H148769   1.451   5.173  12.003  2.1960 -1.3148  0.0985
 9118TIP3    H248770   1.490   5.154  12.148 -0.4474  0.4352  1.1244
 9119TIP3   OH248771   1.571   5.998  11.312  0.2757 -0.2299 -0.0335
 9119TIP3    H148772   1.495   5.949  11.282 -0.2186  0.3871  0.1949
 9119TIP3    H248773   1.535   6.063  11.372  1.1109 -0.6960  1.0112
 9120TIP3   OH248774   0.951   0.775  16.009  0.0037  0.0181  0.6594
 9120TIP3    H148775   0.871   0.772  16.061  0.4823  1.2707  1.5101
 9120TIP3    H248776   1.021   0.760  16.073  0.5824  1.2017  0.3284
 9121TIP3   OH248777   0.974   5.722  13.428 -0.1146  0.4599  0.4335
 9121TIP3    H148778   0.891   5.683  13.401 -0.7223 -0.5050  3.2759
 9121TIP3    H248779   0.949   5.799  13.479  0.7120  0.2400  1.2029
 9122TIP3   OH248780   2.603   6.132  15.148 -0.9163  0.4427 -0.6845
 9122TIP3    H148781   2.581   6.069  15.217 -0.0148 -0.2288 -0.9775
 9122TIP3    H248782   2.633   6.077  15.075 -0.4037  1.1990 -1.0543
 9123TIP3   OH248783   3.317   0.909   1.884  0.0562 -0.6486 -0.3157
 9123TIP3    H148784   3.322   0.818   1.913 -0.8287 -0.5113  0.2874
 9123TIP3    H248785   3.285   0.904   1.794  1.3196 -0.9903 -0.7740
 9124TIP3   OH248786   1.052   3.818  14.007 -1.4106 -0.1002  0.2199
 9124TIP3    H148787   1.137   3.813  13.963 -1.1703  1.2935  0.4988
 9124TIP3    H248788   1.006   3.739  13.978 -0.2105 -0.6315 -0.3119
 9125TIP3   OH248789   4.623   6.274  11.095 -0.5345  1.3157 -0.1354
 9125TIP3    H148790   4.648   6.200  11.040  0.2528  1.6957 -0.3094
 9125TIP3    H248791   4.699   6.332  11.094 -1.0017  1.9634  0.2804
 9126TIP3   OH248792   3.447   0.721   5.138 -0.0667  0.6571  0.2635
 9126TIP3    H148793   3.398   0.648   5.098  0.8438 -0.3212  0.8797
 9126TIP3    H248794   3.386   0.760   5.200  0.8031 -2.6878  3.5955
 9127TIP3   OH248795   1.318   0.765   3.932 -0.3389 -0.3523  0.3742
 9127TIP3    H148796   1.301   0.701   3.863  1.5150 -0.0453 -0.4222
 9127TIP3    H248797   1.231   0.786   3.966 -1.4368 -0.0152 -2.3174
 9128TIP3   OH248798   1.722   4.840  11.612  0.6334 -0.2705  0.3015
 9128TIP3    H148799   1.644   4.897  11.616  1.3828  1.0601 -2.0059
 9128TIP3    H248800   1.792   4.898  11.581  2.0045 -1.9540  0.1204
 9129TIP3   OH248801   0.496   5.501  13.458 -0.1397  0.0184 -0.1168
 9129TIP3    H148802   0.406   5.518  13.488  0.3360  2.3168  0.1966
 9129TIP3    H248803   0.515   5.412  13.488 -1.6240  0.1988  1.5371
 9130TIP3   OH248804   6.319   6.515   2.716 -0.2092  0.0287  0.5394
 9130TIP3    H148805   6.268   6.517   2.635  0.4624  0.8513  0.1175
 9130TIP3    H248806   6.264   6.559   2.780  0.4140  2.0184 -0.2142
 9131TIP3   OH248807   0.449   4.184  15.607  0.2895 -0.4163 -0.0328
 9131TIP3    H148808   0.447   4.090  15.587 -0.0519 -0.0027 -2.1859
 9131TIP3    H248809   0.499   4.190  15.688 -1.0530 -2.5945  1.0645
 9132TIP3   OH248810   0.974   0.551   5.203  0.5360 -0.4738 -0.5256
 9132TIP3    H148811   1.014   0.637   5.193  0.8051 -0.4493  0.6217
 9132TIP3    H248812   1.012   0.498   5.133  1.1473  0.0682 -0.6140
 9133TIP3   OH248813   5.449   4.780   0.915  0.2317  0.4602  0.8674
 9133TIP3    H148814   5.373   4.801   0.861  1.1731  0.6483 -0.4414
 9133TIP3    H248815   5.480   4.695   0.881  1.9529  1.4699 -0.2303
 9134TIP3   OH248816   0.988   1.741  15.478  0.1638 -0.0762 -0.2392
 9134TIP3    H148817   0.893   1.740  15.488  0.3932 -0.0567  2.9340
 9134TIP3    H248818   1.009   1.656  15.440 -1.0693 -0.3191 -0.4229
 9135TIP3   OH248819   6.279   5.994  13.760  0.3851  0.1336  0.0292
 9135TIP3    H148820   6.325   5.986  13.677  0.2869  1.3114 -0.1504
 9135TIP3    H248821   6.344   5.967  13.826  0.5570 -0.4988 -0.3892
 9136TIP3   OH248822   2.496   3.563   1.525  0.8279 -0.7160 -0.3239
 9136TIP3    H148823   2.457   3.626   1.464  2.2020 -1.3581 -1.9342
 9136TIP3    H248824   2.503   3.611   1.608 -1.3305  0.0937 -0.5374
 9137TIP3   OH248825   4.748   0.493  10.965  0.0788  0.7724 -0.0283
 9137TIP3    H148826   4.821   0.549  10.992  0.8024 -0.3740  0.4808
 9137TIP3    H248827   4.673   0.552  10.962  0.8021  1.7622  0.5366
 9138TIP3   OH248828   2.656   4.884   2.737 -0.2608 -0.1405 -0.2798
 9138TIP3    H148829   2.655   4.953   2.804 -1.0417 -0.5073  0.0953
 9138TIP3    H248830   2.743   4.891   2.697 -0.1418  0.7262  0.1024
 9139TIP3   OH248831   3.420   0.727  16.442  0.6995 -0.2957  0.1703
 9139TIP3    H148832   3.461   0.758  16.361 -1.3492  0.2475 -0.7089
 9139TIP3    H248833   3.345   0.676  16.413 -0.4594  0.4497  1.7311
 9140TIP3   OH248834   0.654   3.556   1.235 -0.0742  0.8429 -0.3723
 9140TIP3    H148835   0.663   3.637   1.287  0.0176  0.6547 -0.0913
 9140TIP3    H248836   0.735   3.552   1.184  0.1733  0.6372  0.0324
 9141TIP3   OH248837   1.811   3.007  13.637 -0.0418 -0.2887 -0.3498
 9141TIP3    H148838   1.827   2.913  13.635  2.7758  0.1103 -0.8335
 9141TIP3    H248839   1.754   3.023  13.561 -1.1723 -1.6331  0.1530
 9142TIP3   OH248840   0.801   3.049  15.303 -0.0809  0.2082  0.1943
 9142TIP3    H148841   0.828   3.139  15.287  1.1398 -0.1587  0.0638
 9142TIP3    H248842   0.730   3.034  15.241  0.6991  0.6266 -0.8238
 9143TIP3   OH248843   6.683   1.355  11.592  0.0863 -0.5914  0.6232
 9143TIP3    H148844   6.611   1.377  11.533  0.9984 -0.0821 -0.3391
 9143TIP3    H248845   6.640   1.321  11.671 -1.2705  1.1274  0.6891
 9144TIP3   OH248846   3.490   3.735   5.675  0.2598  0.1331 -0.2543
 9144TIP3    H148847   3.538   3.736   5.592 -0.7051  0.2717 -0.8284
 9144TIP3    H248848   3.558   3.726   5.742  1.1690  1.2910 -0.9772
 9145TIP3   OH248849   3.071   4.154   3.681  0.0741 -0.0899 -0.1202
 9145TIP3    H148850   3.151   4.162   3.629 -0.5390  0.2275 -1.0302
 9145TIP3    H248851   3.061   4.060   3.696 -0.0486 -0.2324 -1.0706
 9146TIP3   OH248852   2.370   3.555   4.168  0.5667 -0.3397  0.0250
 9146TIP3    H148853   2.324   3.600   4.097  0.3825 -2.9532 -1.6788
 9146TIP3    H248854   2.461   3.552   4.140  1.0721  1.2168  1.4006
 9147TIP3   OH248855   0.431   1.208  11.184 -0.7346  0.0821 -0.0471
 9147TIP3    H148856   0.466   1.121  11.167 -1.4193 -0.0479 -0.8596
 9147TIP3    H248857   0.462   1.230  11.272 -0.8180 -1.1064  0.2908
 9148TIP3   OH248858   6.767   1.400   5.090  0.3402  0.0237  0.3392
 9148TIP3    H148859   6.672   1.410   5.079  0.1657 -2.0244 -0.5097
 9148TIP3    H248860   6.795   1.482   5.129 -1.6695  0.9908 -0.0906
 9149TIP3   OH248861   1.678   5.545  10.585 -0.7371 -0.3470 -0.4246
 9149TIP3    H148862   1.616   5.608  10.549 -2.1178 -1.9853 -1.0443
 9149TIP3    H248863   1.644   5.524  10.672  1.2341  1.7288  0.9753
 9150TIP3   OH248864   2.440   3.982  15.388 -0.1188  0.1791 -0.0101
 9150TIP3    H148865   2.350   3.997  15.359 -0.0432  3.0726  0.9090
 9150TIP3    H248866   2.479   4.069  15.391  2.0272 -0.7411  1.8306
 9151TIP3   OH248867   4.539   4.000   4.615 -0.1030 -0.2440 -0.0452
 9151TIP3    H148868   4.571   3.960   4.535  1.1156 -1.1871  0.8749
 9151TIP3    H248869   4.520   3.926   4.673  1.9119  0.4222  1.5962
 9152TIP3   OH248870   0.366   3.327   5.673  0.7360 -0.0226  0.1848
 9152TIP3    H148871   0.353   3.315   5.579  0.5800 -0.1614  0.2240
 9152TIP3    H248872   0.283   3.362   5.704  0.3384 -1.2035  0.4886
 9153TIP3   OH248873   2.866   2.304   3.466  0.1244 -0.0497 -0.3647
 9153TIP3    H148874   2.799   2.371   3.454  0.3217  0.3573  0.7074
 9153TIP3    H248875   2.868   2.289   3.561  1.9479  0.3556 -0.3105
 9154TIP3   OH248876   3.437   4.760   6.590 -0.2025 -0.1139  0.1106
 9154TIP3    H148877   3.504   4.702   6.555  0.7888 -0.0201  1.7793
 9154TIP3    H248878   3.354   4.717   6.567  0.4860 -1.7067  0.4750
 9155TIP3   OH248879   3.727   2.762   6.192  0.0420 -0.0939 -0.3105
 9155TIP3    H148880   3.734   2.710   6.272  0.1425 -2.0640 -1.5457
 9155TIP3    H248881   3.658   2.826   6.212  0.7328  0.1148  1.6583
 9156TIP3   OH248882   4.465   4.826   2.153  0.1683  0.2892  0.5344
 9156TIP3    H148883   4.530   4.756   2.152  0.8424  0.9068  0.2795
 9156TIP3    H248884   4.448   4.841   2.246  0.0993 -0.1276  0.5929
 9157TIP3   OH248885   2.693   6.639  11.717 -0.1447  0.0503  0.5720
 9157TIP3    H148886   2.720   6.609  11.631  0.5058 -1.6028  1.3046
 9157TIP3    H248887   2.624   6.577  11.744  0.1579  0.1015  1.5184
 9158TIP3   OH248888   5.966   1.368  14.031 -0.4535 -0.4564 -0.2795
 9158TIP3    H148889   5.974   1.277  14.003 -2.0898 -0.9045  0.6257
 9158TIP3    H248890   5.918   1.411  13.960  1.0546 -0.0685 -1.1033
 9159TIP3   OH248891   5.792   2.387   2.514  0.0585 -0.4682  0.5869
 9159TIP3    H148892   5.807   2.441   2.437  1.9610 -0.1920  1.0959
 9159TIP3    H248893   5.697   2.373   2.516  0.0556 -1.7279 -2.6159
 9160TIP3   OH248894   5.503   0.230  14.712  0.0473 -0.6421  0.5415
 9160TIP3    H148895   5.431   0.224  14.774  0.8483 -0.1012  1.5589
 9160TIP3    H248896   5.461   0.230  14.626 -1.1531 -0.4056  1.1102
 9161TIP3   OH248897   2.840   2.584   3.993  0.3111  0.3302 -0.7536
 9161TIP3    H148898   2.925   2.540   3.996 -0.2628 -1.0381 -2.4279
 9161TIP3    H248899   2.799   2.563   4.077  0.5172 -1.4993 -1.0538
 9162TIP3   OH248900   6.669   0.761  17.197  0.0258 -0.2960  0.1606
 9162TIP3    H148901   6.726   0.832  17.227  0.8594 -1.0079  0.2989
 9162TIP3    H248902   6.592   0.806  17.162  0.5545  0.6773  0.1939
 9163TIP3   OH248903   1.659   1.339   1.056  0.4433 -0.7213  0.7431
 9163TIP3    H148904   1.691   1.251   1.035  1.9187 -0.1736  0.5731
 9163TIP3    H248905   1.633   1.376   0.972  3.1897  0.2542  0.2314
 9164TIP3   OH248906   1.532   2.729   0.827  1.2722 -0.0439 -0.0112
 9164TIP3    H148907   1.505   2.687   0.746  0.2276  1.2035 -0.3457
 9164TIP3    H248908   1.479   2.687   0.895  0.4991  0.4436 -0.2956
 9165TIP3   OH248909   6.247   6.483   3.782  0.9362 -0.0540  0.2398
 9165TIP3    H148910   6.168   6.430   3.793  1.1045 -0.7070 -1.4739
 9165TIP3    H248911   6.234   6.558   3.841 -0.6993 -0.4360  0.4003
 9166TIP3   OH248912   2.665   0.381  12.206 -0.1634  1.2221  0.2342
 9166TIP3    H148913   2.596   0.330  12.250 -1.6954  4.2948  1.7473
 9166TIP3    H248914   2.673   0.340  12.119 -2.0010 -0.8568  0.9340
 9167TIP3   OH248915   2.003   5.936  12.216 -0.5738  0.1344 -0.8989
 9167TIP3    H148916   1.936   5.902  12.275  0.4275  0.3431  0.3833
 9167TIP3    H248917   1.988   6.031  12.215 -0.0933  0.2233 -0.3259
 9168TIP3   OH248918   3.900   0.225  14.491  0.0216 -0.0785 -0.0164
 9168TIP3    H148919   3.859   0.294  14.439  1.0910 -1.2283 -2.5679
 9168TIP3    H248920   3.844   0.148  14.480 -0.2025 -0.1377  1.3182
 9169TIP3   OH248921   1.647   1.138  15.526 -0.0935  0.6880 -0.2874
 9169TIP3    H148922   1.737   1.147  15.496 -0.5329 -1.9762 -2.8802
 9169TIP3    H248923   1.651   1.073  15.596 -0.1839 -1.5072 -2.2209
 9170TIP3   OH248924   4.034   2.750  16.309 -0.1590  0.4684 -0.1858
 9170TIP3    H148925   4.037   2.794  16.394  1.3162 -1.2306  0.7221
 9170TIP3    H248926   3.985   2.810  16.252 -3.4060  0.5776  2.4454
 9171TIP3   OH248927   0.497   1.791  12.723 -0.0666  0.3133  0.2981
 9171TIP3    H148928   0.494   1.772  12.629  0.5866  1.0907  0.1082
 9171TIP3    H248929   0.591   1.798  12.743 -0.1723 -0.5827  1.1677
 9172TIP3   OH248930   1.401   2.611  15.374  0.5216 -0.1547 -0.2895
 9172TIP3    H148931   1.351   2.531  15.358  1.8005 -1.7644  2.8784
 9172TIP3    H248932   1.335   2.680  15.372 -0.5886 -1.1227 -3.3255
 9173TIP3   OH248933   4.920   3.020   1.803  0.2579 -0.0014 -0.1146
 9173TIP3    H148934   4.826   3.032   1.818  0.3462 -0.7534  1.1693
 9173TIP3    H248935   4.960   3.100   1.836  0.1964 -0.3933  0.9391
 9174TIP3   OH248936   4.943   3.772   1.252  0.0801 -0.0083  0.2538
 9174TIP3    H148937   5.007   3.786   1.322  0.3903 -0.3564  0.0425
 9174TIP3    H248938   4.862   3.810   1.285  0.1326 -0.4923  0.9576
 9175TIP3   OH248939   4.402   6.489   3.531 -0.1347 -0.1360 -0.0920
 9175TIP3    H148940   4.376   6.546   3.459 -0.5359 -0.4688 -0.2101
 9175TIP3    H248941   4.330   6.495   3.594 -0.2843 -0.6853 -0.2062
 9176TIP3   OH248942   3.033   0.524  14.899 -0.5888  0.1039 -0.0095
 9176TIP3    H148943   2.990   0.574  14.968 -0.6047 -0.1317  0.1514
 9176TIP3    H248944   2.997   0.560  14.818 -0.6542  0.3039  0.1074
 9177TIP3   OH248945   3.524   2.100  11.973 -0.5113  0.3260  0.2449
 9177TIP3    H148946   3.553   2.188  11.997  3.5944 -0.9010  0.3892
 9177TIP3    H248947   3.477   2.112  11.890  1.3231  2.4833 -0.5697
 9178TIP3   OH248948   0.420   2.450  12.180  0.3318  0.1258  0.1517
 9178TIP3    H148949   0.404   2.512  12.252 -0.0875  0.0752  0.1068
 9178TIP3    H248950   0.334   2.440  12.138  0.0793 -1.5067  0.9774
 9179TIP3   OH248951   4.158   3.254  12.309  0.3953 -0.1993  0.2286
 9179TIP3    H148952   4.115   3.177  12.272 -0.4703  0.4000 -0.0236
 9179TIP3    H248953   4.087   3.310  12.340  1.0526 -0.0131  1.4721
 9180TIP3   OH248954   1.286   4.594  13.515 -0.3334  0.3951 -0.1648
 9180TIP3    H148955   1.348   4.667  13.520 -0.2952  0.5557 -2.1118
 9180TIP3    H248956   1.333   4.525  13.469 -1.2188  0.0915 -0.6447
 9181TIP3   OH248957   2.264   0.096   2.138 -0.1472  0.2713 -0.5363
 9181TIP3    H148958   2.327   0.038   2.180  0.2723 -0.0957 -1.6394
 9181TIP3    H248959   2.310   0.130   2.062 -1.5445 -0.6904 -1.8698
 9182TIP3   OH248960   1.965   3.602  14.601  0.1340 -0.5231 -0.3134
 9182TIP3    H148961   1.998   3.515  14.626 -0.5130 -0.8963 -0.7261
 9182TIP3    H248962   1.901   3.624  14.669  3.4964  1.7117  2.4751
 9183TIP3   OH248963   6.408   4.993   2.603 -0.1223 -0.7199  0.2272
 9183TIP3    H148964   6.340   4.983   2.537  0.0704 -2.2391  0.2148
 9183TIP3    H248965   6.479   4.935   2.573  1.1938  0.7933  0.2472
 9184TIP3   OH248966   3.415   0.326   3.915  0.5207 -0.0008 -0.1197
 9184TIP3    H148967   3.429   0.233   3.899  0.0341 -0.0162 -0.4723
 9184TIP3    H248968   3.394   0.332   4.008 -2.3989 -0.6270 -0.6333
 9185TIP3   OH248969   3.551   4.499  10.952  0.0321 -0.5115 -0.4652
 9185TIP3    H148970   3.620   4.433  10.957 -0.6745 -1.3054 -0.8637
 9185TIP3    H248971   3.490   4.464  10.887 -0.1369  0.7528 -1.0107
 9186TIP3   OH248972   1.237   4.850   4.508  0.0268  0.2376  0.1530
 9186TIP3    H148973   1.150   4.888   4.517 -0.5332 -0.2872 -2.4317
 9186TIP3    H248974   1.267   4.875   4.421  1.4825 -1.5499  0.0699
 9187TIP3   OH248975   6.671   5.758   0.192 -0.3671 -0.8247 -0.0929
 9187TIP3    H148976   6.711   5.688   0.140  1.7628  0.2382  0.0154
 9187TIP3    H248977   6.649   5.716   0.275  0.6815 -1.4296 -0.1014
 9188TIP3   OH248978   4.396   5.242   0.234  0.1011  0.2810 -0.4015
 9188TIP3    H148979   4.475   5.296   0.231  0.1594  0.1676 -1.1645
 9188TIP3    H248980   4.416   5.172   0.296  0.8642 -0.1400 -1.1054
 9189TIP3   OH248981   0.935   2.274  15.185 -0.2037  0.1438 -0.2692
 9189TIP3    H148982   0.878   2.218  15.238 -0.2645 -0.7789 -1.2747
 9189TIP3    H248983   0.901   2.266  15.096  0.8002  0.4844 -0.7011
 9190TIP3   OH248984   1.158   2.675  12.984  0.3341  0.2828 -0.9051
 9190TIP3    H148985   1.125   2.662  12.896 -1.0734 -0.0196 -0.3591
 9190TIP3    H248986   1.083   2.657  13.041  0.9475  1.4177  0.3133
 9191TIP3   OH248987   0.727   3.917   4.927  0.0501 -0.1382 -0.0447
 9191TIP3    H148988   0.692   3.882   5.009  0.3724  3.0859  1.6463
 9191TIP3    H248989   0.790   3.984   4.954  3.9528 -2.2139 -2.9873
 9192TIP3   OH248990   0.539   3.607   4.365  0.1265 -0.6212 -0.0936
 9192TIP3    H148991   0.631   3.628   4.353  0.2442 -1.3017 -0.3922
 9192TIP3    H248992   0.504   3.595   4.277 -0.5602  0.8877 -0.0567
 9193TIP3   OH248993   5.012   1.415   0.671 -0.2466 -0.0001  0.2609
 9193TIP3    H148994   5.061   1.493   0.697  0.5012 -1.0210  2.1413
 9193TIP3    H248995   5.031   1.351   0.740 -0.9185 -1.8110 -1.1441
 9194TIP3   OH248996   1.831   6.201  16.156  0.1439  0.4478  0.2667
 9194TIP3    H148997   1.882   6.280  16.139 -0.2369  0.8630  0.9968
 9194TIP3    H248998   1.741   6.232  16.166 -0.4070 -0.3693 -1.7684
 9195TIP3   OH248999   4.285   6.772  14.882  0.1449  0.3095  0.0565
 9195TIP3    H149000   4.197   6.800  14.856  0.5546  1.6206  0.0386
 9195TIP3    H249001   4.277   6.750  14.975 -0.4337 -0.6142 -0.1984
 9196TIP3   OH249002   5.479   3.135  16.001 -0.1035 -0.0208 -0.3183
 9196TIP3    H149003   5.405   3.187  15.968 -0.8605  0.5929  2.1266
 9196TIP3    H249004   5.527   3.196  16.058  2.2201 -0.4707 -1.6634
 9197TIP3   OH249005   5.456   6.068   4.539  0.2655  0.1193  0.4648
 9197TIP3    H149006   5.383   6.072   4.477  0.1171 -0.9733  0.5547
 9197TIP3    H249007   5.483   6.160   4.549 -1.1046  0.5502  0.4517
 9198TIP3   OH249008   2.941   0.167  10.606  0.5970 -0.5503  0.8563
 9198TIP3    H149009   3.029   0.139  10.632  0.7105 -2.2633 -1.1688
 9198TIP3    H249010   2.953   0.208  10.521 -0.5291 -0.4949  0.7109
 9199TIP3   OH249011   5.125   6.597  13.263  0.2386 -0.5627 -0.7870
 9199TIP3    H149012   5.106   6.658  13.192 -1.9935 -1.1070 -0.7305
 9199TIP3    H249013   5.186   6.533  13.225 -0.6953 -0.6853 -2.1285
 9200TIP3   OH249014   4.985   1.834   0.251  0.1266 -0.4948 -0.6005
 9200TIP3    H149015   5.023   1.786   0.325 -0.1267 -0.0312 -0.1666
 9200TIP3    H249016   4.947   1.766   0.195  0.9037 -0.9022 -0.6503
 9201TIP3   OH249017   2.359   2.571  11.357  0.0330  0.2277  0.4953
 9201TIP3    H149018   2.348   2.487  11.313 -1.0115  0.6840 -0.1417
 9201TIP3    H249019   2.309   2.633  11.304  0.3010  1.1430  1.2857
 9202TIP3   OH249020   5.700   2.765  14.098  0.0118 -0.5235  0.1990
 9202TIP3    H149021   5.700   2.675  14.066  1.1184 -0.3347 -0.3849
 9202TIP3    H249022   5.607   2.788  14.104 -0.2739 -0.9321 -1.9133
 9203TIP3   OH249023   3.369   0.174  13.965 -0.1778 -0.6825  0.9813
 9203TIP3    H149024   3.383   0.109  13.896  0.4662  1.2055 -0.7575
 9203TIP3    H249025   3.381   0.125  14.046  0.3783 -2.7105 -0.2466
 9204TIP3   OH249026   5.671   6.091  10.924  0.0448 -0.4541  0.1166
 9204TIP3    H149027   5.762   6.080  10.951 -0.3993 -0.7319  1.5706
 9204TIP3    H249028   5.673   6.079  10.829  1.7437  1.0284 -0.0804
 9205TIP3   OH249029   3.252   2.446   5.897 -0.1698 -0.4302 -0.2007
 9205TIP3    H149030   3.346   2.439   5.913 -0.0631 -0.1034 -0.6574
 9205TIP3    H249031   3.228   2.532   5.932  0.1039  0.3783 -1.8833
 9206TIP3   OH249032   6.780   3.907   0.605 -0.1414  0.2044 -0.4507
 9206TIP3    H149033   6.772   3.987   0.657 -1.1095  2.2428 -3.4798
 9206TIP3    H249034   6.691   3.890   0.574  0.3067 -1.2627 -1.0268
 9207TIP3   OH249035   0.450   2.653   3.570 -0.0091 -0.4117 -0.1343
 9207TIP3    H149036   0.357   2.675   3.581  0.1781  1.6316 -2.0754
 9207TIP3    H249037   0.463   2.651   3.475  1.9640 -0.5828  0.1047
 9208TIP3   OH249038   3.282   0.340  16.510  0.9449  0.0786  0.7595
 9208TIP3    H149039   3.265   0.430  16.537  1.4902  0.6704 -0.7888
 9208TIP3    H249040   3.357   0.346  16.452 -0.6002 -0.9912 -1.5134
 9209TIP3   OH249041   1.652   2.425   0.415  0.4029  0.1646 -0.3045
 9209TIP3    H149042   1.649   2.364   0.488 -3.6306  1.4271  0.8827
 9209TIP3    H249043   1.709   2.496   0.445  0.9448 -0.5756  0.4519
 9210TIP3   OH249044   0.462   4.298  14.772 -0.1484 -0.2701 -0.3777
 9210TIP3    H149045   0.392   4.358  14.797 -2.9140 -3.3738  0.0342
 9210TIP3    H249046   0.460   4.298  14.676  1.2240  1.6305 -0.4549
 9211TIP3   OH249047   4.764   2.091   3.593  0.3543  0.4499 -0.5273
 9211TIP3    H149048   4.733   2.158   3.653 -0.3057 -1.1266  0.9813
 9211TIP3    H249049   4.853   2.071   3.624  0.3608  0.2865 -0.6499
 9212TIP3   OH249050   5.145   4.672  12.042 -0.2898  0.0596 -0.1552
 9212TIP3    H149051   5.132   4.577  12.049  0.2582 -0.2163 -2.2497
 9212TIP3    H249052   5.058   4.709  12.054 -0.7184 -0.8019 -0.5164
 9213TIP3   OH249053   4.445   3.577   2.436 -0.6256  0.0337  0.2981
 9213TIP3    H149054   4.535   3.602   2.419 -1.0442  0.3512 -1.7096
 9213TIP3    H249055   4.433   3.591   2.530  0.8802  1.7378  0.2832
 9214TIP3   OH249056   4.738   3.268   4.959 -0.4959 -0.1789  0.5686
 9214TIP3    H149057   4.716   3.279   4.866  0.3529 -2.2860  0.0572
 9214TIP3    H249058   4.819   3.318   4.970  0.2553 -1.1606 -0.2592
 9215TIP3   OH249059   2.799   0.235   0.842  0.2423 -0.1467 -0.4311
 9215TIP3    H149060   2.740   0.306   0.867 -1.7322 -1.0957 -2.1293
 9215TIP3    H249061   2.772   0.161   0.896  0.2248 -0.4534 -0.8589
 9216TIP3   OH249062   1.352   5.851   0.603 -0.0216  0.1846 -0.1649
 9216TIP3    H149063   1.367   5.795   0.527  0.4837  1.4035 -0.9956
 9216TIP3    H249064   1.257   5.850   0.616 -0.1150  0.0202 -0.8546
 9217TIP3   OH249065   0.515   2.792  12.418 -0.3159 -0.1585 -0.1109
 9217TIP3    H149066   0.593   2.795  12.363 -1.2165 -0.2779 -1.4293
 9217TIP3    H249067   0.472   2.876  12.404 -2.0893 -1.2923 -1.9383
 9218TIP3   OH249068   6.428   2.004   2.936  0.1004  0.4452 -0.3082
 9218TIP3    H149069   6.491   1.974   3.002 -0.7251  1.1680  0.8340
 9218TIP3    H249070   6.449   2.096   2.922 -0.3656  0.5542 -0.3082
 9219TIP3   OH249071   2.203   4.811   4.421  0.8611  0.2464 -0.0840
 9219TIP3    H149072   2.126   4.767   4.384  0.6248 -0.0904  0.7749
 9219TIP3    H249073   2.253   4.840   4.345  0.7362 -1.0121 -0.6768
 9220TIP3   OH249074   5.400   2.468  12.327 -0.3740  0.3130 -0.7095
 9220TIP3    H149075   5.435   2.415  12.256  2.0604 -0.4626  0.9356
 9220TIP3    H249076   5.331   2.414  12.366  0.5369 -0.6867 -0.4609
 9221TIP3   OH249077   5.297   6.253  16.001  0.0231  0.1328  0.0629
 9221TIP3    H149078   5.305   6.230  16.094  1.7805 -1.9537 -0.5037
 9221TIP3    H249079   5.244   6.183  15.963  0.7699  0.0034 -0.7829
 9222TIP3   OH249080   6.727   6.775   5.885  0.0480  0.2978 -0.2020
 9222TIP3    H149081   6.815   6.739   5.898 -0.1746 -0.2573 -0.1964
 9222TIP3    H249082   6.736   6.868   5.906  0.3168 -0.0221  1.2061
 9223TIP3   OH249083   6.481   1.759  15.800  0.6162  0.6286 -0.1036
 9223TIP3    H149084   6.455   1.844  15.765  1.0147  2.3272  3.2768
 9223TIP3    H249085   6.407   1.702  15.781 -2.4382  3.3172  2.4958
 9224TIP3   OH249086   3.535   6.191  11.379  0.5563 -0.1020  0.5361
 9224TIP3    H149087   3.625   6.218  11.360  0.6791 -1.3883 -0.9540
 9224TIP3    H249088   3.493   6.270  11.413  1.6882  1.1072 -0.7157
 9225TIP3   OH249089   2.646   4.709   2.529  0.1146  0.3711  0.2089
 9225TIP3    H149090   2.594   4.771   2.580 -0.3637 -1.2740  1.8144
 9225TIP3    H249091   2.664   4.755   2.447 -1.3577  2.1032  0.7878
 9226TIP3   OH249092   4.992   3.622  15.618 -0.1842 -0.4059  0.6900
 9226TIP3    H149093   4.962   3.705  15.656 -0.1449  0.5681 -1.2873
 9226TIP3    H249094   4.921   3.560  15.638 -0.9760  0.5010  0.7905
 9227TIP3   OH249095   2.227   3.969   4.118 -0.2586 -0.3561  0.6923
 9227TIP3    H149096   2.185   3.912   4.054 -1.4754 -0.9179  1.9225
 9227TIP3    H249097   2.294   4.016   4.069 -1.3943 -0.4860 -1.0462
 9228TIP3   OH249098   2.467   6.062   0.667 -0.3747  0.6433  0.2639
 9228TIP3    H149099   2.374   6.056   0.643 -0.5146  0.0086  0.9160
 9228TIP3    H249100   2.491   5.973   0.692  0.7013  0.5983 -0.8841
 9229TIP3   OH249101   5.150   6.395  15.659  0.3835  0.2793  0.0047
 9229TIP3    H149102   5.186   6.440  15.583  0.3684  0.4878  0.1208
 9229TIP3    H249103   5.074   6.347  15.624 -1.3239  2.5382  0.3439
 9230TIP3   OH249104   2.884   2.637  12.804  0.0614  0.6520 -0.0921
 9230TIP3    H149105   2.978   2.621  12.803 -0.1054 -0.6642  1.1272
 9230TIP3    H249106   2.855   2.614  12.715  0.7391  0.0152 -0.1584
 9231TIP3   OH249107   2.001   5.077  13.953 -0.6665 -0.4315 -0.5966
 9231TIP3    H149108   2.062   5.150  13.942  1.0391 -1.4602  1.4448
 9231TIP3    H249109   1.917   5.119  13.974 -0.4900  0.9748 -2.4423
 9232TIP3   OH249110   3.434   3.157  13.874  0.3693  0.2627  0.1695
 9232TIP3    H149111   3.465   3.241  13.840 -1.7086  1.0707  0.1126
 9232TIP3    H249112   3.356   3.179  13.924 -0.3592 -1.6701 -0.0313
 9233TIP3   OH249113   0.104   1.930   2.639 -0.2877 -0.2336 -0.3000
 9233TIP3    H149114   0.154   1.853   2.666  1.5815  0.8902 -0.4252
 9233TIP3    H249115   0.019   1.919   2.682  0.9745 -0.8493  2.2184
 9234TIP3   OH249116   4.048   3.835   1.160  0.1470  0.2238  0.0889
 9234TIP3    H149117   4.105   3.783   1.217 -0.8924  0.1534  1.0831
 9234TIP3    H249118   3.997   3.769   1.112  1.1518  0.2769 -1.0933
 9235TIP3   OH249119   0.258   5.659   3.961 -0.3017  0.2992 -0.8516
 9235TIP3    H149120   0.270   5.678   4.054  0.9248  2.0950 -1.3334
 9235TIP3    H249121   0.186   5.596   3.959  1.6279 -2.2119  1.5083
 9236TIP3   OH249122   0.537   0.009   3.778  0.0031  0.2629 -0.0522
 9236TIP3    H149123   0.504  -0.072   3.818  1.7504 -1.3796 -1.7304
 9236TIP3    H249124   0.585  -0.021   3.701 -1.0773  3.0898 -1.9638
 9237TIP3   OH249125   1.962   5.797   2.368 -0.1752  0.1884 -0.3865
 9237TIP3    H149126   1.959   5.883   2.325 -0.5195  0.5818  0.4117
 9237TIP3    H249127   1.946   5.816   2.460 -0.4578 -0.7641 -0.2332
 9238TIP3   OH249128   2.592   6.559   4.058  0.8396 -0.2827 -0.3792
 9238TIP3    H149129   2.544   6.479   4.034  0.8523 -0.7184  0.9969
 9238TIP3    H249130   2.635   6.585   3.976  1.8074 -2.3514 -0.6064
 9239TIP3   OH249131   3.969   1.504  10.959 -0.6389  0.1614 -0.3288
 9239TIP3    H149132   3.915   1.518  10.882 -0.9271 -1.4414 -0.4393
 9239TIP3    H249133   3.964   1.587  11.007 -2.5264  0.3317 -0.7424
 9240TIP3   OH249134   1.889   3.255  13.659  0.0379 -0.1205 -0.3514
 9240TIP3    H149135   1.871   3.165  13.686  2.1836 -0.1330  1.2500
 9240TIP3    H249136   1.929   3.246  13.572  3.3258 -1.0979  1.1257
 9241TIP3   OH249137   6.460   3.869   1.161 -0.2751 -0.2843 -0.1953
 9241TIP3    H149138   6.452   3.964   1.149  0.5725 -0.0823  0.6969
 9241TIP3    H249139   6.370   3.838   1.172 -0.4469  0.9239  2.9212
 9242TIP3   OH249140   1.269   6.059   4.902 -0.1717  0.2892  0.0395
 9242TIP3    H149141   1.363   6.070   4.910  0.0165 -0.5776 -0.7823
 9242TIP3    H249142   1.253   6.055   4.808 -0.9899  0.0603  0.1772
 9243TIP3   OH249143   1.434   1.654   1.564 -0.7769 -0.3252  0.4045
 9243TIP3    H149144   1.384   1.731   1.536  0.0713  0.7188  1.6399
 9243TIP3    H249145   1.524   1.672   1.536 -0.7157 -1.2506 -0.0178
 9244TIP3   OH249146   3.602   3.079  16.561 -0.5203 -0.2793  0.3260
 9244TIP3    H149147   3.513   3.109  16.581 -0.8068  1.2650 -2.7506
 9244TIP3    H249148   3.590   3.002  16.506 -0.0296  0.6059 -1.0585
 9245TIP3   OH249149   5.352   6.485  14.785  0.0336 -0.3242 -0.2904
 9245TIP3    H149150   5.282   6.515  14.727 -2.7410 -3.0023  1.4119
 9245TIP3    H249151   5.399   6.420  14.733 -0.9869 -1.0482 -0.3252
 9246TIP3   OH249152   4.378   0.218   3.986  0.0557 -0.1791 -0.0103
 9246TIP3    H149153   4.381   0.313   3.972  1.4371 -0.5298 -3.0985
 9246TIP3    H249154   4.414   0.205   4.074  0.8832  2.1122  0.0564
 9247TIP3   OH249155   1.346   6.417  11.829  0.1426 -0.6111 -0.5779
 9247TIP3    H149156   1.396   6.335  11.830  1.2479  0.0380 -1.3967
 9247TIP3    H249157   1.309   6.421  11.741 -0.0008 -0.2751 -0.5048
 9248TIP3   OH249158   5.473   1.834  14.982  0.2255  0.0537 -0.1586
 9248TIP3    H149159   5.507   1.786  15.058 -1.0221 -3.1403 -1.4272
 9248TIP3    H249160   5.389   1.869  15.012  0.2701 -0.1949  0.2745
 9249TIP3   OH249161   5.613   5.590   6.184 -0.4027  0.2315  0.0469
 9249TIP3    H149162   5.603   5.669   6.131  0.2583 -0.9855 -1.9956
 9249TIP3    H249163   5.539   5.535   6.160  0.9263 -1.1265 -1.1121
 9250TIP3   OH249164   0.998   4.323  12.345 -0.2687 -0.0229  0.1986
 9250TIP3    H149165   0.970   4.247  12.294  0.4636 -2.1264  2.7026
 9250TIP3    H249166   0.928   4.338  12.408 -0.8012  2.0363 -0.7673
 9251TIP3   OH249167   5.525   2.907   1.385  0.4872 -0.1176 -0.3046
 9251TIP3    H149168   5.536   2.906   1.480 -0.8889  0.2098 -0.1204
 9251TIP3    H249169   5.443   2.860   1.369  0.2815  0.5351 -1.2644
 9252TIP3   OH249170   0.768   1.105  13.068 -0.2738  0.2658 -0.3271
 9252TIP3    H149171   0.682   1.071  13.092 -0.1259  0.7242  0.9651
 9252TIP3    H249172   0.828   1.032  13.080 -0.2754  0.3563  0.2652
 9253TIP3   OH249173   5.486   4.308  16.090 -0.7898 -0.6240 -0.2510
 9253TIP3    H149174   5.476   4.398  16.059  0.8783 -1.1628 -2.6474
 9253TIP3    H249175   5.401   4.267  16.074 -1.4855  0.4329  0.6293
 9254TIP3   OH249176   5.970   4.336   6.714 -0.0288  0.3829  0.8142
 9254TIP3    H149177   5.923   4.379   6.643  0.7240  0.6457  0.4688
 9254TIP3    H249178   5.939   4.246   6.712  2.1934 -0.4698 -1.8719
 9255TIP3   OH249179   1.930   4.992  13.286  0.4543  0.7060 -0.0997
 9255TIP3    H149180   2.008   5.030  13.326  0.5885 -0.0410  0.3779
 9255TIP3    H249181   1.923   4.905  13.325  0.8717 -0.2782 -2.0511
 9256TIP3   OH249182   1.900   4.469  13.468 -0.4026  0.1751 -0.1503
 9256TIP3    H149183   1.931   4.430  13.549  0.1445  0.5390 -0.1785
 9256TIP3    H249184   1.979   4.483  13.416 -0.3507  2.8119  0.5065
 9257TIP3   OH249185   5.398   0.327  10.263  0.3469 -0.2783  0.6940
 9257TIP3    H149186   5.340   0.391  10.304 -0.1031 -0.6587  0.6583
 9257TIP3    H249187   5.469   0.379  10.226  0.2518  0.1531  1.1154
 9258TIP3   OH249188   2.500   4.627   5.630 -0.0955 -0.0434 -0.6225
 9258TIP3    H149189   2.532   4.708   5.668 -1.6844  0.5608 -0.4933
 9258TIP3    H249190   2.447   4.587   5.699  0.7667 -1.2732 -0.6411
 9259TIP3   OH249191   5.470   1.193   4.800  0.1022 -0.0639 -0.2737
 9259TIP3    H149192   5.529   1.133   4.845  0.3058  0.6979  0.5064
 9259TIP3    H249193   5.430   1.244   4.871  0.8008  1.5140 -0.9697
 9260TIP3   OH249194   5.382   6.399   4.834 -0.5111  0.0481 -0.6005
 9260TIP3    H149195   5.304   6.412   4.888 -0.1377 -2.3550  0.6523
 9260TIP3    H249196   5.393   6.482   4.787 -2.7023  1.1063  0.6129
 9261TIP3   OH249197   0.798   3.599  12.525 -0.1480  0.6147  0.1224
 9261TIP3    H149198   0.750   3.659  12.469  0.8100  0.5086 -0.8549
 9261TIP3    H249199   0.750   3.516  12.518  1.0456  0.0296 -2.2118
 9262TIP3   OH249200   4.189   1.779  16.080 -0.1186 -0.2415 -0.1939
 9262TIP3    H149201   4.095   1.797  16.078 -0.1570 -0.4839 -2.3840
 9262TIP3    H249202   4.205   1.724  16.003  1.5533 -1.6459  1.0694
 9263TIP3   OH249203   6.581   5.534  12.487  0.1371  0.3941 -0.5379
 9263TIP3    H149204   6.573   5.573  12.400  0.2395 -0.4961 -0.9518
 9263TIP3    H249205   6.534   5.594  12.544  1.2550  1.7441 -0.9639
 9264TIP3   OH249206   2.755   3.870  12.793 -0.2112  0.0116  1.2642
 9264TIP3    H149207   2.746   3.782  12.828 -1.4717 -0.2332  0.3918
 9264TIP3    H249208   2.666   3.896  12.771  0.4069  0.4603 -0.9764
 9265TIP3   OH249209   4.201   0.345   5.815 -0.3050  0.3851  0.1119
 9265TIP3    H149210   4.216   0.395   5.896 -0.6504  0.0913  0.3593
 9265TIP3    H249211   4.133   0.394   5.769 -0.2647  0.4327  0.1030
 9266TIP3   OH249212   2.335   3.757  16.903  0.3135 -0.6609 -0.1120
 9266TIP3    H149213   2.307   3.672  16.937  1.8429 -1.2075 -0.1129
 9266TIP3    H249214   2.275   3.775  16.831 -1.2757 -0.7710  1.1351
 9267TIP3   OH249215   3.820   0.603  13.572  0.2598  0.0614  0.3294
 9267TIP3    H149216   3.857   0.676  13.521  2.2459 -1.3972 -0.4861
 9267TIP3    H249217   3.782   0.644  13.649  1.7447  1.9384  0.1518
 9268TIP3   OH249218   4.246   5.138   5.976 -0.2919 -0.2949 -0.1005
 9268TIP3    H149219   4.198   5.062   5.945 -1.6303  0.0494  1.0364
 9268TIP3    H249220   4.246   5.199   5.902 -0.5629 -0.7753 -0.4976
 9269TIP3   OH249221   5.709   3.631   2.113  0.1322 -0.1628 -0.1575
 9269TIP3    H149222   5.749   3.713   2.083  0.4271  0.0625  0.8116
 9269TIP3    H249223   5.633   3.619   2.056 -1.2183  1.9464  1.0493
 9270TIP3   OH249224   3.652   4.578   0.831  0.3297 -0.5614  0.1735
 9270TIP3    H149225   3.661   4.673   0.819  1.2373 -0.6716 -0.1382
 9270TIP3    H249226   3.574   4.554   0.782  1.1879 -0.2516 -1.4008
 9271TIP3   OH249227   1.892   5.741  10.631 -0.1304 -0.0677  0.7115
 9271TIP3    H149228   1.938   5.683  10.693 -1.7044 -1.7693  0.3703
 9271TIP3    H249229   1.823   5.686  10.593 -0.6564  1.5928 -0.8775
 9272TIP3   OH249230   2.542   3.136   4.656 -0.1692  0.4133 -0.3960
 9272TIP3    H149231   2.493   3.134   4.574  2.9527 -3.4552 -2.4998
 9272TIP3    H249232   2.611   3.200   4.639 -1.0929  1.6555  0.3788
 9273TIP3   OH249233   4.812   0.758   3.255 -0.6082  0.3619  0.4283
 9273TIP3    H149234   4.873   0.828   3.278 -1.0485  1.5459 -1.7373
 9273TIP3    H249235   4.866   0.678   3.255  0.8516  1.2961 -0.8831
 9274TIP3   OH249236   0.118   2.780  12.077 -0.0855  0.1542  0.2154
 9274TIP3    H149237   0.108   2.686  12.084 -0.2184  0.2668  1.9051
 9274TIP3    H249238   0.084   2.802  11.990 -0.0733 -1.3279 -0.1822
 9275TIP3   OH249239   1.385   0.077   4.830 -0.6403  0.0252  0.5480
 9275TIP3    H149240   1.456   0.031   4.875 -1.3254 -0.8895  0.7301
 9275TIP3    H249241   1.363   0.020   4.756 -0.7359  0.6369  0.0958
 9276TIP3   OH249242   0.992   6.275   3.782 -0.3894 -0.2027  0.1072
 9276TIP3    H149243   1.022   6.366   3.786 -1.4983  0.1692  0.6677
 9276TIP3    H249244   1.065   6.224   3.817 -0.3995  0.6561  1.4604
 9277TIP3   OH249245   3.665   0.987  12.335  0.1622 -0.2445 -0.0090
 9277TIP3    H149246   3.627   1.034  12.261  0.1802 -0.9358 -0.4695
 9277TIP3    H249247   3.722   0.921  12.294 -0.5570 -1.2477  0.5901
 9278TIP3   OH249248   2.202   6.015   0.568 -0.6042  0.5034 -1.1198
 9278TIP3    H149249   2.137   6.085   0.561 -1.5896 -0.1393  1.0042
 9278TIP3    H249250   2.171   5.947   0.508 -1.0656  0.8167 -1.2402
 9279TIP3   OH249251   6.058   2.318  13.149  0.3226  0.0411  0.1853
 9279TIP3    H149252   6.018   2.400  13.122 -1.3603 -0.9174 -0.3832
 9279TIP3    H249253   6.017   2.298  13.234  0.2965 -0.4793  0.0540
 9280TIP3   OH249254   6.627   1.099  13.999  0.4455 -0.1484  0.6853
 9280TIP3    H149255   6.545   1.111  13.952  0.8600  0.1385  0.0284
 9280TIP3    H249256   6.645   1.184  14.038 -0.1773 -0.5272  1.8412
 9281TIP3   OH249257   3.805   4.546  12.473  0.0354 -0.1896  0.0391
 9281TIP3    H149258   3.891   4.550  12.431  0.4104  0.5099  0.8295
 9281TIP3    H249259   3.758   4.479  12.425  2.2871 -3.3325  1.8295
 9282TIP3   OH249260   2.011   1.955  14.826 -0.7064 -0.3702 -0.5719
 9282TIP3    H149261   2.023   2.045  14.854 -0.4160 -0.6428  0.2083
 9282TIP3    H249262   1.993   1.907  14.907 -2.9807 -0.6852 -1.1852
 9283TIP3   OH249263   2.491   3.986  12.741  0.2029 -0.1278  0.2737
 9283TIP3    H149264   2.483   4.069  12.788 -0.6280  0.8941 -1.5736
 9283TIP3    H249265   2.416   3.934  12.771 -0.0443  0.3258  0.4526
 9284TIP3   OH249266   1.190   5.364   3.248 -0.5703 -0.6732  0.9035
 9284TIP3    H149267   1.266   5.422   3.247 -1.9333  1.1918  0.9834
 9284TIP3    H249268   1.219   5.288   3.299  1.1639  0.0901  1.1241
 9285TIP3   OH249269   1.462   2.848   1.628 -0.1920 -0.0322  0.0371
 9285TIP3    H149270   1.378   2.803   1.625 -0.5941  0.5774  1.3354
 9285TIP3    H249271   1.457   2.904   1.705  2.8644 -2.8456  2.5960
 9286TIP3   OH249272   4.544   0.046  10.695 -0.6471 -0.5728 -0.1857
 9286TIP3    H149273   4.589   0.044  10.611 -1.4072 -2.0430 -0.5880
 9286TIP3    H249274   4.461   0.090  10.676 -0.8892 -1.0524 -0.2513
 9287TIP3   OH249275   2.256   2.206   1.476 -0.1720  0.5456 -0.4722
 9287TIP3    H149276   2.304   2.124   1.477  1.2636  1.3547  0.6537
 9287TIP3    H249277   2.164   2.181   1.486  0.2164 -0.9113 -0.3929
 9288TIP3   OH249278   0.097   4.470  17.114  0.7407 -0.1809 -0.0466
 9288TIP3    H149279   0.094   4.565  17.106  1.2588 -0.2218 -0.7718
 9288TIP3    H249280   0.164   4.454  17.181  1.2750 -0.0667 -0.5537
 9289TIP3   OH249281   4.459   0.036  12.962  0.3926  0.6368 -0.1416
 9289TIP3    H149282   4.392   0.092  13.002 -1.2644 -0.6135 -1.0280
 9289TIP3    H249283   4.530   0.034  13.026  0.8672  4.2095 -0.3194
 9290TIP3   OH249284   1.830   4.436  12.059 -0.4312 -0.4898  0.5597
 9290TIP3    H149285   1.878   4.515  12.082 -0.7750 -0.0608 -0.1653
 9290TIP3    H249286   1.780   4.415  12.137 -1.1074  0.5875  0.4334
 9291TIP3   OH249287   2.545   5.580  14.547 -0.6936 -0.1936 -0.2026
 9291TIP3    H149288   2.532   5.496  14.591 -2.4238 -0.2011 -0.6677
 9291TIP3    H249289   2.550   5.644  14.619  1.0110 -0.6911  0.1724
 9292TIP3   OH249290   0.644   6.727  11.960 -0.1814  0.1074  0.1073
 9292TIP3    H149291   0.570   6.734  11.899 -0.3759  1.3320  0.4595
 9292TIP3    H249292   0.603   6.726  12.047  0.1962  0.3929  0.2899
 9293TIP3   OH249293   2.173   5.257   2.509 -0.3538  0.1029  0.0436
 9293TIP3    H149294   2.152   5.340   2.465  2.3248  1.1434  0.4746
 9293TIP3    H249295   2.209   5.202   2.439  0.1365  0.2561  0.1653
 9294TIP3   OH249296   3.337   0.343   2.106 -0.6094  0.1291  0.2528
 9294TIP3    H149297   3.294   0.262   2.137  0.4432 -0.0801  1.2361
 9294TIP3    H249298   3.282   0.413   2.141 -1.7182 -0.1393 -0.8834
 9295TIP3   OH249299   6.256   0.332   1.047 -0.2256  0.1711  0.1036
 9295TIP3    H149300   6.246   0.269   1.118  0.2763 -0.3336 -0.2621
 9295TIP3    H249301   6.242   0.417   1.088 -0.2053 -0.1343  0.7495
 9296TIP3   OH249302   1.778   1.265   1.661 -0.2871 -0.2157 -0.0378
 9296TIP3    H149303   1.836   1.190   1.651  0.9075  0.8610 -1.8420
 9296TIP3    H249304   1.694   1.234   1.626  0.0566 -0.8671 -0.3089
 9297TIP3   OH249305   2.061   3.653   5.187 -0.5874  0.1572  0.2827
 9297TIP3    H149306   1.968   3.661   5.165  0.0353  2.0892 -2.1175
 9297TIP3    H249307   2.103   3.635   5.103  1.1190 -2.3789  1.5517
 9298TIP3   OH249308   1.650   3.987  10.469  0.1005 -0.2627  0.5281
 9298TIP3    H149309   1.724   3.934  10.441  0.1587 -0.0021  0.1792
 9298TIP3    H249310   1.682   4.078  10.464 -0.8337  0.0139 -1.5681
 9299TIP3   OH249311   0.791   4.654   3.682 -0.0476  0.7398 -0.0826
 9299TIP3    H149312   0.783   4.580   3.743 -2.6011 -0.3401 -1.5733
 9299TIP3    H249313   0.711   4.704   3.695 -0.4408  0.7193 -2.2100
 9300TIP3   OH249314   1.154   3.108   5.946  0.0624  0.6957 -0.2046
 9300TIP3    H149315   1.066   3.076   5.928  0.7658 -0.4536 -1.9617
 9300TIP3    H249316   1.189   3.046   6.011 -0.3783  1.1183  0.4484
 9301TIP3   OH249317   0.562   5.038   0.763  0.2279 -0.3040  0.5256
 9301TIP3    H149318   0.644   5.088   0.771  1.2516 -1.6457 -0.8855
 9301TIP3    H249319   0.518   5.078   0.688  1.5321 -2.0237 -1.2692
 9302TIP3   OH249320   3.376   4.132  17.005  0.0048  0.6933 -0.2154
 9302TIP3    H149321   3.437   4.196  17.042 -0.0704  0.9978 -0.6141
 9302TIP3    H249322   3.427   4.085  16.939  0.9344 -1.6374  1.9734
 9303TIP3   OH249323   0.177   6.556   5.740  0.4429  0.3462  0.0385
 9303TIP3    H149324   0.150   6.486   5.799  1.9805  0.5786  1.0487
 9303TIP3    H249325   0.160   6.521   5.652 -0.6177 -0.5081  0.5558
 9304TIP3   OH249326   0.506   6.546   4.386 -0.4315  0.3408  0.1749
 9304TIP3    H149327   0.490   6.554   4.292  1.8663 -0.2512 -0.3264
 9304TIP3    H249328   0.586   6.597   4.401 -0.5675  0.1204  1.7423
 9305TIP3   OH249329   3.115   0.106  17.097  0.0701 -0.2257  0.1744
 9305TIP3    H149330   3.134   0.042  17.029  2.1914  0.1726  0.3305
 9305TIP3    H249331   3.141   0.064  17.178  0.0552  0.2852  0.4501
 9306TIP3   OH249332   1.291   4.708   4.242 -0.5601 -0.2956  0.1020
 9306TIP3    H149333   1.234   4.783   4.230 -0.8694 -0.4705  0.4698
 9306TIP3    H249334   1.231   4.634   4.257 -0.2759 -0.6786 -0.5830
 9307TIP3   OH249335   5.439   0.891   1.259 -0.2617 -0.1586  0.1916
 9307TIP3    H149336   5.454   0.887   1.164 -0.0116 -0.7454  0.2521
 9307TIP3    H249337   5.419   0.800   1.283 -0.6103  0.0404  0.6547
 9308TIP3   OH249338   3.446   0.252   2.930 -0.2002  0.5461 -0.3361
 9308TIP3    H149339   3.370   0.195   2.924  0.8669 -0.9670 -0.1797
 9308TIP3    H249340   3.480   0.237   3.019 -0.5600  2.3420  0.1429
 9309TIP3   OH249341   0.661   4.914  12.201  0.0706 -0.1055  0.3974
 9309TIP3    H149342   0.706   4.984  12.154 -0.6066  1.6557  2.2231
 9309TIP3    H249343   0.732   4.861  12.238  0.6169  0.4729  0.2058
 9310TIP3   OH249344   0.453   5.617   3.326 -0.1347  0.3155  0.4677
 9310TIP3    H149345   0.533   5.636   3.375 -0.6422  0.6141  1.1931
 9310TIP3    H249346   0.483   5.605   3.235  0.6865  0.7373  0.6708
 9311TIP3   OH249347   2.301   1.274  13.738 -0.2871  0.0242  0.1477
 9311TIP3    H149348   2.358   1.351  13.743 -0.5955  0.1987  1.2608
 9311TIP3    H249349   2.348   1.206  13.786 -0.1513 -0.3941 -0.5785
 9312TIP3   OH249350   5.100   2.992   1.364 -0.3062 -0.1250 -0.0534
 9312TIP3    H149351   5.147   2.915   1.332  0.3599  0.3088 -0.1463
 9312TIP3    H249352   5.165   3.040   1.415 -0.2899  1.1138 -1.1794
 9313TIP3   OH249353   4.548   1.165   1.893  0.6303 -0.4976  0.0739
 9313TIP3    H149354   4.482   1.137   1.957  0.1707 -1.7404 -0.9026
 9313TIP3    H249355   4.631   1.139   1.932  0.6995  1.9296  1.7518
 9314TIP3   OH249356   0.700   6.469   4.164  0.1984 -0.4103 -0.3399
 9314TIP3    H149357   0.609   6.473   4.134 -0.4025 -0.2832  1.3797
 9314TIP3    H249358   0.722   6.560   4.183  0.6187 -0.4643 -0.5782
 9315TIP3   OH249359   3.927   2.056  13.280 -0.4973  0.6825  0.7455
 9315TIP3    H149360   3.863   2.113  13.238 -0.0201  0.0743 -0.8408
 9315TIP3    H249361   3.979   2.020  13.209  1.5312  1.0255  1.9521
 9316TIP3   OH249362   1.574   4.411   0.408  0.4330 -0.0812  0.5077
 9316TIP3    H149363   1.617   4.326   0.399  3.1628  1.3902 -2.0326
 9316TIP3    H249364   1.547   4.434   0.319  1.4070  2.4345  0.7839
 9317TIP3   OH249365   5.507   1.430  15.741  0.1780 -0.2920  0.1913
 9317TIP3    H149366   5.484   1.358  15.800  0.7390  0.5428  1.4574
 9317TIP3    H249367   5.602   1.434  15.744  0.4051 -1.4259 -2.2727
 9318TIP3   OH249368   3.499   1.353  13.331 -0.6176  0.9002  0.1796
 9318TIP3    H149369   3.462   1.267  13.310 -0.5013  0.8896  0.0177
 9318TIP3    H249370   3.446   1.385  13.404  0.9444 -0.4644  2.0520
 9319TIP3   OH249371   1.408   0.007  11.829  0.3944 -0.3667 -0.1683
 9319TIP3    H149372   1.383   0.026  11.738  2.5088  0.6010 -0.5858
 9319TIP3    H249373   1.336  -0.048  11.861 -2.1429  2.0100 -1.3256
 9320TIP3   OH249374   5.986   1.022   5.508 -0.1264  0.3715  0.0049
 9320TIP3    H149375   6.067   1.004   5.556 -1.1244 -0.0981  1.5739
 9320TIP3    H249376   5.925   0.954   5.537 -0.8460  0.1597 -1.8366
 9321TIP3   OH249377   3.577   0.092   2.030 -0.3939 -0.2200  0.3879
 9321TIP3    H149378   3.593   0.094   1.935 -0.2416 -0.7044  0.3989
 9321TIP3    H249379   3.522   0.168   2.047 -0.4144 -0.1249 -0.0891
 9322TIP3   OH249380   1.961   4.318  13.684  0.0662  0.9390 -0.0526
 9322TIP3    H149381   2.025   4.313  13.613  0.7783  0.3189  0.6111
 9322TIP3    H249382   1.958   4.229  13.720 -0.0841  1.2959  0.8564
 9323TIP3   OH249383   4.822   6.310   5.421  0.2932 -0.0879 -0.6985
 9323TIP3    H149384   4.907   6.290   5.461 -0.9941 -1.5707  1.5316
 9323TIP3    H249385   4.797   6.394   5.461 -0.0873 -0.5713  0.1083
 9324TIP3   OH249386   0.346   3.623  11.875  0.3380  0.1123 -0.4282
 9324TIP3    H149387   0.284   3.567  11.827 -0.3687 -0.6548  1.2979
 9324TIP3    H249388   0.413   3.562  11.906 -0.0806  0.3080  0.9061
 9325TIP3   OH249389   4.000   3.940   1.829  0.3368  0.5501  0.1958
 9325TIP3    H149390   4.092   3.958   1.806  0.8158 -1.2762  0.5055
 9325TIP3    H249391   3.950   3.999   1.774  1.6964  1.5548 -0.0309
 9326TIP3   OH249392   0.334   5.331   0.857  0.2046  0.8695  0.1514
 9326TIP3    H149393   0.406   5.338   0.920  0.7779  0.5496 -0.4617
 9326TIP3    H249394   0.259   5.302   0.910  0.8599 -0.1115  0.5632
 9327TIP3   OH249395   3.630   5.057  13.127 -0.2666 -0.4769 -0.4885
 9327TIP3    H149396   3.579   4.975  13.127 -1.5792  0.2548  1.8128
 9327TIP3    H249397   3.587   5.112  13.061 -0.2385 -1.1224 -1.0572
 9328TIP3   OH249398   4.788   4.528  16.643 -0.0066  1.2136  0.6587
 9328TIP3    H149399   4.858   4.551  16.705 -0.9551  0.9838  1.8600
 9328TIP3    H249400   4.828   4.467  16.582  0.7979  0.9296  1.4496
 9329TIP3   OH249401   3.377   0.479   3.155 -0.5874  0.1139 -0.9397
 9329TIP3    H149402   3.459   0.530   3.158 -0.8132  0.5700 -1.9943
 9329TIP3    H249403   3.389   0.411   3.222  0.8258 -0.0884 -1.3524
 9330TIP3   OH249404   3.080   0.262  12.941  0.1628 -0.4424  0.2189
 9330TIP3    H149405   3.003   0.280  12.995 -0.5256 -0.3628 -0.7529
 9330TIP3    H249406   3.142   0.331  12.965 -0.0418 -0.5281  1.0408
 9331TIP3   OH249407   5.157   0.958   4.163  0.1978 -0.1247 -0.3079
 9331TIP3    H149408   5.072   0.916   4.177  0.2381  0.5686  2.6648
 9331TIP3    H249409   5.206   0.940   4.243  2.2290  0.9701 -1.2250
 9332TIP3   OH249410   5.441   1.369  10.801 -0.1321 -0.0175 -0.2774
 9332TIP3    H149411   5.359   1.397  10.762  0.0184  0.8891  0.0385
 9332TIP3    H249412   5.417   1.297  10.859 -1.0584  1.5570  1.4030
 9333TIP3   OH249413   6.328   0.662  12.745 -0.0867 -0.1737 -0.4573
 9333TIP3    H149414   6.239   0.643  12.718  0.0270  0.7009 -1.5152
 9333TIP3    H249415   6.325   0.753  12.775  0.5521  0.0585 -1.0539
 9334TIP3   OH249416   0.380   5.121   6.879  0.3853 -0.0777  0.4766
 9334TIP3    H149417   0.374   5.152   6.789  3.3671  1.9196  0.8451
 9334TIP3    H249418   0.346   5.193   6.932 -0.0407 -0.6801  1.0416
 9335TIP3   OH249419   0.441   2.501  11.434  0.1389  0.1599  0.0488
 9335TIP3    H149420   0.434   2.591  11.468 -0.3405  0.2083 -0.1662
 9335TIP3    H249421   0.535   2.487  11.422  0.1673  1.0915 -1.1075
 9336TIP3   OH249422   6.238   4.802   6.066  0.1032 -0.4024 -0.0594
 9336TIP3    H149423   6.282   4.882   6.039  0.1765 -0.2579  0.4647
 9336TIP3    H249424   6.282   4.732   6.018  2.2905 -0.4882  1.9118
 9337TIP3   OH249425   6.173   1.868  15.933  0.6327 -0.1884  0.2066
 9337TIP3    H149426   6.266   1.848  15.943  1.1771  0.9464 -2.0127
 9337TIP3    H249427   6.156   1.857  15.840 -1.3669  0.0724  0.4999
 9338TIP3   OH249428   0.399   0.802  16.017  0.0981  0.2514 -0.3939
 9338TIP3    H149429   0.348   0.760  16.086 -0.3146  1.8838  0.3330
 9338TIP3    H249430   0.454   0.732  15.982 -1.7996 -1.3024 -0.4431
 9339TIP3   OH249431   1.130   1.987  12.551 -0.1851 -0.6711 -0.0689
 9339TIP3    H149432   1.107   2.073  12.516 -0.1160 -0.3892  0.5634
 9339TIP3    H249433   1.186   2.005  12.626  0.1470 -1.2831 -0.1588
 9340TIP3   OH249434   5.072   0.566  16.133 -0.1440  0.2210  0.2951
 9340TIP3    H149435   5.156   0.584  16.090 -1.2203 -0.4918 -2.3057
 9340TIP3    H249436   5.014   0.636  16.103 -0.9828 -0.3679  0.5099
 9341TIP3   OH249437   2.242   5.995  15.332 -0.2075 -0.1393 -0.2470
 9341TIP3    H149438   2.183   5.920  15.325  1.6892 -1.6186 -1.2127
 9341TIP3    H249439   2.308   5.980  15.264  2.8559 -0.0581  2.4800
 9342TIP3   OH249440   6.142   1.043  12.253  0.3769 -0.0055 -0.1439
 9342TIP3    H149441   6.124   1.112  12.316  0.6733  0.3481 -0.4448
 9342TIP3    H249442   6.211   0.990  12.295  0.2860 -0.0094  0.0018
 9343TIP3   OH249443   0.081   3.241   2.970  0.2293  0.0848  0.6707
 9343TIP3    H149444   0.082   3.332   2.941  0.7825 -0.8153 -2.4838
 9343TIP3    H249445   0.074   3.247   3.065 -0.3415  3.3846  0.5564
 9344TIP3   OH249446   1.339   2.455  15.033 -0.0105  0.1199 -0.5622
 9344TIP3    H149447   1.257   2.478  14.989 -1.3621  0.9739  2.2169
 9344TIP3    H249448   1.361   2.369  14.998 -2.0983 -0.1575 -1.3698
 9345TIP3   OH249449   3.150   6.213   1.880 -0.3369  0.3336 -0.2275
 9345TIP3    H149450   3.153   6.306   1.905 -0.6348  0.7888 -1.7735
 9345TIP3    H249451   3.165   6.166   1.961 -0.2175  1.7433  0.6002
 9346TIP3   OH249452   5.503   6.749  11.811 -1.0814  0.0318  0.8448
 9346TIP3    H149453   5.434   6.790  11.759 -1.9155 -1.1823  0.9462
 9346TIP3    H249454   5.481   6.771  11.901 -0.1799  1.3230  0.7748
 9347TIP3   OH249455   5.721   5.809  15.960  0.1747 -0.6091  0.4811
 9347TIP3    H149456   5.750   5.816  15.868 -0.5040  0.4248  0.3224
 9347TIP3    H249457   5.626   5.799  15.954 -0.2344  2.1404  1.0804
 9348TIP3   OH249458   2.419   2.650   5.695 -0.1032  0.0162  0.1744
 9348TIP3    H149459   2.436   2.618   5.784  0.4820 -0.2824 -0.0381
 9348TIP3    H249460   2.506   2.675   5.662 -0.0607 -1.5263 -0.9557
 9349TIP3   OH249461   4.795   6.689   2.326  0.4177 -0.3216  0.1169
 9349TIP3    H149462   4.844   6.760   2.285 -1.3581  1.9151  1.5971
 9349TIP3    H249463   4.746   6.649   2.253  0.9146  0.4289 -0.6478
 9350TIP3   OH249464   1.679   4.775  16.691  0.3010 -0.1888  0.0724
 9350TIP3    H149465   1.671   4.789  16.597 -0.1358  1.5301  0.3236
 9350TIP3    H249466   1.636   4.851  16.730 -1.5371 -1.9353  1.6993
 9351TIP3   OH249467   1.010   3.485  10.818 -0.3183  0.1780  0.3005
 9351TIP3    H149468   1.082   3.531  10.862  0.2170 -0.5058  0.1472
 9351TIP3    H249469   0.936   3.492  10.879 -0.1777  1.0090  0.3951
 9352TIP3   OH249470   3.969   4.402  16.616 -0.6629  0.2434 -0.3048
 9352TIP3    H149471   4.015   4.363  16.690 -0.3239  1.0028 -0.1074
 9352TIP3    H249472   4.038   4.426  16.554 -0.9788 -0.8543 -1.1081
 9353TIP3   OH249473   1.874   1.301  14.609 -0.4457 -0.0846  0.2259
 9353TIP3    H149474   1.800   1.293  14.550  0.1429  2.7271 -1.0671
 9353TIP3    H249475   1.934   1.232  14.582 -1.6199 -0.9858 -0.1700
 9354TIP3   OH249476   0.416   0.241   4.355 -0.2877 -0.1415  0.4354
 9354TIP3    H149477   0.350   0.307   4.333 -0.3768 -0.6344 -0.8291
 9354TIP3    H249478   0.392   0.164   4.303  0.8647 -0.5660  0.5040
 9355TIP3   OH249479   1.872   0.027  13.291 -0.1317 -0.8054 -0.3021
 9355TIP3    H149480   1.917  -0.013  13.366 -0.4521  0.6344  0.7142
 9355TIP3    H249481   1.779   0.020  13.312 -0.2205 -0.3605 -0.5380
 9356TIP3   OH249482   5.014   3.882  13.374  0.1248  0.3808  0.0368
 9356TIP3    H149483   5.042   3.893  13.464 -3.7248  0.7646  1.3492
 9356TIP3    H249484   4.941   3.820  13.379  1.5014 -1.7749 -3.2258
 9357TIP3   OH249485   1.464   3.540  15.763 -0.3375 -0.2173 -0.0797
 9357TIP3    H149486   1.403   3.466  15.766 -1.1370  0.4321  0.2711
 9357TIP3    H249487   1.475   3.558  15.670 -2.3699  0.9572 -0.1686
 9358TIP3   OH249488   2.553   1.213  12.911  0.4909 -0.7180  0.6071
 9358TIP3    H149489   2.482   1.254  12.861 -0.2847 -0.9747  1.4683
 9358TIP3    H249490   2.554   1.122  12.882  0.7327 -0.6155  0.3000
 9359TIP3   OH249491   4.461   6.537  13.163 -0.4066 -0.1468 -0.1769
 9359TIP3    H149492   4.525   6.505  13.226  1.4772  0.6225 -1.6208
 9359TIP3    H249493   4.377   6.503  13.195  0.6186 -0.7458  2.0600
 9360TIP3   OH249494   5.720   3.438  13.282 -0.0170  0.0844  0.0808
 9360TIP3    H149495   5.659   3.366  13.264  1.0919 -1.1240  0.9449
 9360TIP3    H249496   5.671   3.498  13.337 -0.6772 -0.4749  0.1116
 9361TIP3   OH249497   1.737   3.255   4.707 -0.4003 -0.0050 -0.7120
 9361TIP3    H149498   1.786   3.194   4.761 -0.2383  1.4028  0.8149
 9361TIP3    H249499   1.797   3.276   4.635  1.3094  1.5849  1.0497
 9362TIP3   OH249500   3.658   0.650  16.542  0.1532  0.0872 -0.2336
 9362TIP3    H149501   3.568   0.671  16.517 -1.6916 -2.1316  3.6373
 9362TIP3    H249502   3.700   0.734  16.557 -1.0971  1.1846 -2.4304
 9363TIP3   OH249503   5.593   2.062  16.127 -0.1215  0.9565 -0.3019
 9363TIP3    H149504   5.656   2.011  16.178 -1.9770 -0.6447  0.5024
 9363TIP3    H249505   5.629   2.063  16.039  1.0337  0.1295  0.1287
 9364TIP3   OH249506   0.092   5.683   0.004 -0.2166 -0.1113  0.1711
 9364TIP3    H149507   0.128   5.595   0.017  0.5042  0.1494 -0.0002
 9364TIP3    H249508   0.155   5.741   0.047 -0.1144  0.4044 -0.6490
 9365TIP3   OH249509   0.408   0.145  11.045  0.3837 -0.0743 -0.5678
 9365TIP3    H149510   0.409   0.072  11.107 -0.0064  0.6845  0.3565
 9365TIP3    H249511   0.501   0.159  11.023  0.8125  1.3163  1.8800
 9366TIP3   OH249512   2.384   2.530   6.235 -0.0784  0.5525 -0.2513
 9366TIP3    H149513   2.472   2.549   6.202 -0.9198  2.2355 -1.6698
 9366TIP3    H249514   2.399   2.487   6.319  2.1029  0.1023 -0.8048
 9367TIP3   OH249515   5.340   4.401  14.013  0.2204 -0.6305  0.0009
 9367TIP3    H149516   5.363   4.478  14.065  0.9703 -0.2529 -0.8487
 9367TIP3    H249517   5.366   4.327  14.067  1.6637 -0.2322 -0.1039
 9368TIP3   OH249518   5.030   1.062  12.087  0.6377 -0.4292 -0.1317
 9368TIP3    H149519   4.941   1.093  12.104  0.5901 -0.0264 -1.0339
 9368TIP3    H249520   5.021   0.999  12.016  0.6684 -3.0515  2.0615
 9369TIP3   OH249521   2.259   2.463  12.649  0.2046  0.3891  0.3796
 9369TIP3    H149522   2.311   2.383  12.652  0.0024  0.2675  0.6667
 9369TIP3    H249523   2.305   2.524  12.706  0.2163  0.3937  0.3653
 9370TIP3   OH249524   4.064   0.525  11.847  0.3059 -0.0317 -0.0725
 9370TIP3    H149525   4.071   0.449  11.790 -1.6155 -0.6150  0.3918
 9370TIP3    H249526   4.085   0.492  11.934 -0.8426 -0.1419  0.1811
 9371TIP3   OH249527   1.913   5.983   1.011 -0.1866 -0.1876 -0.0284
 9371TIP3    H149528   1.922   5.975   0.916 -0.8863  2.0596 -0.3313
 9371TIP3    H249529   1.987   6.037   1.037 -1.3807  1.3265  0.3216
 9372TIP3   OH249530   4.209   3.425   4.299  0.2676 -0.8666  0.7045
 9372TIP3    H149531   4.141   3.488   4.325  0.0746 -1.1829  0.9752
 9372TIP3    H249532   4.178   3.390   4.215 -0.1837 -1.4046  1.0836
 9373TIP3   OH249533   6.651   4.376   4.164 -0.5506  0.3838  0.1493
 9373TIP3    H149534   6.590   4.407   4.231  1.7692  1.7453  1.7487
 9373TIP3    H249535   6.650   4.444   4.097 -2.3037 -0.6245 -0.9379
 9374TIP3   OH249536   1.089   4.422  16.108  0.0026 -0.4463 -0.3257
 9374TIP3    H149537   1.051   4.383  16.187 -0.6147  0.5340 -0.1273
 9374TIP3    H249538   1.171   4.375  16.096 -0.4650 -1.4459  0.2053
 9375TIP3   OH249539   5.524   3.721  11.808  0.0602  0.1325 -0.1908
 9375TIP3    H149540   5.530   3.777  11.730  1.5215 -1.7571 -1.5367
 9375TIP3    H249541   5.615   3.702  11.831 -0.2986  1.2280  2.5017
 9376TIP3   OH249542   6.343   3.881   4.936 -0.3712 -0.5880 -0.5267
 9376TIP3    H149543   6.274   3.913   4.879 -0.8233 -2.6408 -1.2147
 9376TIP3    H249544   6.302   3.811   4.987  0.7972 -0.7899  0.1862
 9377TIP3   OH249545   1.604   4.925   2.410  0.0057  0.1675 -0.1515
 9377TIP3    H149546   1.687   4.972   2.420  0.0479  0.4022 -1.4665
 9377TIP3    H249547   1.630   4.833   2.405  0.1147  0.1770  0.1875
 9378TIP3   OH249548   0.574   6.642  13.774  0.4060  0.3290 -0.5716
 9378TIP3    H149549   0.480   6.650  13.792  0.1653  0.7592 -1.9259
 9378TIP3    H249550   0.581   6.654  13.679  2.0361  2.1635 -0.2717
 9379TIP3   OH249551   1.466   5.079   2.593  0.2109  0.1952 -0.3489
 9379TIP3    H149552   1.444   5.168   2.565 -1.3265 -0.3352 -0.9577
 9379TIP3    H249553   1.499   5.037   2.513  1.7466  0.4494  0.1361
 9380TIP3   OH249554   4.726   5.159  12.906  0.5835 -0.2886 -0.6342
 9380TIP3    H149555   4.736   5.204  12.822  0.2117  0.0489 -0.5021
 9380TIP3    H249556   4.759   5.071  12.890 -0.1352 -0.4431 -1.3259
 9381TIP3   OH249557   3.899   6.518  15.749  0.5180 -0.1977  0.1665
 9381TIP3    H149558   3.995   6.529  15.752  0.3362  1.7603  1.8997
 9381TIP3    H249559   3.874   6.506  15.841 -0.9089 -0.8329 -0.2789
 9382TIP3   OH249560   4.991   5.584  11.639 -0.8395  0.7229  0.7811
 9382TIP3    H149561   4.948   5.619  11.561  0.5299  0.9301  0.0750
 9382TIP3    H249562   5.050   5.655  11.667  1.9743 -0.8520 -0.6576
 9383TIP3   OH249563   5.515   1.422   1.388 -0.4808 -0.2956 -0.2273
 9383TIP3    H149564   5.502   1.381   1.303  1.1775  0.3732 -0.8367
 9383TIP3    H249565   5.492   1.353   1.451  0.8103 -1.7012 -1.2171
 9384TIP3   OH249566   4.560   1.282   1.474 -0.4753  0.4239  0.5547
 9384TIP3    H149567   4.585   1.264   1.383 -2.5890 -0.1785  0.0426
 9384TIP3    H249568   4.629   1.340   1.506  1.4595 -0.9942 -0.7648
 9385TIP3   OH249569   2.991   1.916  11.758 -0.4034  0.0139 -0.0928
 9385TIP3    H149570   2.984   2.007  11.729 -0.1799 -0.3891 -1.4754
 9385TIP3    H249571   3.053   1.919  11.830  0.8692  0.7527 -1.1769
 9386TIP3   OH249572   3.476   1.400   0.110 -0.0920 -0.3520  0.3299
 9386TIP3    H149573   3.514   1.312   0.105  0.1487 -0.2748  0.7138
 9386TIP3    H249574   3.463   1.415   0.204 -0.0210  0.0692  0.2746
 9387TIP3   OH249575   2.220   1.409  15.583 -0.4082  0.4830 -0.0127
 9387TIP3    H149576   2.125   1.406  15.598 -0.4853 -1.4814 -0.6162
 9387TIP3    H249577   2.230   1.387  15.490  0.6472  0.6838  0.0396
 9388TIP3   OH249578   3.991   1.286  15.461  0.4281 -0.5264 -0.1891
 9388TIP3    H149579   4.038   1.365  15.488 -1.2099  0.2083  0.7382
 9388TIP3    H249580   3.899   1.308  15.476 -0.1328 -2.3078 -0.7846
 9389TIP3   OH249581   4.539   5.267   1.341 -0.2501 -0.0594  0.1899
 9389TIP3    H149582   4.448   5.262   1.371 -0.1370  1.4890  0.8890
 9389TIP3    H249583   4.546   5.200   1.273 -1.9727 -0.0616 -0.0206
 9390TIP3   OH249584   2.282   2.069   2.080  0.1010  0.1261 -0.4640
 9390TIP3    H149585   2.281   2.008   2.007  1.1324  1.7180 -1.8908
 9390TIP3    H249586   2.372   2.065   2.113  0.0207  0.4312 -0.2041
 9391TIP3   OH249587   0.488   5.317  16.860 -0.0667 -0.1764 -1.0136
 9391TIP3    H149588   0.433   5.286  16.931  0.3854 -0.1251 -0.6419
 9391TIP3    H249589   0.524   5.238  16.820  0.9036 -0.1497 -0.2099
 9392TIP3   OH249590   1.097   2.919   5.024 -0.5351 -0.3089  0.5274
 9392TIP3    H149591   1.011   2.936   4.986 -0.7367  1.2942  1.5987
 9392TIP3    H249592   1.078   2.880   5.110 -0.1574 -1.1200  0.2471
 9393TIP3   OH249593   2.303   5.390  14.101  0.4280 -0.0027 -0.3025
 9393TIP3    H149594   2.243   5.465  14.099  0.1796 -0.2006 -0.3393
 9393TIP3    H249595   2.390   5.429  14.110  0.3649  0.3209 -1.0501
 9394TIP3   OH249596   2.656   2.393  11.673  0.1094 -0.2113  0.1160
 9394TIP3    H149597   2.660   2.485  11.699 -0.0319  0.5103 -2.1850
 9394TIP3    H249598   2.647   2.345  11.755  0.1272  1.8229  1.3710
 9395TIP3   OH249599   6.686   4.775  12.161  0.0976 -0.6611 -0.3794
 9395TIP3    H149600   6.660   4.696  12.208  1.5711 -1.2009 -0.4338
 9395TIP3    H249601   6.729   4.744  12.082 -1.3049  0.2391 -1.5537
 9396TIP3   OH249602   2.007   4.251  11.970 -0.0401  0.0343  0.2929
 9396TIP3    H149603   2.091   4.295  11.986 -0.5011  1.4066 -0.8703
 9396TIP3    H249604   1.941   4.314  11.997 -0.7289  0.1072 -1.4249
 9397TIP3   OH249605   2.074   3.399   3.257 -0.1151 -0.2590 -0.3340
 9397TIP3    H149606   2.123   3.350   3.190  0.5920  1.0357 -0.7935
 9397TIP3    H249607   2.089   3.350   3.338  1.9593  0.0637 -0.4603
 9398TIP3   OH249608   2.385   4.358   4.370  0.4248  0.1508 -0.1830
 9398TIP3    H149609   2.324   4.292   4.339  0.5783 -0.2403  0.3317
 9398TIP3    H249610   2.442   4.312   4.431 -1.0088  1.2557  2.1118
 9399TIP3   OH249611   2.618   0.968  16.681 -0.1739 -0.2720 -0.2032
 9399TIP3    H149612   2.699   0.961  16.733 -0.6208 -0.3649  0.4997
 9399TIP3    H249613   2.570   0.888  16.703 -0.2905 -0.4016 -0.9159
 9400TIP3   OH249614   5.557   0.308  15.031 -0.6394 -0.3564  0.1799
 9400TIP3    H149615   5.535   0.222  15.066 -1.3658  0.3604  1.5908
 9400TIP3    H249616   5.473   0.355  15.031  0.1488  1.1728  1.9110
 9401TIP3   OH249617   2.632   5.090   4.227  0.5620  0.2247 -1.0691
 9401TIP3    H149618   2.541   5.099   4.201  0.4817 -2.8906 -2.3604
 9401TIP3    H249619   2.682   5.122   4.151  0.5295  0.7951 -0.8521
 9402TIP3   OH249620   5.071   4.509  16.005  0.1825 -0.6883 -0.0831
 9402TIP3    H149621   5.025   4.560  15.938 -0.1443  0.4485  0.9608
 9402TIP3    H249622   5.145   4.564  16.030  0.4298 -1.2029  0.3265
 9403TIP3   OH249623   6.084   4.177  12.804 -0.0002  0.3030 -0.2035
 9403TIP3    H149624   6.087   4.083  12.786  1.1160  0.3056 -0.1112
 9403TIP3    H249625   6.014   4.187  12.869 -0.1250 -0.4635 -0.2114
 9404TIP3   OH249626   4.200   3.070  10.534  0.2353  0.2675  0.0128
 9404TIP3    H149627   4.132   3.072  10.467 -0.9149 -0.6149  1.1121
 9404TIP3    H249628   4.180   2.992  10.585  3.2694 -1.2180 -0.8314
 9405TIP3   OH249629   4.215   0.241   6.380  0.5663 -0.0354 -0.2074
 9405TIP3    H149630   4.165   0.262   6.301 -0.8781  0.8632  0.9070
 9405TIP3    H249631   4.304   0.269   6.360  0.1106  0.6714 -1.3204
 9406TIP3   OH249632   0.427   0.125   4.877  0.1743  0.0032  0.4812
 9406TIP3    H149633   0.408   0.124   4.783  1.7880  0.2113  0.1158
 9406TIP3    H249634   0.498   0.062   4.888 -1.0950 -1.2703  1.8584
 9407TIP3   OH249635   3.813   6.108   1.515 -0.7879  0.3633  0.1293
 9407TIP3    H149636   3.878   6.115   1.446 -0.2482 -1.0655  0.4585
 9407TIP3    H249637   3.840   6.032   1.566 -3.1881 -0.8079 -0.2136
 9408TIP3   OH249638   5.914   1.172  15.502  0.2009  0.4948  0.4659
 9408TIP3    H149639   5.824   1.149  15.523  0.1433  0.0563 -0.2241
 9408TIP3    H249640   5.911   1.196  15.410  1.0659 -1.1315 -0.0273
 9409TIP3   OH249641   2.431   0.233   1.934  0.3879  0.6961 -0.6509
 9409TIP3    H149642   2.509   0.190   1.900  0.7249  0.4454  0.3994
 9409TIP3    H249643   2.445   0.326   1.918  1.2159  0.7147  0.1324
 9410TIP3   OH249644   5.793   5.106  14.987 -1.0445  0.2241  0.0490
 9410TIP3    H149645   5.757   5.039  14.928 -1.3600  0.7431 -0.3524
 9410TIP3    H249646   5.849   5.160  14.931 -2.1143  1.3152 -0.0123
 9411TIP3   OH249647   1.849   4.622  15.078 -0.0799  0.7533  0.1175
 9411TIP3    H149648   1.764   4.620  15.124 -0.0225 -0.4439  0.1982
 9411TIP3    H249649   1.829   4.594  14.989  0.1184  1.1955 -0.0676
 9412TIP3   OH249650   6.116   4.110   4.033 -0.8372 -0.4234 -0.0625
 9412TIP3    H149651   6.066   4.142   4.107 -1.2385 -1.5828  0.1847
 9412TIP3    H249652   6.055   4.114   3.959 -1.1984 -1.4435  0.1560
 9413TIP3   OH249653   3.727   3.660   1.619 -0.3714 -0.3166  0.0511
 9413TIP3    H149654   3.731   3.613   1.702  2.4271  2.2093  1.5422
 9413TIP3    H249655   3.766   3.601   1.555 -1.4298 -1.8159  0.7310
 9414TIP3   OH249656   1.472   0.515  12.289 -0.2945 -0.6541  0.4223
 9414TIP3    H149657   1.425   0.562  12.220 -3.1341 -0.1752  2.4555
 9414TIP3    H249658   1.431   0.429  12.290  1.7569 -1.6831 -0.3280
 9415TIP3   OH249659   4.553   4.569   3.401  0.1799  0.7635 -0.7817
 9415TIP3    H149660   4.561   4.474   3.387 -0.9980  0.2369  1.6293
 9415TIP3    H249661   4.542   4.605   3.313  0.1738 -1.3756 -1.7308
 9416TIP3   OH249662   6.499   0.045  15.741 -0.2779 -0.4018  0.1712
 9416TIP3    H149663   6.493  -0.036  15.792 -1.4735 -1.0255 -0.9186
 9416TIP3    H249664   6.581   0.037  15.693 -1.8093 -2.5099 -2.3609
 9417TIP3   OH249665   5.851   5.771  16.379  0.2882 -0.6102  0.0705
 9417TIP3    H149666   5.872   5.864  16.373 -1.9597 -0.0340  0.0004
 9417TIP3    H249667   5.931   5.729  16.409  1.0971  1.4709  0.9646
 9418TIP3   OH249668   6.403   3.173   1.078 -0.1497  0.2822  0.0542
 9418TIP3    H149669   6.341   3.152   1.008 -0.3045  0.0304  0.2671
 9418TIP3    H249670   6.350   3.217   1.145  0.2586  1.8910 -0.6215
 9419TIP3   OH249671   6.169   3.981   4.606  0.1856  0.0484  0.3993
 9419TIP3    H149672   6.146   3.890   4.586  1.3119 -0.2509  0.4228
 9419TIP3    H249673   6.091   4.016   4.650 -1.0067 -0.3051 -1.3297
 9420TIP3   OH249674   0.345   5.970  14.050  0.1721 -0.4561  0.2009
 9420TIP3    H149675   0.275   6.028  14.021 -0.3782 -0.5678  1.2509
 9420TIP3    H249676   0.414   6.028  14.081 -0.4698 -0.3247  1.4663
 9421TIP3   OH249677   0.062   3.870   3.853 -0.4089  0.6872 -0.0842
 9421TIP3    H149678   0.123   3.943   3.856 -0.2309  0.5075  1.8030
 9421TIP3    H249679   0.001   3.886   3.924  0.0709 -1.3396  0.8675
 9422TIP3   OH249680   5.145   0.142  16.488 -0.2357 -0.6347  0.0113
 9422TIP3    H149681   5.119   0.181  16.572  1.1757 -1.0981  0.6943
 9422TIP3    H249682   5.063   0.130  16.441 -1.1520 -1.0720  1.6390
 9423TIP3   OH249683   2.039   4.931  14.243  0.7306 -0.4860  0.5829
 9423TIP3    H149684   2.106   4.944  14.310  1.0483  0.2702  0.1421
 9423TIP3    H249685   2.087   4.893  14.169  0.4726 -0.8931  0.6240
 9424TIP3   OH249686   6.474   6.127  12.553 -0.2420 -0.4683 -0.4828
 9424TIP3    H149687   6.407   6.094  12.493 -1.5934 -0.2369  0.8427
 9424TIP3    H249688   6.438   6.112  12.640  1.6296 -0.7238  0.3079
 9425TIP3   OH249689   6.108   3.710  14.653  0.9891  0.4290 -0.2455
 9425TIP3    H149690   6.042   3.643  14.671  1.0592  0.5752  0.6136
 9425TIP3    H249691   6.085   3.783  14.711  2.1092  0.3392  0.3432
 9426TIP3   OH249692   0.351   2.870   5.505  0.0986 -0.3428 -0.1612
 9426TIP3    H149693   0.413   2.927   5.551  0.0118  0.3271 -0.8554
 9426TIP3    H249694   0.358   2.786   5.550  0.6611  0.0494  0.5078
 9427TIP3   OH249695   4.092   1.372  12.678 -0.0210  0.7675  0.3527
 9427TIP3    H149696   4.117   1.308  12.611  1.7143  0.4034  1.2988
 9427TIP3    H249697   4.083   1.454  12.630 -1.0644  0.0910 -0.6741
 9428TIP3   OH249698   3.027   5.346   0.792  0.5022  0.0665  0.3705
 9428TIP3    H149699   2.957   5.385   0.740  1.4063 -1.6181 -2.3393
 9428TIP3    H249700   3.090   5.417   0.806 -1.2394  1.3644  2.0867
 9429TIP3   OH249701   0.619   6.022   4.188  0.6172 -0.1561 -0.5519
 9429TIP3    H149702   0.573   6.095   4.146  1.1547  0.3874 -0.2232
 9429TIP3    H249703   0.630   6.051   4.279 -1.5854 -1.8037  0.3328
 9430TIP3   OH249704   1.675   6.412  11.664  0.1569  0.0119 -0.4097
 9430TIP3    H149705   1.695   6.422  11.571 -0.4012 -0.1938 -0.5569
 9430TIP3    H249706   1.728   6.478  11.707  0.2812  0.2320 -0.8914
 9431TIP3   OH249707   0.324   5.703  12.415  0.1058  0.5962 -0.9346
 9431TIP3    H149708   0.349   5.612  12.403  1.0572  0.9380 -1.6577
 9431TIP3    H249709   0.234   5.699  12.447  0.1966 -0.5944 -0.7843
 9432TIP3   OH249710   4.005   5.083   0.237 -0.4128  0.1899  0.3976
 9432TIP3    H149711   4.077   5.045   0.188 -1.8555  0.2549 -1.8889
 9432TIP3    H249712   3.966   5.147   0.178 -2.0305  0.5558  1.7672
 9433TIP3   OH249713   1.706   3.894  16.153  0.1800 -0.3275 -0.3242
 9433TIP3    H149714   1.683   3.810  16.113 -1.3778  0.0668 -0.3111
 9433TIP3    H249715   1.777   3.928  16.097  1.4903 -2.0198  0.1933
 9434TIP3   OH249716   6.347   5.059   6.000 -0.1725 -0.1668  0.4746
 9434TIP3    H149717   6.374   5.113   5.926  0.4214 -1.6671 -0.4341
 9434TIP3    H249718   6.263   5.096   6.027  0.3809  1.4250  0.1277
 9435TIP3   OH249719   6.641   5.252   4.696  0.7402 -0.1809  0.9095
 9435TIP3    H149720   6.653   5.231   4.788  0.2997  0.4261  1.1106
 9435TIP3    H249721   6.711   5.205   4.651  1.0755 -0.3189  1.5715
 9436TIP3   OH249722   4.134   5.435   1.333  0.3006 -0.1243  0.2302
 9436TIP3    H149723   4.189   5.446   1.256  0.4561  0.4627  0.4128
 9436TIP3    H249724   4.126   5.341   1.345  1.5445 -0.2286  0.3925
 9437TIP3   OH249725   1.474   2.001   1.648 -0.1810 -0.9364  0.1291
 9437TIP3    H149726   1.452   2.094   1.649  0.7370 -0.7076  0.2739
 9437TIP3    H249727   1.401   1.959   1.694 -0.5848 -0.2875  0.1027
 9438TIP3   OH249728   2.884   1.677  13.796 -0.6121 -0.0467  0.0919
 9438TIP3    H149729   2.876   1.587  13.764 -1.4386  0.1613 -0.3292
 9438TIP3    H249730   2.974   1.684  13.826  0.5700  0.0416 -3.1050
 9439TIP3   OH249731   3.302   2.174   0.153 -0.5152  0.0957  0.7534
 9439TIP3    H149732   3.263   2.113   0.091 -2.1800  0.4322  1.4242
 9439TIP3    H249733   3.259   2.258   0.134  0.1839  0.5842  1.2635
 9440TIP3   OH249734   3.053   5.962   1.741  0.5842  0.3273 -0.3609
 9440TIP3    H149735   3.082   6.047   1.774 -0.5482  0.2361  0.9738
 9440TIP3    H249736   3.134   5.913   1.726  1.2533  0.3650  2.4620
 9441TIP3   OH249737   1.798   0.572   5.949  0.0106 -0.2089 -0.7108
 9441TIP3    H149738   1.869   0.522   5.909 -2.1475 -4.0223 -0.1827
 9441TIP3    H249739   1.826   0.584   6.040  0.3219 -0.9881 -0.6960
 9442TIP3   OH249740   3.708   4.252   2.310  0.3107 -0.8147 -0.2817
 9442TIP3    H149741   3.769   4.323   2.329 -0.4995  0.5728 -2.5196
 9442TIP3    H249742   3.621   4.292   2.317 -0.1646 -1.5820 -1.4756
 9443TIP3   OH249743   1.886   5.167  11.152 -0.3805  0.6165  0.2125
 9443TIP3    H149744   1.848   5.226  11.217 -0.6332  2.5158 -1.5279
 9443TIP3    H249745   1.821   5.098  11.141 -1.4244  1.5537  0.3005
 9444TIP3   OH249746   0.510   5.866   6.617 -0.2162 -0.1243  0.3330
 9444TIP3    H149747   0.587   5.809   6.606 -0.2365 -0.0045 -0.4936
 9444TIP3    H249748   0.534   5.947   6.572 -0.8894 -0.1485 -0.0816
 9445TIP3   OH249749   4.370   3.598   4.121 -0.0414 -0.0965 -0.0757
 9445TIP3    H149750   4.312   3.558   4.186 -0.5777 -0.5535 -0.8209
 9445TIP3    H249751   4.380   3.689   4.150 -4.5564  1.3317 -2.0722
 9446TIP3   OH249752   2.581   2.946   5.623 -0.0704 -0.0786  0.1749
 9446TIP3    H149753   2.499   2.924   5.667  1.8879 -1.3488  3.5470
 9446TIP3    H249754   2.580   3.042   5.616 -1.8564 -0.0832 -0.0339
 9447TIP3   OH249755   5.595   4.718   4.529 -0.2544  0.0456  0.1560
 9447TIP3    H149756   5.682   4.749   4.505 -0.5860  0.1143 -1.0296
 9447TIP3    H249757   5.584   4.636   4.481 -0.8784  0.0836  0.2188
 9448TIP3   OH249758   6.033   1.790   1.520 -0.0146 -0.1199 -0.1957
 9448TIP3    H149759   6.087   1.798   1.598  0.1933  0.9228 -0.4401
 9448TIP3    H249760   6.077   1.843   1.454 -1.4728  0.9937 -0.3221
 9449TIP3   OH249761   3.391   4.003   0.419 -0.1679 -0.7055  0.5451
 9449TIP3    H149762   3.445   3.926   0.439  0.1577 -0.6278 -0.0134
 9449TIP3    H249763   3.374   3.996   0.325 -0.5803 -0.3749  0.5944
 9450TIP3   OH249764   4.283   4.626   5.860  0.5918 -0.0627  0.1039
 9450TIP3    H149765   4.220   4.561   5.891 -0.2819  1.1182  0.8935
 9450TIP3    H249766   4.317   4.589   5.778 -1.2155 -0.6862 -0.4116
 9451TIP3   OH249767   3.940   6.373   6.265 -0.5208 -0.2069 -0.0151
 9451TIP3    H149768   3.863   6.316   6.269 -0.1454 -0.6572  1.8534
 9451TIP3    H249769   4.014   6.313   6.271 -0.1025  0.3770  1.1516
 9452TIP3   OH249770   2.120   2.237  16.078 -0.0201  0.1031 -0.8312
 9452TIP3    H149771   2.044   2.270  16.030 -0.7380  2.3028  1.5919
 9452TIP3    H249772   2.099   2.254  16.170  2.2540 -1.7910  0.1355
 9453TIP3   OH249773   1.720   6.208  14.379 -0.0884 -0.2578 -0.4590
 9453TIP3    H149774   1.768   6.140  14.425  0.4777 -0.3613 -1.1881
 9453TIP3    H249775   1.629   6.176  14.377 -0.4656  0.4704  1.9290
 9454TIP3   OH249776   6.761   3.964   6.613 -0.3831 -0.1925  0.0835
 9454TIP3    H149777   6.781   3.882   6.660 -0.1517  0.9685  2.1569
 9454TIP3    H249778   6.837   3.979   6.557 -0.2367 -1.1692  0.0029
 9455TIP3   OH249779   2.671   2.343  13.301  0.7679  0.1908  0.1960
 9455TIP3    H149780   2.632   2.256  13.293  0.4153  0.2842  0.8058
 9455TIP3    H249781   2.749   2.341  13.246 -0.6179  0.2939 -1.8651
 9456TIP3   OH249782   1.115   1.677  16.089  0.0838 -0.4415  0.1388
 9456TIP3    H149783   1.025   1.648  16.096 -0.0877  0.1578  0.4431
 9456TIP3    H249784   1.116   1.764  16.128  0.8050 -0.4674  0.1976
 9457TIP3   OH249785   1.847   0.459  13.800 -0.4573 -0.3260 -0.2284
 9457TIP3    H149786   1.919   0.445  13.861 -1.0619  1.5171  1.0148
 9457TIP3    H249787   1.772   0.416  13.842 -0.9798  1.3422  0.6218
 9458TIP3   OH249788   0.192   1.559  14.544  0.3285 -0.2138 -0.7871
 9458TIP3    H149789   0.130   1.492  14.575 -0.4934  0.5376 -0.7489
 9458TIP3    H249790   0.191   1.550  14.449  0.0905 -0.1470 -0.7916
 9459TIP3   OH249791   4.377   1.480   3.641 -0.3339 -0.2065  0.6347
 9459TIP3    H149792   4.410   1.509   3.556  0.0584  0.2821  0.9483
 9459TIP3    H249793   4.330   1.398   3.623 -1.1971  0.4564 -0.2279
 9460TIP3   OH249794   6.374   1.361   1.036  0.0700  0.4130  0.1643
 9460TIP3    H149795   6.425   1.427   1.083  0.1722  0.6592 -0.2966
 9460TIP3    H249796   6.437   1.291   1.017 -0.2326 -0.2467  1.4547
 9461TIP3   OH249797   0.584   0.117   0.043 -0.0885 -0.2099 -0.6336
 9461TIP3    H149798   0.648   0.169   0.092 -0.4210 -0.1949 -0.2121
 9461TIP3    H249799   0.631   0.037   0.021 -0.2873 -0.7339  0.7376
 9462TIP3   OH249800   4.126   2.854   3.374  0.3878  0.5767  0.4543
 9462TIP3    H149801   4.179   2.775   3.387  0.1967  0.3867  0.1014
 9462TIP3    H249802   4.159   2.891   3.291  0.0264  0.5043  0.2785
 9463TIP3   OH249803   0.292   1.232  10.611  0.3189  0.5279  0.5183
 9463TIP3    H149804   0.370   1.275  10.648 -0.1016  1.0277  0.8366
 9463TIP3    H249805   0.277   1.157  10.667 -0.8037  1.7353  1.9241
 9464TIP3   OH249806   1.340   3.102  16.381 -0.4074  0.0651  0.0691
 9464TIP3    H149807   1.352   3.118  16.474 -0.7111  0.6224  0.0179
 9464TIP3    H249808   1.305   3.013  16.376  3.0549 -1.4777  0.2608
 9465TIP3   OH249809   3.019   6.199   5.706  0.1151 -0.7456  0.0410
 9465TIP3    H149810   3.095   6.186   5.648 -0.6573 -0.6159 -1.0264
 9465TIP3    H249811   3.057   6.226   5.789  1.3439 -2.1824 -0.0047
 9466TIP3   OH249812   0.575   3.393  13.948  0.2754  0.4955 -0.3328
 9466TIP3    H149813   0.517   3.428  14.015 -0.4993 -0.0848 -0.6946
 9466TIP3    H249814   0.568   3.454  13.875 -1.7015 -0.7946 -1.2780
 9467TIP3   OH249815   1.037   1.635   1.139  0.1909 -0.1303 -0.6637
 9467TIP3    H149816   0.958   1.670   1.182 -1.2765 -0.6982 -2.7562
 9467TIP3    H249817   1.011   1.622   1.048  2.1174 -2.2440 -0.9910
 9468TIP3   OH249818   4.205   0.207  15.463 -0.7464 -0.6946  0.2243
 9468TIP3    H149819   4.151   0.204  15.384 -0.9521 -1.7812  0.4007
 9468TIP3    H249820   4.288   0.169  15.437 -1.1232 -1.9191  0.7591
 9469TIP3   OH249821   5.677   2.688  16.374 -0.5388  0.3207 -0.1571
 9469TIP3    H149822   5.723   2.742  16.438 -3.6359  0.3173  2.2960
 9469TIP3    H249823   5.708   2.599  16.391  0.2750  0.5833 -0.2123
 9470TIP3   OH249824   3.134   2.024  17.203  0.5255 -0.0557 -0.0732
 9470TIP3    H149825   3.139   1.943  17.152 -0.2241 -0.1967  0.0569
 9470TIP3    H249826   3.127   2.093  17.137 -3.3717 -0.4296 -0.2855
 9471TIP3   OH249827   5.621   4.780   2.052 -0.6475  0.0217  0.3026
 9471TIP3    H149828   5.609   4.764   2.145 -0.1781 -1.1983  0.1716
 9471TIP3    H249829   5.680   4.710   2.022 -1.5484 -0.1808 -1.0985
 9472TIP3   OH249830   2.123   6.609   4.672 -0.2362  0.0606 -0.1754
 9472TIP3    H149831   2.079   6.561   4.742  1.1242 -1.0367 -0.0440
 9472TIP3    H249832   2.197   6.554   4.647  0.4512  1.3542 -1.1253
 9473TIP3   OH249833   3.519   4.421   1.801  0.4526  0.5254  0.4114
 9473TIP3    H149834   3.559   4.366   1.868 -2.4352  0.4499  2.2071
 9473TIP3    H249835   3.539   4.511   1.829  0.7727  0.4679  0.3682
 9474TIP3   OH249836   2.909   2.183  14.023  0.0031  0.4290 -0.7453
 9474TIP3    H149837   2.962   2.105  14.009  1.0090  1.3129 -2.1345
 9474TIP3    H249838   2.897   2.188  14.117  1.9425 -0.1139 -0.4379
 9475TIP3   OH249839   0.524   0.683   0.765 -0.4258 -0.6305 -0.0570
 9475TIP3    H149840   0.610   0.710   0.734 -0.6217 -0.9313 -0.9043
 9475TIP3    H249841   0.476   0.765   0.776  0.9058 -0.1649  3.5454
 9476TIP3   OH249842   2.156   6.601  15.081  0.3712  0.4480  0.3300
 9476TIP3    H149843   2.160   6.551  15.163  1.3943 -1.1697 -0.6441
 9476TIP3    H249844   2.246   6.603  15.050 -0.1877 -0.3342 -1.4978
 9477TIP3   OH249845   6.475   3.865  12.419 -0.3793 -0.1366 -0.0865
 9477TIP3    H149846   6.402   3.926  12.404 -0.3806 -0.1715 -0.2184
 9477TIP3    H249847   6.553   3.919  12.411 -0.4032 -0.0115  0.4660
 9478TIP3   OH249848   6.516   2.668   0.983  0.8391 -0.0667 -0.3104
 9478TIP3    H149849   6.476   2.672   0.896  0.7064 -0.1232 -0.2520
 9478TIP3    H249850   6.442   2.677   1.043  0.8573 -0.6694 -0.1947
 9479TIP3   OH249851   3.791   0.991   0.051  0.3498 -0.0055  0.2238
 9479TIP3    H149852   3.878   0.986   0.010  0.1149  1.0964 -0.4625
 9479TIP3    H249853   3.802   1.052   0.124  0.0349  0.6276 -0.2429
 9480TIP3   OH249854   2.149   5.735  12.912  0.2646 -0.1639  0.2175
 9480TIP3    H149855   2.148   5.830  12.898 -1.5270 -0.0970  0.5376
 9480TIP3    H249856   2.068   5.717  12.959  0.1979 -1.9586 -0.4923
 9481TIP3   OH249857   4.842   1.140   3.792  0.7620 -0.6872  0.5627
 9481TIP3    H149858   4.799   1.061   3.824 -0.2782 -0.8040 -1.0472
 9481TIP3    H249859   4.930   1.111   3.766  0.3873 -1.3161 -0.0137
 9482TIP3   OH249860   4.816   3.042  14.935 -0.1499  0.4094  0.0744
 9482TIP3    H149861   4.906   3.014  14.955 -0.3943  0.4946  1.4106
 9482TIP3    H249862   4.761   2.969  14.962 -0.4411 -0.0438 -1.6681
 9483TIP3   OH249863   1.641   5.098  13.216 -0.0060 -0.1090 -0.3182
 9483TIP3    H149864   1.573   5.031  13.211 -1.1436  1.0785 -1.8166
 9483TIP3    H249865   1.720   5.051  13.244 -1.3967 -1.5391  1.4325
 9484TIP3   OH249866   4.753   0.978  11.627  0.0995  0.2312 -0.5069
 9484TIP3    H149867   4.820   1.032  11.668  0.8908 -0.9674 -0.1579
 9484TIP3    H249868   4.709   1.036  11.565  0.0285  1.6170  0.7856
 9485TIP3   OH249869   0.195   0.413   4.322 -0.2316 -0.2077  0.6543
 9485TIP3    H149870   0.104   0.415   4.292  0.6657 -0.1995 -2.4016
 9485TIP3    H249871   0.225   0.504   4.314 -0.2844  0.1018  3.1059
 9486TIP3   OH249872   5.780   3.099   6.748 -0.1814 -0.0033 -0.0183
 9486TIP3    H149873   5.685   3.087   6.736 -0.4326  0.8942  0.8676
 9486TIP3    H249874   5.790   3.194   6.755  0.8101 -0.0891 -0.2339
 9487TIP3   OH249875   1.661   1.048  13.208  0.1856  0.4038 -0.1788
 9487TIP3    H149876   1.746   1.043  13.253 -0.3828 -1.0345  0.7956
 9487TIP3    H249877   1.683   1.034  13.115  0.9227 -1.0880  0.1861
 9488TIP3   OH249878   6.245   4.274  11.644  0.2293 -0.9975  0.3099
 9488TIP3    H149879   6.168   4.219  11.630  1.0426 -2.0423 -0.2592
 9488TIP3    H249880   6.249   4.287  11.739 -0.6554 -0.9036  0.3416
 9489TIP3   OH249881   0.732   3.853  15.589 -0.4165  0.2044 -0.2175
 9489TIP3    H149882   0.817   3.837  15.630  0.1192 -3.5651 -2.2869
 9489TIP3    H249883   0.671   3.800  15.639 -1.3596  1.9012  0.4837
 9490TIP3   OH249884   3.570   3.799  14.784  0.2342 -0.0200  0.2821
 9490TIP3    H149885   3.649   3.829  14.739 -0.5241 -0.9378 -1.8079
 9490TIP3    H249886   3.534   3.732  14.726  0.4853 -3.1763  3.4541
 9491TIP3   OH249887   4.525   6.610   4.004  0.0485 -0.1867  0.1143
 9491TIP3    H149888   4.440   6.605   4.049  0.9719  2.1703  2.3671
 9491TIP3    H249889   4.581   6.551   4.055  0.2251 -0.3173 -0.2326
 9492TIP3   OH249890   0.439   1.031   5.825  0.0188  0.8656  0.4996
 9492TIP3    H149891   0.397   1.101   5.776 -2.1792  0.1694  1.2263
 9492TIP3    H249892   0.379   1.014   5.898  0.5450 -1.6108  0.4604
 9493TIP3   OH249893   5.224   4.779  16.542  0.7537 -0.0515 -0.1170
 9493TIP3    H149894   5.209   4.693  16.581  0.8891 -0.7966 -1.6352
 9493TIP3    H249895   5.221   4.840  16.616 -0.6010 -1.2042  0.8343
 9494TIP3   OH249896   1.135   2.967  12.519 -0.4651  0.1959 -0.4528
 9494TIP3    H149897   1.049   3.005  12.539  0.6288  1.9228  1.3057
 9494TIP3    H249898   1.198   3.031  12.553  1.5155 -1.6614 -0.4429
 9495TIP3   OH249899   5.198   6.706   1.472  0.0122  0.1586  0.1811
 9495TIP3    H149900   5.128   6.771   1.473 -1.1461 -1.0378  1.8960
 9495TIP3    H249901   5.152   6.622   1.466  1.4743 -0.5693 -2.4610
 9496TIP3   OH249902   5.555   4.689   2.318  0.3339 -0.2292 -0.5382
 9496TIP3    H149903   5.604   4.641   2.385 -0.7893 -1.9142 -0.8886
 9496TIP3    H249904   5.476   4.720   2.363 -0.0815 -0.7531 -0.9013
 9497TIP3   OH249905   5.888   6.630   3.998 -0.3637 -0.6103  0.2136
 9497TIP3    H149906   5.854   6.604   3.913 -1.5986 -0.0684  0.5131
 9497TIP3    H249907   5.974   6.668   3.979 -0.9633  0.2530 -0.9078
 9498TIP3   OH249908   0.837   3.928  13.236 -0.3347  0.1615 -0.2749
 9498TIP3    H149909   0.923   3.949  13.273 -0.3492 -0.4927  0.1519
 9498TIP3    H249910   0.775   3.967  13.298 -0.3516 -0.5048  0.1466
 9499TIP3   OH249911   0.968   3.563  13.445  0.4143 -0.0946  0.6814
 9499TIP3    H149912   0.955   3.513  13.525 -2.4907 -1.3458 -0.4433
 9499TIP3    H249913   0.881   3.595  13.421  0.5885 -1.9692 -3.2579
 9500TIP3   OH249914   0.701   3.550   5.045 -0.5055 -0.3939  0.8161
 9500TIP3    H149915   0.725   3.464   5.079 -0.0275 -0.2472  0.8566
 9500TIP3    H249916   0.751   3.559   4.963 -1.5862 -0.7125  0.1058
 9501TIP3   OH249917   3.295   5.359  12.814 -0.2644  0.2004 -0.5932
 9501TIP3    H149918   3.360   5.318  12.757  1.1869  1.9779 -0.2919
 9501TIP3    H249919   3.271   5.440  12.771 -2.4199 -0.4365 -0.7290
 9502TIP3   OH249920   1.499   0.083  12.877 -0.0271 -0.8266  0.6733
 9502TIP3    H149921   1.448   0.009  12.843 -1.0011  0.1128 -0.0073
 9502TIP3    H249922   1.433   0.142  12.914  0.5413  0.4341 -0.2466
 9503TIP3   OH249923   4.826   6.248  16.616 -0.3484 -0.2037  0.4191
 9503TIP3    H149924   4.747   6.297  16.593 -0.5506 -0.4173  0.6359
 9503TIP3    H249925   4.842   6.271  16.708 -0.1196 -0.1078  0.3546
 9504TIP3   OH249926   6.753   0.930  16.087  0.4987  0.3794 -0.1588
 9504TIP3    H149927   6.846   0.926  16.065  0.6454 -0.6282  0.5824
 9504TIP3    H249928   6.749   0.989  16.163  0.4225  1.1005 -0.7184
 9505TIP3   OH249929   4.382   5.275   1.610  0.3606  0.3986 -0.1464
 9505TIP3    H149930   4.462   5.241   1.649  0.3292  1.5411  0.9798
 9505TIP3    H249931   4.397   5.370   1.604 -0.7518  0.5784 -0.2793
 9506TIP3   OH249932   2.571   2.107  17.156  0.3501  0.2057 -0.4302
 9506TIP3    H149933   2.652   2.081  17.112  0.6947  1.6578 -0.7034
 9506TIP3    H249934   2.525   2.024  17.172  1.8071 -0.6382 -0.3962
 9507TIP3   OH249935   4.484   4.169   0.824  0.4661 -0.7818  0.4086
 9507TIP3    H149936   4.476   4.099   0.759  3.6025 -1.0668  0.2023
 9507TIP3    H249937   4.546   4.134   0.889  0.1817  0.8852  1.6469
 9508TIP3   OH249938   3.633   3.569  14.341  0.3774  0.0407  0.0541
 9508TIP3    H149939   3.595   3.491  14.300  0.3280 -0.1136  0.3914
 9508TIP3    H249940   3.694   3.534  14.406 -0.8299  0.2523  1.3481
 9509TIP3   OH249941   4.244   6.188  13.255 -0.0534 -0.3608  0.2325
 9509TIP3    H149942   4.183   6.240  13.308  0.4144 -1.1006  1.5618
 9509TIP3    H249943   4.216   6.098  13.269 -0.2720 -0.5435 -1.2829
 9510TIP3   OH249944   0.946   4.416   1.068 -0.0584 -0.3625  0.3020
 9510TIP3    H149945   0.935   4.440   0.976 -1.5730  1.0055  0.8062
 9510TIP3    H249946   1.039   4.394   1.075  0.0136 -0.8836 -1.6271
 9511TIP3   OH249947   3.566   3.435  11.944  0.6219  0.5767  0.0149
 9511TIP3    H149948   3.606   3.397  11.865  1.4780  1.8614 -0.1983
 9511TIP3    H249949   3.513   3.364  11.980  1.0657 -0.3755 -1.1268
 9512TIP3   OH249950   6.093   1.833  11.496 -0.3023 -0.2966  0.1798
 9512TIP3    H149951   6.071   1.808  11.586  1.0439  1.3637  1.0359
 9512TIP3    H249952   6.013   1.870  11.461 -0.9533 -1.3112  0.5431
 9513TIP3   OH249953   3.384   5.713   4.195 -0.6620 -0.3504  0.4264
 9513TIP3    H149954   3.295   5.734   4.223 -0.3094 -0.5978  1.7793
 9513TIP3    H249955   3.401   5.626   4.231 -0.7868 -1.4771 -2.0112
 9514TIP3   OH249956   5.607   6.436   5.000  0.4179 -0.4905  0.4943
 9514TIP3    H149957   5.586   6.457   5.091  1.2775  0.8470  0.4107
 9514TIP3    H249958   5.525   6.405   4.963 -0.0148 -0.7773  1.6329
 9515TIP3   OH249959   3.088   0.862  15.724 -0.2258  0.3604 -0.1269
 9515TIP3    H149960   3.100   0.892  15.814 -2.6677  2.7001 -0.4657
 9515TIP3    H249961   3.017   0.797  15.730  0.0057  0.0886 -0.3114
 9516TIP3   OH249962   3.476   5.424  14.762 -0.3688 -0.2837 -0.3562
 9516TIP3    H149963   3.416   5.352  14.782 -0.2360 -0.0645  0.9154
 9516TIP3    H249964   3.420   5.492  14.726 -0.5987 -0.7459 -0.8984
 9517TIP3   OH249965   1.323   3.555  11.385  0.3179  0.0306  0.0180
 9517TIP3    H149966   1.347   3.600  11.304 -0.3373 -1.3636 -0.9898
 9517TIP3    H249967   1.273   3.620  11.434 -0.2439  0.5524 -1.1957
 9518TIP3   OH249968   3.014   5.911  15.051 -0.3470 -0.4989  0.3601
 9518TIP3    H149969   3.037   5.993  15.094  0.1092  0.7397 -2.0594
 9518TIP3    H249970   3.080   5.849  15.083  1.1053  0.8253  0.0688
 9519TIP3   OH249971   5.169   6.279   3.558  0.3859  0.4357  0.0781
 9519TIP3    H149972   5.264   6.261   3.559  0.5856  1.1187  3.2221
 9519TIP3    H249973   5.162   6.368   3.525  1.0302  0.9322  1.2151
 9520TIP3   OH249974   6.208   5.407  13.044  0.1835  0.3393  0.1180
 9520TIP3    H149975   6.182   5.321  13.076  0.5612  0.0151 -0.4333
 9520TIP3    H249976   6.294   5.422  13.083  0.3528  0.2318 -0.2094
 9521TIP3   OH249977   4.504   5.158  14.274  0.0284 -0.4448 -0.3182
 9521TIP3    H149978   4.473   5.233  14.324  0.5239 -0.3873 -0.0916
 9521TIP3    H249979   4.429   5.098  14.270 -0.0904 -0.3373  0.2678
 9522TIP3   OH249980   3.966   0.267  11.881 -0.3693  0.3965 -0.3220
 9522TIP3    H149981   3.894   0.249  11.820  0.9766 -0.4547 -1.7104
 9522TIP3    H249982   3.952   0.205  11.953 -1.1215  0.3711 -0.4838
 9523TIP3   OH249983   3.565   4.226  15.064  0.3299  0.3570  0.6216
 9523TIP3    H149984   3.561   4.130  15.058  0.8928  0.3954 -1.0831
 9523TIP3    H249985   3.628   4.243  15.134  0.6625 -0.5436  0.5557
 9524TIP3   OH249986   0.090   2.021   0.563  0.0487 -0.0916  0.5267
 9524TIP3    H149987   0.044   1.975   0.633 -1.5375  0.9509  0.2323
 9524TIP3    H249988   0.032   2.093   0.540  1.7520  1.1516 -0.0701
 9525TIP3   OH249989   6.717   0.277   4.153 -0.1690  0.2831  0.1351
 9525TIP3    H149990   6.712   0.372   4.163 -0.6571  1.0532 -4.7539
 9525TIP3    H249991   6.797   0.262   4.103 -1.6599 -1.3941 -1.9564
 9526TIP3   OH249992   0.731   3.296  13.276 -0.2380 -0.4020  0.1469
 9526TIP3    H149993   0.773   3.229  13.222  1.5135 -0.6308  1.6883
 9526TIP3    H249994   0.753   3.379  13.234 -1.0736 -0.6831 -0.8809
 9527TIP3   OH249995   0.003   1.645   2.897  0.1975  0.3102  0.4982
 9527TIP3    H149996  -0.087   1.647   2.929 -0.2491  0.5454 -0.7176
 9527TIP3    H249997   0.048   1.713   2.948 -1.0205  2.2199 -0.8355
 9528TIP3   OH249998   2.998   2.965   3.721  0.1917  0.5638  0.2687
 9528TIP3    H149999   2.983   3.058   3.709 -0.5120  0.2482 -1.7020
 9528TIP3    H250000   2.914   2.924   3.700  0.7914 -0.5723 -0.0319
 9529TIP3   OH250001   4.955   1.032   3.529 -0.1750  0.0673  0.0333
 9529TIP3    H150002   4.996   1.060   3.611 -0.3953  0.4306  0.0202
 9529TIP3    H250003   4.862   1.046   3.542 -0.1872  0.4158 -0.3857
 9530TIP3   OH250004   4.845   4.200   6.004  0.9829 -0.2686  0.3217
 9530TIP3    H150005   4.862   4.117   6.048 -2.6647 -0.2229  2.2748
 9530TIP3    H250006   4.864   4.267   6.070  0.9898  0.2210 -0.1719
 9531TIP3   OH250007   3.264   6.507  13.177 -0.3547 -0.3146 -0.5915
 9531TIP3    H150008   3.359   6.518  13.167 -0.3820  0.5132 -0.0287
 9531TIP3    H250009   3.253   6.478  13.267 -0.6741  0.0880 -0.4988
 9532TIP3   OH250010   3.474   6.257   4.819 -0.1111 -0.1992 -0.3849
 9532TIP3    H150011   3.494   6.210   4.901  2.2354 -0.6621 -1.1672
 9532TIP3    H250012   3.380   6.244   4.808 -0.7222  0.6136  2.6696
 9533TIP3   OH250013   3.325   2.920  12.696 -0.3635  0.0733  0.6962
 9533TIP3    H150014   3.366   3.003  12.719  1.5458 -0.8752  0.9254
 9533TIP3    H250015   3.340   2.863  12.772  1.5618 -1.5502 -0.7874
 9534TIP3   OH250016   6.101   5.491   3.257  0.1713  0.0980 -0.0669
 9534TIP3    H150017   6.191   5.522   3.266  0.2527 -0.6704  2.3709
 9534TIP3    H250018   6.048   5.562   3.294 -0.0426 -0.4672  0.7128
 9535TIP3   OH250019   0.916   2.006   1.857 -0.2002 -0.1960  0.4839
 9535TIP3    H150020   0.869   2.079   1.898  1.0657  0.4743  0.7811
 9535TIP3    H250021   0.929   1.943   1.928  2.0187  0.9785  1.2010
 9536TIP3   OH250022   2.455   2.633  15.127  0.0024 -0.1080  0.1658
 9536TIP3    H150023   2.412   2.699  15.182 -0.3081  0.0067 -0.2097
 9536TIP3    H250024   2.548   2.641  15.148  0.0531  0.9133 -0.3475
 9537TIP3   OH250025   1.326   1.981   0.934 -0.1291  0.3586 -0.0399
 9537TIP3    H150026   1.328   2.012   0.843 -1.2201 -1.0582 -0.5797
 9537TIP3    H250027   1.234   1.989   0.960 -0.0917 -0.6290  0.4343
 9538TIP3   OH250028   4.787   5.190   3.070  0.3003 -0.2483  0.5221
 9538TIP3    H150029   4.727   5.133   3.119  1.4484 -1.0530  1.0509
 9538TIP3    H250030   4.770   5.278   3.104  1.2215 -0.8043  2.5946
 9539TIP3   OH250031   1.452   3.421   3.866  0.1335 -0.5819  0.2388
 9539TIP3    H150032   1.495   3.506   3.873 -0.4329 -0.0537 -1.8775
 9539TIP3    H250033   1.524   3.359   3.852  0.4544 -0.2249  0.3040
 9540TIP3   OH250034   6.443   1.876  13.004 -0.2581  0.0769 -0.5477
 9540TIP3    H150035   6.434   1.955  13.058  1.9336 -0.5229  0.8331
 9540TIP3    H250036   6.465   1.908  12.917 -0.8902  1.0118 -0.3732
 9541TIP3   OH250037   4.541   0.201   1.489  0.1444  0.5020  0.0326
 9541TIP3    H150038   4.542   0.294   1.510 -0.9377  0.7709 -0.9619
 9541TIP3    H250039   4.472   0.192   1.423  1.0081 -0.8193 -0.7451
 9542TIP3   OH250040   5.980   5.029  13.948  0.1245  0.8903 -1.0067
 9542TIP3    H150041   5.947   4.972  14.016 -1.8522  2.1889 -0.7835
 9542TIP3    H250042   5.909   5.090  13.931  0.6699  0.8591 -3.9906
 9543TIP3   OH250043   2.087   3.865  13.952 -0.1981  0.0012 -0.6644
 9543TIP3    H150044   2.171   3.841  13.912 -0.4179 -0.6402 -0.7444
 9543TIP3    H250045   2.032   3.787  13.943 -0.7321  0.3397 -0.4090
 9544TIP3   OH250046   4.468   4.915  16.541  0.2580  0.1984 -0.0503
 9544TIP3    H150047   4.410   4.848  16.576 -0.7920  0.5135 -1.1441
 9544TIP3    H250048   4.476   4.894  16.448  2.2808 -0.0985  0.1399
 9545TIP3   OH250049   2.670   5.325   3.309  0.1134 -0.1551 -0.2039
 9545TIP3    H150050   2.661   5.325   3.404  0.5067  0.6859 -0.1582
 9545TIP3    H250051   2.763   5.308   3.294  0.3584  1.2100 -0.3824
 9546TIP3   OH250052   1.870   2.251  12.334 -0.4654 -1.1695  0.5817
 9546TIP3    H150053   1.827   2.204  12.405  0.9164 -2.2193  0.7528
 9546TIP3    H250054   1.947   2.199  12.313  1.1391  0.9775  0.7703
 9547TIP3   OH250055   6.317   4.465  11.898 -0.1236 -0.1857  0.6145
 9547TIP3    H150056   6.399   4.472  11.947 -0.4615 -0.6840  1.2655
 9547TIP3    H250057   6.315   4.544  11.843  0.1427  0.5146  1.5904
 9548TIP3   OH250058   3.378   2.384  14.310 -0.2519  0.3450 -0.3581
 9548TIP3    H150059   3.369   2.321  14.381  1.9927  0.4739  0.1062
 9548TIP3    H250060   3.460   2.362  14.268 -0.5727  1.5122 -1.6746
 9549TIP3   OH250061   0.494   6.776  12.625 -0.2842  0.3483  0.5407
 9549TIP3    H150062   0.517   6.865  12.649  2.3035 -0.2335  0.5882
 9549TIP3    H250063   0.561   6.722  12.668 -2.5952 -1.7778  1.6999
 9550TIP3   OH250064   2.696   4.166  13.499  0.0714 -0.4558  0.1161
 9550TIP3    H150065   2.722   4.211  13.580  0.3540  1.3463 -0.9293
 9550TIP3    H250066   2.633   4.225  13.459 -0.4645 -1.5899 -0.7314
 9551TIP3   OH250067   2.381   2.835   3.392  0.0757 -0.1570 -0.4675
 9551TIP3    H150068   2.359   2.872   3.478 -2.5017  0.5911 -1.3424
 9551TIP3    H250069   2.468   2.869   3.373  0.5338  0.0114  1.6578
 9552TIP3   OH250070   5.722   4.095  13.876 -0.9824 -0.1236 -0.6305
 9552TIP3    H150071   5.693   4.066  13.963  1.5883 -2.8020 -0.4811
 9552TIP3    H250072   5.755   4.184  13.890 -1.4964 -0.1425  0.9299
 9553TIP3   OH250073   2.628   2.430  15.836 -0.0498  0.2897 -0.2560
 9553TIP3    H150074   2.644   2.478  15.754  1.1043  1.5276  0.6570
 9553TIP3    H250075   2.542   2.459  15.864 -1.0725 -1.1727 -1.6819
 9554TIP3   OH250076   0.156   3.626  15.268 -0.0596 -0.2437  0.3274
 9554TIP3    H150077   0.128   3.560  15.331 -1.6082 -0.0895 -0.1478
 9554TIP3    H250078   0.074   3.668  15.240  0.5798 -0.2595 -1.7175
 9555TIP3   OH250079   2.647   0.515  14.401  0.3949  0.1332 -0.2177
 9555TIP3    H150080   2.554   0.520  14.424  1.2928  1.0644  4.1140
 9555TIP3    H250081   2.668   0.602  14.367  0.1772  0.8517  1.4055
 9556TIP3   OH250082   5.944   1.068   1.619  0.2052  0.0857  0.2810
 9556TIP3    H150083   5.948   1.151   1.666 -2.4645 -0.6877  2.1233
 9556TIP3    H250084   5.942   1.093   1.527 -0.9476  2.1322  0.7956
 9557TIP3   OH250085   0.615   2.110   3.230  0.5585  0.0200 -0.1747
 9557TIP3    H150086   0.629   2.029   3.278  2.9880 -0.1166 -0.9933
 9557TIP3    H250087   0.591   2.174   3.298  1.6365 -0.6877  0.9132
 9558TIP3   OH250088   6.642   0.341  16.579  0.5687  0.9168 -0.2117
 9558TIP3    H150089   6.667   0.365  16.668 -1.0464  2.1397 -0.0373
 9558TIP3    H250090   6.723   0.344  16.529  1.4267  0.6420  1.1237
 9559TIP3   OH250091   4.040   6.740  16.896  0.0015 -0.3277 -0.2972
 9559TIP3    H150092   3.990   6.805  16.846  0.7501  1.1488  0.8007
 9559TIP3    H250093   4.066   6.675  16.831 -0.9304  0.3752 -1.4092
 9560TIP3   OH250094   3.747   0.767   1.958 -0.2927  0.4256  0.1729
 9560TIP3    H150095   3.670   0.711   1.953 -1.0530  1.5636 -1.2203
 9560TIP3    H250096   3.800   0.742   1.882  0.4292  0.1063  0.7614
 9561TIP3   OH250097   3.046   1.956  13.952  0.0942 -0.2745  0.8457
 9561TIP3    H150098   3.047   1.927  13.861 -2.0347 -0.3463  0.7810
 9561TIP3    H250099   3.110   1.900  13.996 -0.8869 -2.2241 -0.0660
 9562TIP3   OH250100   4.697   3.715  12.350 -0.3227  0.0216  0.7473
 9562TIP3    H150101   4.713   3.702  12.256  0.2475 -1.0249  0.9801
 9562TIP3    H250102   4.603   3.697  12.360 -0.1990 -0.7723  0.5251
 9563TIP3   OH250103   2.095   1.203   1.903 -0.4205  0.0602 -0.0442
 9563TIP3    H150104   2.060   1.179   1.817 -2.9601  1.5504  0.4699
 9563TIP3    H250105   2.180   1.242   1.884 -0.8671  0.2454 -1.8732
 9564TIP3   OH250106   3.620   3.592   2.035  0.1518 -0.3360 -0.9114
 9564TIP3    H150107   3.714   3.600   2.018  0.1195  0.7728 -0.6813
 9564TIP3    H250108   3.600   3.666   2.093 -0.8007 -0.7577 -0.6817
 9565TIP3   OH250109   4.986   4.601  15.511  0.1765  0.5652 -0.6070
 9565TIP3    H150110   4.940   4.640  15.585  1.4246  1.3632 -0.2111
 9565TIP3    H250111   5.064   4.561  15.549 -0.8369 -2.0423 -1.0579
 9566TIP3   OH250112   3.120   0.410   1.201  0.1103 -0.0250 -0.0870
 9566TIP3    H150113   3.190   0.393   1.138 -1.2403 -0.6579 -1.4662
 9566TIP3    H250114   3.064   0.332   1.197 -0.0013 -0.1237  1.9587
 9567TIP3   OH250115   4.502   6.700   4.382  0.2954 -0.2813  0.3203
 9567TIP3    H150116   4.535   6.618   4.418 -0.1132 -0.8117 -0.4692
 9567TIP3    H250117   4.441   6.673   4.314  0.6278  0.6865 -0.3853
 9568TIP3   OH250118   6.418   3.667   3.722  0.6638 -0.8291  0.3603
 9568TIP3    H150119   6.443   3.655   3.631 -1.4390 -2.2792 -0.0952
 9568TIP3    H250120   6.443   3.586   3.765  0.0039 -0.8886  0.6503
 9569TIP3   OH250121   5.586   3.968   5.140  0.3335 -0.2034 -0.4296
 9569TIP3    H150122   5.521   4.031   5.170  1.2017 -0.2664  1.7336
 9569TIP3    H250123   5.670   4.003   5.169  0.7538 -3.0027  2.3729
 9570TIP3   OH250124   0.136   1.508  10.571 -0.5078  0.4277  0.6354
 9570TIP3    H150125   0.195   1.572  10.530 -0.4800 -0.5643 -0.9672
 9570TIP3    H250126   0.190   1.430  10.583 -1.5930 -0.7155 -1.4555
 9571TIP3   OH250127   0.326   6.361  12.939  0.3961 -0.0583 -0.0340
 9571TIP3    H150128   0.277   6.427  12.889  0.4292  0.1757  0.2376
 9571TIP3    H250129   0.413   6.361  12.899  0.1669 -0.4964 -0.5356
 9572TIP3   OH250130   3.387   3.712   1.940 -0.0533 -0.5465  0.0024
 9572TIP3    H150131   3.405   3.745   1.852  0.8504 -0.2763  0.2769
 9572TIP3    H250132   3.468   3.669   1.967 -1.1145 -2.8573 -0.2626
 9573TIP3   OH250133   4.932   0.645  16.827  0.0454  0.2898  0.2961
 9573TIP3    H150134   4.955   0.602  16.745  1.9086 -0.8470  1.3489
 9573TIP3    H250135   4.850   0.603  16.853 -0.1910  0.1583 -0.6274
 9574TIP3   OH250136   4.794   6.131  14.708  0.0806  0.0257 -0.3461
 9574TIP3    H150137   4.873   6.154  14.756  1.8066 -1.5406 -2.2023
 9574TIP3    H250138   4.728   6.118  14.775  1.6759  0.3510  1.3834
 9575TIP3   OH250139   5.088   1.749  17.181  0.0466  0.1027  0.2948
 9575TIP3    H150140   5.166   1.803  17.191  1.5850 -1.4374 -2.0890
 9575TIP3    H250141   5.082   1.699  17.262  1.1016  0.7826  0.8058
 9576TIP3   OH250142   2.178   2.405  15.794 -0.2372  0.1768 -0.1404
 9576TIP3    H150143   2.085   2.423  15.805 -0.0368  0.7508  0.7487
 9576TIP3    H250144   2.197   2.338  15.860  0.2055  0.8870  0.4675
 9577TIP3   OH250145   5.524   5.441   2.647  0.3555 -0.1943 -0.0578
 9577TIP3    H150146   5.440   5.405   2.675  0.0613  1.5956  1.6026
 9577TIP3    H250147   5.587   5.406   2.710  0.6452 -0.4751 -0.4974
 9578TIP3   OH250148   2.028   6.614   1.783  0.5789 -0.2580  0.1740
 9578TIP3    H150149   1.954   6.667   1.811  0.7206  0.6064 -1.0244
 9578TIP3    H250150   2.104   6.654   1.825  0.7673  0.9219 -1.2212
 9579TIP3   OH250151   6.458   5.826   6.560 -0.0875 -0.0848 -0.0332
 9579TIP3    H150152   6.534   5.775   6.532  0.5223 -0.5288  2.1781
 9579TIP3    H250153   6.424   5.866   6.480  2.1649 -0.2704 -1.1516
 9580TIP3   OH250154   2.129   1.175  11.437 -0.2750 -0.2943  0.0565
 9580TIP3    H150155   2.098   1.155  11.349  0.2096 -1.8596  0.1983
 9580TIP3    H250156   2.089   1.259  11.459 -1.3532 -0.4500 -1.1994
 9581TIP3   OH250157   6.424   0.560   3.562  0.4161 -0.0421  0.2351
 9581TIP3    H150158   6.439   0.643   3.515  1.3791 -0.7158 -0.7050
 9581TIP3    H250159   6.445   0.492   3.498 -0.1248 -1.0230  1.0653
 9582TIP3   OH250160   2.843   2.859   5.696 -0.2405  0.3972 -0.6297
 9582TIP3    H150161   2.751   2.870   5.670 -0.3170 -3.0453 -2.3854
 9582TIP3    H250162   2.861   2.766   5.679  3.3582  0.7874  0.4296
 9583TIP3   OH250163   0.431   2.256  14.686  0.1551 -0.2872 -0.1859
 9583TIP3    H150164   0.443   2.318  14.614  0.9546  0.0373  0.2203
 9583TIP3    H250165   0.518   2.245  14.724 -0.3129 -0.2035  0.9450
 9584TIP3   OH250166   2.260   0.434   3.746  0.0964 -0.2049 -0.8032
 9584TIP3    H150167   2.336   0.469   3.793 -0.5816  0.2954 -0.0506
 9584TIP3    H250168   2.246   0.495   3.674 -0.6619  0.7355  0.1053
 9585TIP3   OH250169   4.091   4.436   1.230  0.7434  0.2735 -0.0526
 9585TIP3    H150170   4.023   4.459   1.293  0.0191  0.7429 -0.9780
 9585TIP3    H250171   4.051   4.368   1.176  0.7933  0.9489 -0.9599
 9586TIP3   OH250172   4.736   1.368   5.320  0.4677  0.4895 -0.2861
 9586TIP3    H150173   4.703   1.349   5.233  0.7180 -0.6932 -0.1396
 9586TIP3    H250174   4.715   1.461   5.334 -1.2764  0.2202 -0.8451
 9587TIP3   OH250175   4.205   1.838  16.988  0.1609  0.3885  0.0680
 9587TIP3    H150176   4.244   1.769  16.935  3.2251  1.1025  1.1813
 9587TIP3    H250177   4.182   1.796  17.070  1.6225  0.5256  0.5819
 9588TIP3   OH250178   6.358   5.291   5.804  0.3152  0.4555 -0.7482
 9588TIP3    H150179   6.445   5.255   5.821 -0.5471 -1.1831  0.5368
 9588TIP3    H250180   6.322   5.237   5.734 -0.1446  0.2538 -0.3657
 9589TIP3   OH250181   5.254   3.098   3.743  0.3196  0.6230  0.3216
 9589TIP3    H150182   5.217   3.112   3.830  0.9964  1.3032  0.5084
 9589TIP3    H250183   5.181   3.115   3.683 -0.8937 -2.3101  0.7918
 9590TIP3   OH250184   4.452   5.591  12.439 -0.1338  1.0400 -0.1404
 9590TIP3    H150185   4.531   5.541  12.458 -0.9068 -1.2585 -2.3078
 9590TIP3    H250186   4.432   5.637  12.520  1.7175 -0.7292  1.4233
 9591TIP3   OH250187   5.299   0.571   5.558  0.4502 -0.1418 -0.1892
 9591TIP3    H150188   5.365   0.641   5.552 -1.8736  2.1470 -1.2319
 9591TIP3    H250189   5.280   0.565   5.652  0.5817  0.7741 -0.0896
 9592TIP3   OH250190   0.637   4.667   3.385  0.6557 -0.6460  0.3167
 9592TIP3    H150191   0.678   4.648   3.300  0.1377 -0.7719  0.0940
 9592TIP3    H250192   0.685   4.743   3.418 -1.2027  1.4936 -1.5619
 9593TIP3   OH250193   5.529   4.813  12.233  0.0565  0.1680 -0.0800
 9593TIP3    H150194   5.534   4.903  12.201 -1.3722 -0.2982 -1.7555
 9593TIP3    H250195   5.589   4.765  12.176  0.6495  0.0017  0.6729
 9594TIP3   OH250196   6.052   5.912   5.462  0.4418  0.5124 -0.9130
 9594TIP3    H150197   6.090   5.833   5.500  0.2284 -0.1150 -1.9834
 9594TIP3    H250198   6.127   5.965   5.437  0.5945  1.1674  0.8074
 9595TIP3   OH250199   1.954   1.665  11.436 -0.1491  0.2856  0.1910
 9595TIP3    H150200   1.958   1.663  11.532 -0.4573 -1.8763  0.2013
 9595TIP3    H250201   1.861   1.664  11.416 -0.0871 -0.5044 -0.1105
 9596TIP3   OH250202   2.204   1.479   0.814 -0.0838 -0.5730 -0.4415
 9596TIP3    H150203   2.158   1.533   0.878 -2.0587  0.3769 -2.5048
 9596TIP3    H250204   2.162   1.393   0.820  0.2290 -0.6990  0.0032
 9597TIP3   OH250205   4.350   6.172  16.473 -0.8414 -0.4782 -0.1721
 9597TIP3    H150206   4.422   6.228  16.446  0.0674 -1.3264  0.4353
 9597TIP3    H250207   4.351   6.177  16.569 -1.9586 -0.0489 -0.1705
 9598TIP3   OH250208   0.485   6.011  10.876  0.0629 -0.3511  0.5308
 9598TIP3    H150209   0.443   5.949  10.817 -0.1837 -0.8266  1.2002
 9598TIP3    H250210   0.467   5.977  10.963  2.5528 -1.0628  0.8487
 9599TIP3   OH250211   3.168   1.092   1.045  0.5459  1.0002 -0.3555
 9599TIP3    H150212   3.241   1.118   1.101 -0.0890 -0.9538  1.4865
 9599TIP3    H250213   3.209   1.058   0.966  1.6917 -0.2502  0.7269
 9600TIP3   OH250214   2.526   3.214   5.571 -0.3607 -0.3598 -0.3478
 9600TIP3    H150215   2.473   3.240   5.495  0.0041  0.5124 -0.3197
 9600TIP3    H250216   2.533   3.293   5.623 -1.7928 -1.2881  1.3583
 9601TIP3   OH250217   2.163   5.885  10.498 -0.5776 -0.5419  1.1714
 9601TIP3    H150218   2.224   5.916  10.565  1.5479  0.1211 -0.9033
 9601TIP3    H250219   2.162   5.790  10.508  0.3635 -0.5158  1.6537
 9602TIP3   OH250220   1.120   2.087   6.414  0.0106  0.6079 -0.1321
 9602TIP3    H150221   1.054   2.034   6.458  1.0161  1.1281  2.1602
 9602TIP3    H250222   1.085   2.176   6.416 -0.3588  0.4925 -1.2679
 9603TIP3   OH250223   0.874   5.743   2.514 -0.1072 -0.1193  0.2943
 9603TIP3    H150224   0.813   5.763   2.585  0.3059  1.2574  0.3058
 9603TIP3    H250225   0.853   5.807   2.446  1.0706  0.1422  0.1583
 9604TIP3   OH250226   1.237   6.724  14.968  0.5188  0.3224 -0.0677
 9604TIP3    H150227   1.261   6.634  14.988 -0.2647  0.2323  0.5362
 9604TIP3    H250228   1.208   6.760  15.052  1.9007  1.4955 -0.0536
 9605TIP3   OH250229   3.100   1.228  12.872 -0.2470 -0.2643  0.3980
 9605TIP3    H150230   3.011   1.197  12.856 -0.5018 -0.4933  2.0750
 9605TIP3    H250231   3.117   1.289  12.800 -2.8639  2.0536  1.5532
 9606TIP3   OH250232   2.848   2.038  12.779 -0.7311  0.2991  0.5612
 9606TIP3    H150233   2.853   2.134  12.785  3.2945  0.3255 -0.1179
 9606TIP3    H250234   2.890   2.007  12.860 -2.9596 -0.9980  1.2936
 9607TIP3   OH250235   3.153   5.243   0.575  0.4028  0.0313  0.2442
 9607TIP3    H150236   3.109   5.282   0.499  0.3966 -1.8686 -0.7928
 9607TIP3    H250237   3.098   5.266   0.650 -0.6395  0.3620 -0.5990
 9608TIP3   OH250238   6.433   6.655   3.612  0.6509  0.0735  0.4487
 9608TIP3    H150239   6.508   6.606   3.578  0.4145 -0.5070  0.7553
 9608TIP3    H250240   6.363   6.590   3.619 -0.5145  0.9610 -1.7082
 9609TIP3   OH250241   1.911   2.780  14.215  0.5706  0.4684 -0.1712
 9609TIP3    H150242   1.952   2.825  14.289  1.2274 -1.3601  0.6382
 9609TIP3    H250243   1.827   2.749  14.248  0.1521  1.0012 -0.7011
 9610TIP3   OH250244   2.712   5.420  15.999  0.3980 -0.3311 -0.6386
 9610TIP3    H150245   2.784   5.479  15.974  1.7123 -0.6514  2.0484
 9610TIP3    H250246   2.755   5.338  16.023 -1.0719 -1.1816 -0.7919
 9611TIP3   OH250247   6.150   3.017   5.862 -0.4148  0.2718 -0.5120
 9611TIP3    H150248   6.128   3.093   5.916 -0.9997 -0.2979  0.0823
 9611TIP3    H250249   6.092   3.023   5.787 -0.8812  0.1161 -0.1748
 9612TIP3   OH250250   2.961   1.818  11.509 -0.3550 -0.2536  0.1550
 9612TIP3    H150251   2.982   1.850  11.596 -1.1562 -0.1081  0.2988
 9612TIP3    H250252   2.920   1.893  11.465  2.3627  0.5606 -1.2617
 9613TIP3   OH250253   6.432   3.238   3.690  0.2025  0.1168  0.7826
 9613TIP3    H150254   6.518   3.221   3.652  0.9359  2.9716  0.9621
 9613TIP3    H250255   6.427   3.177   3.765  1.7098 -0.6401  0.3087
 9614TIP3   OH250256   1.238   1.981  11.465 -0.1967 -0.1983  0.1217
 9614TIP3    H150257   1.166   1.978  11.402 -1.2837 -1.3054  1.3553
 9614TIP3    H250258   1.209   1.926  11.537 -0.2923  3.2000  2.9690
 9615TIP3   OH250259   0.480   3.716  16.991 -0.4529 -0.4724  0.3368
 9615TIP3    H150260   0.398   3.734  17.037 -1.6683 -3.4842 -0.4065
 9615TIP3    H250261   0.502   3.626  17.016  2.5853  0.1920  0.3666
 9616TIP3   OH250262   5.451   0.318   5.860 -0.5961 -0.2693  0.0221
 9616TIP3    H150263   5.443   0.411   5.879 -0.9064 -0.2935  0.0256
 9616TIP3    H250264   5.536   0.308   5.817 -0.4547 -0.0221  0.2449
 9617TIP3   OH250265   0.312   3.199   1.137  0.0806  0.0623  0.2782
 9617TIP3    H150266   0.377   3.233   1.075  1.2406  0.2792  1.5829
 9617TIP3    H250267   0.228   3.223   1.098  0.7252 -0.6583 -1.7051
 9618TIP3   OH250268   3.926   3.463   1.779 -0.8477 -0.2940 -0.3300
 9618TIP3    H150269   3.973   3.536   1.820 -1.5069  0.1105 -0.2763
 9618TIP3    H250270   3.979   3.386   1.800 -0.9684 -0.0474  0.9701
 9619TIP3   OH250271   4.739   0.922   0.294 -0.2184  0.2634 -0.0214
 9619TIP3    H150272   4.654   0.877   0.289 -0.6198  1.1046 -1.8865
 9619TIP3    H250273   4.802   0.860   0.258 -0.4255  0.4327 -0.6849
 9620TIP3   OH250274   2.753   2.816  11.529  0.0210 -0.1016 -0.3236
 9620TIP3    H150275   2.664   2.783  11.546  0.3612 -0.4201  1.0045
 9620TIP3    H250276   2.744   2.870  11.451 -0.8498 -2.1180 -1.7112
 9621TIP3   OH250277   6.242   4.709   3.014 -0.1277  0.5830  0.2121
 9621TIP3    H150278   6.250   4.770   2.940 -1.3045  1.5446  0.8462
 9621TIP3    H250279   6.161   4.661   2.996  0.2955 -0.1410  0.2040
 9622TIP3   OH250280   3.716   2.312   5.708  0.3781  0.0462  0.3552
 9622TIP3    H150281   3.810   2.333   5.711  1.0938 -2.6663 -0.2097
 9622TIP3    H250282   3.700   2.285   5.618 -0.1719 -2.3914  1.1049
 9623TIP3   OH250283   2.162   3.344   4.105 -0.0329  0.0249 -0.9566
 9623TIP3    H150284   2.208   3.406   4.162 -0.5958  1.1667 -1.7123
 9623TIP3    H250285   2.072   3.346   4.135  0.1875 -1.5303 -0.0696
 9624TIP3   OH250286   1.618   6.268  13.501 -0.2107 -0.0965  0.7342
 9624TIP3    H150287   1.702   6.226  13.486 -0.2405  0.4100 -0.9886
 9624TIP3    H250288   1.579   6.218  13.573  0.8890 -1.2994  0.5262
 9625TIP3   OH250289   4.601   6.084  14.507 -0.4553  0.0010  0.0433
 9625TIP3    H150290   4.662   6.092  14.580 -0.4539 -0.7831  0.1286
 9625TIP3    H250291   4.642   6.022  14.447 -0.4358  0.6749 -0.6564
 9626TIP3   OH250292   6.739   1.393  12.272  0.1726 -0.5822 -0.0726
 9626TIP3    H150293   6.659   1.429  12.309  0.8746  0.7175  0.2588
 9626TIP3    H250294   6.725   1.298  12.271 -1.7248 -0.3363 -0.9332
 9627TIP3   OH250295   1.278   5.916  14.619 -0.0733  0.1492  0.2428
 9627TIP3    H150296   1.214   5.986  14.606  0.4693  0.6437  0.1796
 9627TIP3    H250297   1.253   5.876  14.702 -1.2991 -0.5818 -0.4475
 9628TIP3   OH250298   2.485   2.754  12.522  0.0449  0.0581 -0.1043
 9628TIP3    H150299   2.438   2.785  12.600  1.1699  2.4249 -0.2726
 9628TIP3    H250300   2.417   2.744  12.456 -0.6029  0.5465  0.4660
 9629TIP3   OH250301   1.149   3.716  14.370 -0.3255  0.3151 -0.0390
 9629TIP3    H150302   1.096   3.654  14.421  1.0956 -1.0942 -0.2119
 9629TIP3    H250303   1.177   3.666  14.294  1.1873  1.0430  0.0093
 9630TIP3   OH250304   5.843   3.112   3.268 -0.0285  0.1489 -0.1810
 9630TIP3    H150305   5.871   3.157   3.348  0.2672  0.2043 -0.3145
 9630TIP3    H250306   5.874   3.169   3.197 -1.0252  0.5311 -0.3216
 9631TIP3   OH250307   5.465   2.360  13.498 -0.0955  0.2035 -0.1585
 9631TIP3    H150308   5.373   2.375  13.521 -0.2032  0.0830 -0.5153
 9631TIP3    H250309   5.492   2.442  13.456  0.2915  0.6817  0.9698
 9632TIP3   OH250310   0.491   1.149  14.302 -0.2792  0.3868  0.0285
 9632TIP3    H150311   0.468   1.235  14.267 -0.3896  0.2937 -0.1317
 9632TIP3    H250312   0.414   1.094  14.285 -0.2360  0.2739  0.1921
 9633TIP3   OH250313   5.371   0.341   1.341  0.1244  0.1414  0.2161
 9633TIP3    H150314   5.346   0.249   1.347 -0.6105  0.4186  1.8803
 9633TIP3    H250315   5.435   0.343   1.270 -1.2997 -1.3078 -1.2037
 9634TIP3   OH250316   6.162   0.924   3.064  0.3833 -0.0438 -0.0542
 9634TIP3    H150317   6.068   0.904   3.065  0.4169 -0.2921 -0.8598
 9634TIP3    H250318   6.182   0.952   3.153 -0.0536 -1.8068  0.6212
 9635TIP3   OH250319   5.220   5.290  16.999 -0.2799 -0.1298  0.2544
 9635TIP3    H150320   5.238   5.231  17.072 -0.9157 -0.4252  0.1816
 9635TIP3    H250321   5.127   5.308  17.005 -0.1641  0.5685  0.0471
 9636TIP3   OH250322   4.966   2.212  15.054 -0.1596  0.2395 -0.4933
 9636TIP3    H150323   4.964   2.280  15.121  1.4596  0.7186 -0.8912
 9636TIP3    H250324   4.943   2.132  15.101  0.3379  0.6663  0.5042
 9637TIP3   OH250325   1.376   5.036   6.069  0.9358  0.7753  0.0426
 9637TIP3    H150326   1.305   5.100   6.075  0.3673  0.1547  0.0938
 9637TIP3    H250327   1.426   5.062   5.992  1.5880  2.1456  0.9058
 9638TIP3   OH250328   3.569   0.418  13.242  0.4728  0.8116  0.6023
 9638TIP3    H150329   3.649   0.471  13.247  1.7460 -0.8748 -0.6019
 9638TIP3    H250330   3.569   0.367  13.323  3.2939 -2.5937 -1.2566
 9639TIP3   OH250331   4.166   3.628   4.539  0.7354 -0.2315  0.2586
 9639TIP3    H150332   4.154   3.659   4.628 -0.6356 -0.9086  0.3325
 9639TIP3    H250333   4.078   3.604   4.509  1.3818 -1.5970 -0.6771
 9640TIP3   OH250334   5.419   1.338   3.968 -0.4091  0.2291  0.1258
 9640TIP3    H150335   5.389   1.357   4.057  0.9286  0.9818  0.4496
 9640TIP3    H250336   5.375   1.256   3.945  2.0833 -2.1978  3.0031
 9641TIP3   OH250337   0.643   2.571  12.870  0.0810  0.2189  0.1409
 9641TIP3    H150338   0.618   2.483  12.842  0.4374  0.0393  0.3717
 9641TIP3    H250339   0.634   2.625  12.792  0.9777 -0.2513 -0.3030
 9642TIP3   OH250340   5.882   0.284   3.493  0.0527 -0.7209  0.0234
 9642TIP3    H150341   5.954   0.330   3.451 -0.2936 -1.1687 -1.0987
 9642TIP3    H250342   5.915   0.195   3.506 -0.1316 -0.8040 -0.0721
 9643TIP3   OH250343   2.286   3.225   2.829 -0.4352  0.1166 -0.4569
 9643TIP3    H150344   2.208   3.173   2.845 -0.6431 -0.2205 -2.3377
 9643TIP3    H250345   2.255   3.316   2.831 -0.4928  0.0894  0.6174
 9644TIP3   OH250346   1.165   1.140  16.669 -0.5011  0.1674  0.2514
 9644TIP3    H150347   1.084   1.108  16.707  0.0638  0.7283  2.0204
 9644TIP3    H250348   1.217   1.171  16.744  1.3920 -0.2622 -0.8075
 9645TIP3   OH250349   3.661   5.421   2.120 -0.0444 -0.1997 -0.5044
 9645TIP3    H150350   3.722   5.472   2.067 -0.9255 -0.6515 -2.0103
 9645TIP3    H250351   3.693   5.431   2.210  0.9332  1.3840 -0.9900
 9646TIP3   OH250352   6.350   1.470   3.782  0.6041 -0.5911  0.5865
 9646TIP3    H150353   6.403   1.397   3.748  1.0440 -1.2612  2.5921
 9646TIP3    H250354   6.413   1.526   3.826 -0.0400 -0.1021  0.8888
 9647TIP3   OH250355   3.220   0.015  13.271  0.1672  0.0556 -0.8775
 9647TIP3    H150356   3.311   0.040  13.257 -0.3109  0.8040 -3.2153
 9647TIP3    H250357   3.209  -0.065  13.219 -0.3903 -0.2970 -0.2290
 9648TIP3   OH250358   5.450   0.923   1.555  0.0513 -0.0088 -0.2146
 9648TIP3    H150359   5.545   0.933   1.550  0.0535  0.2861  0.3759
 9648TIP3    H250360   5.419   0.947   1.468  0.5107 -0.0128 -0.3822
 9649TIP3   OH250361   1.751   4.167   1.561 -0.8494  0.3907 -0.2900
 9649TIP3    H150362   1.696   4.246   1.560  0.3338  1.2426 -0.6972
 9649TIP3    H250363   1.814   4.182   1.632  0.9388  0.9721 -1.9021
 9650TIP3   OH250364   1.444   5.031   4.909  0.4484  0.4289  1.0490
 9650TIP3    H150365   1.472   5.123   4.909 -0.2710  0.6693  2.1096
 9650TIP3    H250366   1.421   5.013   5.000  0.1069 -0.6598  0.7626
 9651TIP3   OH250367   5.041   0.103   1.216 -0.3221  0.1225  0.3541
 9651TIP3    H150368   5.008   0.085   1.304 -1.0965  1.8542  0.4449
 9651TIP3    H250369   5.136   0.092   1.224 -0.3058  0.9725  1.5986
 9652TIP3   OH250370   0.263   4.418   0.073 -0.0835 -0.0967  0.0217
 9652TIP3    H150371   0.259   4.426   0.168 -1.6562  1.0323 -0.0936
 9652TIP3    H250372   0.347   4.375   0.055 -0.4038 -1.6319  1.9685
 9653TIP3   OH250373   4.240   0.865   1.309  0.3048 -0.0551  0.1299
 9653TIP3    H150374   4.250   0.956   1.336 -0.6424 -0.0241  0.3922
 9653TIP3    H250375   4.146   0.847   1.316  0.6121 -1.4249  1.2571
 9654TIP3   OH250376   0.512   0.454  13.504  0.3205 -0.4225 -0.3010
 9654TIP3    H150377   0.527   0.534  13.455 -1.5038 -0.1233 -0.4538
 9654TIP3    H250378   0.458   0.481  13.578 -1.9060 -1.7096 -1.3433
 9655TIP3   OH250379   4.368   4.720  12.589  0.5922  0.4782  0.7146
 9655TIP3    H150380   4.413   4.688  12.511  5.0095  3.3191  1.6973
 9655TIP3    H250381   4.406   4.669  12.661  1.3259  2.0301  1.4713
 9656TIP3   OH250382   2.787   1.427  14.374  0.4272 -0.3542  0.1514
 9656TIP3    H150383   2.860   1.453  14.318  1.7285 -1.5986  1.1900
 9656TIP3    H250384   2.772   1.335  14.353  0.1350 -0.5067  1.0012
 9657TIP3   OH250385   5.861   4.577   4.496 -0.5254  1.1996  0.0893
 9657TIP3    H150386   5.956   4.581   4.487 -0.4588  0.1083  0.1505
 9657TIP3    H250387   5.829   4.649   4.442  0.2969  0.9765 -0.7271
 9658TIP3   OH250388   2.011   2.838  10.759 -0.3451 -0.0164  0.4548
 9658TIP3    H150389   2.063   2.759  10.776  0.2065 -0.0268 -1.1465
 9658TIP3    H250390   1.923   2.806  10.742 -0.8390 -0.0343  2.6857
 9659TIP3   OH250391   2.717   2.748   1.314  0.3910  0.3021 -0.7759
 9659TIP3    H150392   2.709   2.653   1.307 -0.9715  0.3269  0.1720
 9659TIP3    H250393   2.641   2.776   1.364  1.5365  1.7502  0.2754
 9660TIP3   OH250394   2.956   0.125   5.004 -0.3717 -0.8815 -0.6823
 9660TIP3    H150395   2.965   0.158   4.915  0.0206  1.5721  0.2070
 9660TIP3    H250396   2.863   0.132   5.023 -0.0681  1.7693  0.1717
 9661TIP3   OH250397   0.750   6.446  16.786 -0.5658 -0.1713  0.4379
 9661TIP3    H150398   0.714   6.493  16.711 -0.7748 -0.6466  0.2369
 9661TIP3    H250399   0.800   6.374  16.748  1.4767  1.0517  0.6733
 9662TIP3   OH250400   5.060   3.512  12.472 -0.0469  0.2415 -0.0550
 9662TIP3    H150401   5.039   3.600  12.439 -0.3254  0.6615  1.2086
 9662TIP3    H250402   5.106   3.527  12.554 -0.4920 -0.7953  0.4046
 9663TIP3   OH250403   2.322   6.228  15.430  0.3930  0.8111  0.3558
 9663TIP3    H150404   2.414   6.222  15.455  0.0475  0.1145  1.5130
 9663TIP3    H250405   2.298   6.140  15.403  0.0928  1.0219 -0.0884
 9664TIP3   OH250406   2.564   2.655   1.720 -0.1101  0.1206 -0.0770
 9664TIP3    H150407   2.535   2.564   1.710 -1.6495  0.6246 -0.5072
 9664TIP3    H250408   2.660   2.651   1.711 -0.2226 -1.3419 -0.9839
 9665TIP3   OH250409   6.100   3.528   2.667  0.4426  0.7037 -0.3887
 9665TIP3    H150410   6.176   3.509   2.721 -0.6010  1.8168  1.5594
 9665TIP3    H250411   6.038   3.457   2.687  0.5063  0.4418 -1.0859
 9666TIP3   OH250412   4.234   4.923   2.837 -0.0777 -0.2029  0.6510
 9666TIP3    H150413   4.166   4.972   2.792 -0.6061 -0.5930  1.0168
 9666TIP3    H250414   4.314   4.941   2.787 -0.2228  1.1451  0.8655
 9667TIP3   OH250415   4.518   3.249   1.838  0.1336 -0.0199 -0.3539
 9667TIP3    H150416   4.450   3.309   1.808 -0.0497  0.0256  0.1545
 9667TIP3    H250417   4.599   3.299   1.830 -0.0071  0.2613 -0.0304
 9668TIP3   OH250418   0.158   4.987  13.864 -0.2290 -0.5642  0.4932
 9668TIP3    H150419   0.088   4.962  13.805  0.4507  0.0077 -0.6038
 9668TIP3    H250420   0.122   5.061  13.914 -0.3375 -0.1082 -0.2412
 9669TIP3   OH250421   0.537   6.436  16.217  0.2792 -0.7038  0.4226
 9669TIP3    H150422   0.526   6.419  16.123  1.8303 -0.9794  0.2757
 9669TIP3    H250423   0.458   6.485  16.241  0.8655  1.3405 -1.5008
 9670TIP3   OH250424   1.163   2.147  13.797  0.1686  0.3432 -0.6945
 9670TIP3    H150425   1.070   2.160  13.778  0.0864  0.3423 -0.3035
 9670TIP3    H250426   1.206   2.153  13.711 -0.2850 -0.4629 -0.9938
 9671TIP3   OH250427   0.717   0.441   5.238  0.0969 -0.0688  0.4785
 9671TIP3    H150428   0.696   0.405   5.152 -1.3844 -1.5232  1.3835
 9671TIP3    H250429   0.802   0.482   5.227 -1.3440  2.4844 -2.4337
 9672TIP3   OH250430   3.861   4.577  15.010  0.3162  0.1628  0.1594
 9672TIP3    H150431   3.864   4.673  15.009 -3.4073  0.4692  1.4899
 9672TIP3    H250432   3.796   4.554  14.944  0.5854 -1.4269  0.3989
 9673TIP3   OH250433   0.458   2.129   2.302  0.6342 -0.1340  0.2542
 9673TIP3    H150434   0.427   2.209   2.343  0.4836  0.2674 -0.6141
 9673TIP3    H250435   0.378   2.081   2.281  0.5541  0.7672 -1.7211
 9674TIP3   OH250436   4.605   6.053  11.864 -0.4151  0.8118 -0.0447
 9674TIP3    H150437   4.609   5.995  11.788  0.4206  2.8996 -1.6817
 9674TIP3    H250438   4.518   6.036  11.902 -0.3378 -1.1904 -0.6676
 9675TIP3   OH250439   3.247   0.794   4.928 -0.3776 -0.3386 -0.0666
 9675TIP3    H150440   3.162   0.751   4.919  0.4263 -1.9186 -0.4126
 9675TIP3    H250441   3.309   0.723   4.942  0.9126  0.7771  0.1454
 9676TIP3   OH250442   1.594   3.003  15.968 -0.1202  0.1080  0.3561
 9676TIP3    H150443   1.615   3.085  16.013  4.3075  1.2201 -2.9928
 9676TIP3    H250444   1.521   3.026  15.910  2.8387  2.9747 -2.7105
 9677TIP3   OH250445   5.286   1.236  11.500 -0.2340 -0.1252 -0.6660
 9677TIP3    H150446   5.200   1.276  11.485 -0.3701  0.5338  1.5016
 9677TIP3    H250447   5.324   1.288  11.571  1.2638 -1.4356 -0.4615
 9678TIP3   OH250448   4.343   0.365   0.177 -0.4726 -0.3945  0.1015
 9678TIP3    H150449   4.418   0.306   0.187 -1.9344 -2.3847 -0.1000
 9678TIP3    H250450   4.343   0.418   0.257  1.7051  0.4076 -0.3572
 9679TIP3   OH250451   0.627   6.085  11.992 -0.2091  0.1209  0.4448
 9679TIP3    H150452   0.710   6.103  11.948 -0.5699 -0.2900 -0.4461
 9679TIP3    H250453   0.594   6.170  12.020  0.3464  0.3180  0.4952
 9680TIP3   OH250454   1.147   3.513  14.788  0.1931 -0.2416 -0.8299
 9680TIP3    H150455   1.155   3.546  14.878 -0.6098  0.4171 -0.9835
 9680TIP3    H250456   1.199   3.433  14.787  0.2948 -0.2047  0.1938
 9681TIP3   OH250457   6.237   1.930   0.540 -0.1499  0.0287 -0.3531
 9681TIP3    H150458   6.260   1.923   0.447  0.1802  1.2168 -0.3797
 9681TIP3    H250459   6.184   2.010   0.546 -0.0183  0.0596  0.5008
 9682TIP3   OH250460   1.100   6.531  11.705 -0.8025 -0.6802 -0.1926
 9682TIP3    H150461   1.103   6.626  11.717 -3.9033 -0.2994 -1.4947
 9682TIP3    H250462   1.124   6.517  11.613  0.4945 -1.2910  0.2108
 9683TIP3   OH250463   1.554   6.202  16.546  0.0260  0.0542 -0.5128
 9683TIP3    H150464   1.555   6.137  16.616 -0.3604 -1.3064 -1.7203
 9683TIP3    H250465   1.601   6.277  16.582  1.5831 -1.3545  0.5190
 9684TIP3   OH250466   3.186   2.355  13.015  0.1185  0.2172 -0.5474
 9684TIP3    H150467   3.266   2.399  13.044 -1.2916  1.9621  0.9272
 9684TIP3    H250468   3.133   2.348  13.093 -0.2374 -3.2202 -0.9659
 9685TIP3   OH250469   4.429   3.867  11.943  0.8177  0.1038 -0.1552
 9685TIP3    H150470   4.511   3.892  11.986  1.3299 -0.1167 -0.9682
 9685TIP3    H250471   4.404   3.785  11.986  1.9031 -0.6975 -0.9732
 9686TIP3   OH250472   1.359   1.392   0.080  0.1946  0.0395 -0.0764
 9686TIP3    H150473   1.275   1.437   0.080  0.0016 -0.2980 -1.1518
 9686TIP3    H250474   1.337   1.299   0.074  0.6326 -0.0737  0.0475
 9687TIP3   OH250475   4.901   4.573   5.840 -0.6840 -0.2951  0.2490
 9687TIP3    H150476   4.942   4.531   5.916  0.0771  1.4144  0.8292
 9687TIP3    H250477   4.966   4.636   5.809 -2.3991  1.7640  0.5585
 9688TIP3   OH250478   5.418   2.796  11.844  0.5273 -0.2073  0.1188
 9688TIP3    H150479   5.375   2.851  11.778 -1.8295 -0.2912  1.4720
 9688TIP3    H250480   5.469   2.858  11.896  0.7118  0.1693 -0.5037
 9689TIP3   OH250481   2.707   5.931   3.900  0.7955  0.4969 -1.0884
 9689TIP3    H150482   2.656   5.993   3.951  2.4869  2.2500 -1.4208
 9689TIP3    H250483   2.664   5.847   3.915 -1.5860  1.7171 -0.6515
 9690TIP3   OH250484   1.429   5.322   0.647  0.9671 -0.1374  0.1371
 9690TIP3    H150485   1.416   5.254   0.714  2.2371  0.5192  1.1058
 9690TIP3    H250486   1.354   5.379   0.656  1.4944  0.3840  1.6007
 9691TIP3   OH250487   3.931   2.811  13.531  0.0584 -0.4321 -0.0071
 9691TIP3    H150488   3.988   2.766  13.593  0.2547 -0.8744 -0.5096
 9691TIP3    H250489   3.875   2.743  13.494  0.8244 -0.3999 -1.2799
 9692TIP3   OH250490   5.614   1.930  15.254 -0.0066  0.0383 -0.0727
 9692TIP3    H150491   5.574   1.845  15.234  0.0975 -0.0525  0.1069
 9692TIP3    H250492   5.689   1.909  15.309 -1.2054  0.3796  1.7960
 9693TIP3   OH250493   0.826   3.897   3.429 -0.0695 -0.5758  0.6865
 9693TIP3    H150494   0.869   3.822   3.389  0.9622  0.1594  0.3677
 9693TIP3    H250495   0.744   3.906   3.380  1.2003  0.3573 -1.4254
 9694TIP3   OH250496   5.966   1.122   5.271  0.2802 -0.6810 -0.5020
 9694TIP3    H150497   5.949   1.074   5.352 -0.3307 -1.3486 -1.0088
 9694TIP3    H250498   6.048   1.169   5.287  0.7007 -1.6172  0.1283
 9695TIP3   OH250499   2.274   3.493  17.247  0.0076 -0.2906 -0.4873
 9695TIP3    H150500   2.290   3.572  17.299 -1.7054  0.4964 -1.0923
 9695TIP3    H250501   2.337   3.429  17.281  1.8863  1.4809 -0.3812
 9696TIP3   OH250502   6.250   0.507  16.317  0.2914  0.1291  0.2908
 9696TIP3    H150503   6.320   0.523  16.380  1.1102 -0.5563 -0.4059
 9696TIP3    H250504   6.210   0.592  16.302  1.2614  0.6123  0.3879
 9697TIP3   OH250505   5.440   0.607  15.601 -0.3559 -0.2879  0.2479
 9697TIP3    H150506   5.474   0.677  15.545 -0.9800 -1.3571 -1.5715
 9697TIP3    H250507   5.511   0.588  15.662 -0.2079  1.9744  0.8803
 9698TIP3   OH250508   5.183   4.899   3.362 -0.2650  0.2883 -0.7358
 9698TIP3    H150509   5.114   4.963   3.347 -0.1221  0.0502 -2.6456
 9698TIP3    H250510   5.245   4.944   3.419 -1.4350  0.8936  0.1039
 9699TIP3   OH250511   6.627   4.577   6.367  0.0656 -0.2764 -0.1773
 9699TIP3    H150512   6.676   4.619   6.438  0.2473  0.5579 -0.7767
 9699TIP3    H250513   6.539   4.565   6.403 -0.1252  1.0659 -0.1177
 9700TIP3   OH250514   1.070   5.805  12.883  0.3663 -0.0377  0.1718
 9700TIP3    H150515   1.161   5.785  12.906  0.6686  1.1400  0.0351
 9700TIP3    H250516   1.049   5.885  12.932 -0.6989 -0.4560  0.4405
 9701TIP3   OH250517   2.584   3.579  12.952 -0.4174  0.4722  0.1140
 9701TIP3    H150518   2.660   3.586  12.894 -2.2092 -1.2492 -2.6608
 9701TIP3    H250519   2.616   3.528  13.027  1.9748  2.7869  0.8193
 9702TIP3   OH250520   4.262   1.284   3.051  0.6165 -0.1489  0.5662
 9702TIP3    H150521   4.343   1.333   3.066  1.5656 -2.0896  2.1855
 9702TIP3    H250522   4.274   1.245   2.964  1.0548  0.2311  0.4482
 9703TIP3   OH250523   3.414   3.737  15.544  0.0655  0.1049  0.6085
 9703TIP3    H150524   3.369   3.771  15.622  1.0451 -0.9700  1.6811
 9703TIP3    H250525   3.344   3.699  15.490 -0.2762 -2.7916  2.8739
 9704TIP3   OH250526   3.312   1.469   4.851 -0.0397  0.6426  0.3443
 9704TIP3    H150527   3.234   1.486   4.903 -2.0335  2.4985 -2.8698
 9704TIP3    H250528   3.378   1.529   4.886 -0.7670  0.6716  1.7097
 9705TIP3   OH250529   3.865   5.576   2.622 -0.1564 -0.0897  0.8143
 9705TIP3    H150530   3.951   5.584   2.662 -0.6447 -0.8265  2.0617
 9705TIP3    H250531   3.811   5.641   2.668 -0.6739 -0.8116  1.2434
 9706TIP3   OH250532   4.349   2.588   4.870  0.0188 -0.2270 -0.7298
 9706TIP3    H150533   4.397   2.656   4.918  0.4439 -0.0821 -1.3451
 9706TIP3    H250534   4.398   2.508   4.888 -1.5507 -0.7539  1.5348
 9707TIP3   OH250535   6.459   6.250   0.251 -0.4608 -0.1918  0.2767
 9707TIP3    H150536   6.462   6.292   0.166  1.1141  0.3272  0.5670
 9707TIP3    H250537   6.533   6.190   0.252 -0.5534 -0.3214  1.2146
 9708TIP3   OH250538   6.578   4.391  15.975 -0.0267 -0.1262 -0.2246
 9708TIP3    H150539   6.598   4.404  15.883  0.7617  0.9437  0.0700
 9708TIP3    H250540   6.532   4.471  16.002  0.0546 -0.2714  0.3764
 9709TIP3   OH250541   4.858   4.026  16.337  0.2128 -0.5819  0.0993
 9709TIP3    H150542   4.785   4.053  16.282  1.4771  1.5445 -0.6991
 9709TIP3    H250543   4.820   4.016  16.424 -0.9088  1.4836 -0.0741
 9710TIP3   OH250544   3.412   0.148   0.808  0.0360 -0.2745  0.1053
 9710TIP3    H150545   3.413   0.230   0.760 -1.7740  0.2476  0.8750
 9710TIP3    H250546   3.432   0.081   0.743 -0.1731  0.6142 -0.8856
 9711TIP3   OH250547   3.834   1.619  16.552  0.0377 -0.0895 -0.3092
 9711TIP3    H150548   3.785   1.593  16.630  1.4130 -0.9047  0.3189
 9711TIP3    H250549   3.864   1.536  16.514 -1.7384  0.1765 -2.5256
 9712TIP3   OH250550   0.253   1.481   2.171 -0.1589 -0.1669 -0.6253
 9712TIP3    H150551   0.293   1.455   2.087 -1.6514  0.5683 -1.6014
 9712TIP3    H250552   0.285   1.570   2.185  1.4969 -0.8900  0.5290
 9713TIP3   OH250553   5.390   1.028  11.859 -0.0969 -0.5916 -0.4547
 9713TIP3    H150554   5.347   0.947  11.834 -1.8228  0.4832 -1.1617
 9713TIP3    H250555   5.481   1.016  11.833 -0.2474 -2.4084 -0.2422
 9714TIP3   OH250556   3.037   1.922  15.766  0.2500 -0.5300 -0.4634
 9714TIP3    H150557   2.971   1.854  15.780  0.1469 -0.4768 -0.6840
 9714TIP3    H250558   3.100   1.908  15.836  0.0588 -0.6472 -0.3120
 9715TIP3   OH250559   1.238   5.193  13.813 -0.0748  0.0856 -0.3145
 9715TIP3    H150560   1.292   5.139  13.872 -2.1646 -0.5002  1.1716
 9715TIP3    H250561   1.209   5.266  13.867 -1.2659  0.0481 -0.8784
 9716TIP3   OH250562   2.420   4.571   4.027  0.0840  0.4915 -0.3968
 9716TIP3    H150563   2.396   4.495   3.974  2.0340  0.3156 -1.1271
 9716TIP3    H250564   2.376   4.558   4.110 -0.3110 -0.9917 -0.8146
 9717TIP3   OH250565   2.688   5.221  15.015 -0.9568  0.4137  0.1465
 9717TIP3    H150566   2.719   5.130  15.013 -3.2167 -0.4268  0.4219
 9717TIP3    H250567   2.767   5.273  15.028  0.4973 -1.4520 -0.7779
 9718TIP3   OH250568   1.875   1.155  17.158 -0.1034  0.7020  0.4663
 9718TIP3    H150569   1.903   1.167  17.249  0.8016 -1.0070  0.4540
 9718TIP3    H250570   1.806   1.089  17.162  0.8380 -0.3633 -0.1772
 9719TIP3   OH250571   0.368   2.287   1.918  0.1285 -0.1157  0.2676
 9719TIP3    H150572   0.337   2.286   2.008 -0.4637 -2.2346  0.0949
 9719TIP3    H250573   0.305   2.343   1.872 -0.2077  0.0878  0.9566
 9720TIP3   OH250574   1.790   3.537  16.750  0.2030  0.2131 -0.0674
 9720TIP3    H150575   1.702   3.509  16.776  0.8168 -1.1242  0.6690
 9720TIP3    H250576   1.775   3.598  16.678 -1.2682 -1.2188 -1.0373
 9721TIP3   OH250577   2.925   1.256  16.494 -0.4794  0.2474  0.0778
 9721TIP3    H150578   3.003   1.289  16.539 -0.3371  1.1761 -0.8118
 9721TIP3    H250579   2.960   1.206  16.420 -0.6685  2.5771 -1.6883
 9722TIP3   OH250580   2.270   0.117  12.340 -0.2609 -0.2607  0.1909
 9722TIP3    H150581   2.278   0.069  12.423  0.3658  1.2709  1.0630
 9722TIP3    H250582   2.203   0.070  12.291  1.5069 -3.0403  0.2541
 9723TIP3   OH250583   2.857   4.607  12.775 -0.1052  0.0405 -0.3125
 9723TIP3    H150584   2.854   4.512  12.786 -0.2106  0.1201  0.3416
 9723TIP3    H250585   2.930   4.636  12.830  1.4067  0.1074 -2.2397
 9724TIP3   OH250586   1.027   3.418   6.086  0.6167 -0.5171 -0.7337
 9724TIP3    H150587   1.052   3.502   6.126  0.9051 -1.4857  1.2633
 9724TIP3    H250588   0.987   3.369   6.158 -1.3709 -1.3867 -2.3320
 9725TIP3   OH250589   2.184   2.713   0.205  0.0709  0.9008 -0.1496
 9725TIP3    H150590   2.203   2.721   0.112 -0.2966  0.4753 -0.2621
 9725TIP3    H250591   2.226   2.632   0.232 -1.6658 -0.1427 -0.4381
 9726TIP3   OH250592   2.364   0.868   3.196  0.4837  0.5754 -0.4822
 9726TIP3    H150593   2.373   0.905   3.108  1.4080  0.9394 -0.2442
 9726TIP3    H250594   2.332   0.941   3.249 -0.4131  0.2630 -0.5764
 9727TIP3   OH250595   5.955   4.439   3.714  0.0371 -0.7842  0.5944
 9727TIP3    H150596   5.895   4.366   3.727 -1.1731  0.1025  0.1659
 9727TIP3    H250597   5.981   4.465   3.802 -2.0769  0.3125  0.9441
 9728TIP3   OH250598   0.921   0.147   2.936  0.0745  0.4679  0.2026
 9728TIP3    H150599   0.900   0.214   2.872  0.9042  0.1078 -0.4626
 9728TIP3    H250600   1.001   0.178   2.978  1.2307 -0.6994 -1.0385
 9729TIP3   OH250601   3.810   2.589  14.711 -0.1879  0.1546 -0.0335
 9729TIP3    H150602   3.825   2.624  14.623 -2.3736 -2.2021 -1.4679
 9729TIP3    H250603   3.766   2.660  14.757 -0.4673  0.8835 -1.3578
 9730TIP3   OH250604   0.373   6.525  13.963 -0.6004  0.5369 -0.0785
 9730TIP3    H150605   0.287   6.483  13.963 -0.0121 -0.7596  1.0353
 9730TIP3    H250606   0.435   6.452  13.960  0.4855  1.4508 -1.1417
 9731TIP3   OH250607   1.240   5.770   3.012 -0.2609  0.1269  0.6463
 9731TIP3    H150608   1.175   5.840   3.003  1.2119  1.8943  2.7336
 9731TIP3    H250609   1.324   5.815   3.008  0.7994 -1.8130  0.1690
 9732TIP3   OH250610   6.176   0.770   4.886  0.3933  0.0144 -0.1919
 9732TIP3    H150611   6.158   0.709   4.957  3.2051 -0.7201  0.0460
 9732TIP3    H250612   6.101   0.828   4.884 -0.8317 -1.3622  1.8543
 9733TIP3   OH250613   1.568   3.625  11.968  0.2652 -0.2696  0.1947
 9733TIP3    H150614   1.569   3.691  11.899  0.6088 -0.3428  0.1305
 9733TIP3    H250615   1.646   3.644  12.021 -0.1509 -0.0307  0.7326
 9734TIP3   OH250616   0.793   0.580   4.045 -0.5021  0.2621  0.6601
 9734TIP3    H150617   0.857   0.509   4.038 -0.0381  0.7220  0.1139
 9734TIP3    H250618   0.730   0.562   3.975 -0.2473  0.5183  0.3612
 9735TIP3   OH250619   4.077   2.757  14.748  0.0740 -0.0060  0.3860
 9735TIP3    H150620   4.071   2.828  14.684  0.6253 -0.6238 -0.3581
 9735TIP3    H250621   4.047   2.679  14.700  1.0496 -0.5821  0.6937
 9736TIP3   OH250622   4.214   3.522  16.740  0.0827  0.1405  0.3602
 9736TIP3    H150623   4.290   3.514  16.797  0.3117 -2.7275 -0.2122
 9736TIP3    H250624   4.155   3.452  16.767 -0.3389 -0.5398 -2.0818
 9737TIP3   OH250625   2.034   3.788  13.023 -0.8591 -0.2755 -0.8910
 9737TIP3    H150626   2.104   3.729  13.050  0.1685  0.5307 -1.7185
 9737TIP3    H250627   1.964   3.730  12.993 -0.9804 -1.1206  0.8963
 9738TIP3   OH250628   1.042   0.826  14.772  0.4852  0.3332 -0.2517
 9738TIP3    H150629   1.136   0.837  14.785 -0.0294  2.0293  3.3152
 9738TIP3    H250630   1.015   0.768  14.844 -1.2086 -0.1296 -1.2094
 9739TIP3   OH250631   1.197   2.231  13.258 -0.4663  0.0262 -0.4364
 9739TIP3    H150632   1.240   2.300  13.207 -1.6485  0.9097 -0.2910
 9739TIP3    H250633   1.110   2.223  13.219  0.0691 -2.3278 -1.2816
 9740TIP3   OH250634   6.113   2.782   1.247 -0.2358 -0.5302  0.1561
 9740TIP3    H150635   6.176   2.724   1.289 -0.7375 -0.8842  0.4394
 9740TIP3    H250636   6.036   2.779   1.304 -0.7014 -0.5327 -0.4633
 9741TIP3   OH250637   4.893   3.276   0.307 -0.1682 -0.0828  0.6500
 9741TIP3    H150638   4.825   3.309   0.248  0.6913  2.0239  0.7394
 9741TIP3    H250639   4.936   3.207   0.257 -0.1899  0.8794 -0.7770
 9742TIP3   OH250640   2.727   1.943  13.559  0.4258 -0.6666 -0.4671
 9742TIP3    H150641   2.646   1.960  13.608  1.6491  0.6155  1.2268
 9742TIP3    H250642   2.701   1.948  13.467 -1.3062  0.3133  0.0383
 9743TIP3   OH250643   0.637   1.805   4.606 -0.6560  0.5736  0.2694
 9743TIP3    H150644   0.728   1.819   4.633 -0.3761  0.3596 -0.5471
 9743TIP3    H250645   0.619   1.713   4.624 -0.3773  0.3578 -0.5108
 9744TIP3   OH250646   2.099   1.388  16.404  0.1815  0.3492 -0.5854
 9744TIP3    H150647   2.116   1.296  16.424 -0.3159  0.7192  1.7382
 9744TIP3    H250648   2.035   1.386  16.333 -1.8833 -1.1669  1.2204
 9745TIP3   OH250649   5.403   5.269  14.747 -0.1169  0.3037  0.4192
 9745TIP3    H150650   5.451   5.351  14.744 -0.8268  0.7278  0.6404
 9745TIP3    H250651   5.316   5.290  14.714 -0.1299 -0.4891 -0.1087
 9746TIP3   OH250652   1.306   0.525   2.471  0.5865 -0.2999  0.4792
 9746TIP3    H150653   1.393   0.520   2.512  0.6992  1.7146  0.5746
 9746TIP3    H250654   1.310   0.604   2.418 -0.8816 -0.7353 -0.3230
 9747TIP3   OH250655   4.315   4.238  16.045  0.2459  0.0354 -0.5525
 9747TIP3    H150656   4.303   4.209  16.136  0.0543  0.7196 -0.3512
 9747TIP3    H250657   4.407   4.264  16.040 -0.1335  1.6145 -0.0503
 9748TIP3   OH250658   2.748   5.910  12.234  0.0585 -0.0518  0.3062
 9748TIP3    H150659   2.758   5.853  12.158 -1.5240 -1.8147  1.3533
 9748TIP3    H250660   2.708   5.855  12.301  1.9180  1.2648  2.6745
 9749TIP3   OH250661   4.945   3.127  12.467  0.0936 -1.0657 -0.4276
 9749TIP3    H150662   4.874   3.064  12.476 -0.7440 -0.3064 -1.4283
 9749TIP3    H250663   4.928   3.171  12.383  1.1603 -0.1483 -0.1944
 9750TIP3   OH250664   1.801   2.723   1.183 -0.2827  0.2644 -0.2207
 9750TIP3    H150665   1.759   2.787   1.240 -4.4499 -0.4687 -2.1023
 9750TIP3    H250666   1.745   2.645   1.189  1.5637 -1.3221 -2.0452
 9751TIP3   OH250667   3.706   3.812  12.431  0.0547 -0.1374  0.5618
 9751TIP3    H150668   3.661   3.764  12.500 -0.6540 -0.3191 -0.0192
 9751TIP3    H250669   3.670   3.900  12.434  1.2710  0.3568  1.5491
 9752TIP3   OH250670   2.952   6.691   2.039 -0.4172 -0.3022  0.6175
 9752TIP3    H150671   2.996   6.776   2.042 -2.4252  0.8141 -0.0544
 9752TIP3    H250672   2.907   6.685   2.124  1.3269 -1.6619  1.5067
 9753TIP3   OH250673   5.698   5.015   2.917  0.6598  0.5560 -0.2459
 9753TIP3    H150674   5.717   4.922   2.914  2.4868  0.7592  2.0133
 9753TIP3    H250675   5.729   5.049   2.833  0.4859 -0.7521 -0.8614
 9754TIP3   OH250676   2.684   0.113  13.518  0.9062  0.4084  0.8239
 9754TIP3    H150677   2.750   0.176  13.548  1.3448  0.5498 -0.3985
 9754TIP3    H250678   2.652   0.072  13.599  2.4721  0.3510  1.4529
 9755TIP3   OH250679   0.583   2.542   1.139  0.1909 -0.2790 -0.1874
 9755TIP3    H150680   0.493   2.514   1.157  0.1927  0.3647  0.8913
 9755TIP3    H250681   0.582   2.569   1.047 -0.6942 -0.3800 -0.2107
 9756TIP3   OH250682   5.542   6.211  14.033  0.2267  0.2635  0.5038
 9756TIP3    H150683   5.529   6.273  13.961 -1.0830 -0.4760  0.0568
 9756TIP3    H250684   5.508   6.128  13.999  1.0744 -0.4886  1.4185
 9757TIP3   OH250685   2.565   5.803  15.798  0.2832  0.2566 -0.5624
 9757TIP3    H150686   2.557   5.764  15.711 -0.3738  0.7426 -0.7292
 9757TIP3    H250687   2.493   5.866  15.803  0.3751  0.3112  0.2949
 9758TIP3   OH250688   1.729   3.900  16.912 -0.1168  0.1131  0.2641
 9758TIP3    H150689   1.699   3.811  16.934  1.2997 -0.7739 -1.1667
 9758TIP3    H250690   1.805   3.913  16.968 -0.0077  0.2090  0.0928
 9759TIP3   OH250691   2.848   6.098  16.939  0.1895  0.0198  0.7615
 9759TIP3    H150692   2.854   6.046  16.859  1.4720 -1.0458  1.5315
 9759TIP3    H250693   2.876   6.186  16.912 -0.2180 -0.1175 -0.1411
 9760TIP3   OH250694   2.754   5.767  12.970  0.9115 -0.1722  0.5343
 9760TIP3    H150695   2.794   5.853  12.960 -3.3464  1.8711 -1.9901
 9760TIP3    H250696   2.696   5.775  13.046 -1.2958  0.1723 -1.0854
 9761TIP3   OH250697   1.350   4.779  11.975  0.0339 -0.2324  0.2070
 9761TIP3    H150698   1.431   4.733  11.997 -0.4183 -0.6659  0.9671
 9761TIP3    H250699   1.280   4.725  12.011 -0.4405  1.8635  2.7315
 9762TIP3   OH250700   6.500   0.565  16.961 -0.6079 -0.4381  0.5261
 9762TIP3    H150701   6.515   0.477  16.927  1.0546 -0.4090  1.0786
 9762TIP3    H250702   6.573   0.580  17.022 -1.4544  0.9067  1.2656
 9763TIP3   OH250703   6.771   2.846   2.359 -0.7369  0.4455  0.3686
 9763TIP3    H150704   6.823   2.924   2.340 -0.6101  0.3883  0.4815
 9763TIP3    H250705   6.715   2.836   2.282 -1.3094  1.0974  0.6849
 9764TIP3   OH250706   1.970   4.408   1.525 -0.2628  0.7573 -0.0992
 9764TIP3    H150707   1.908   4.405   1.452 -0.4092  0.6694  0.0268
 9764TIP3    H250708   2.014   4.493   1.516  2.0519 -0.5042 -2.1901
 9765TIP3   OH250709   2.346   4.262   0.367 -0.2362 -0.0264  0.0285
 9765TIP3    H150710   2.371   4.198   0.435 -1.4594 -2.9730 -2.1036
 9765TIP3    H250711   2.254   4.280   0.383 -0.1139  0.5685  0.0942
 9766TIP3   OH250712   5.091   5.843  14.127  0.1976  0.2843  0.0808
 9766TIP3    H150713   5.012   5.801  14.092  0.4382  0.6212 -0.9105
 9766TIP3    H250714   5.163   5.807  14.075  0.4232  1.7524 -0.6952
 9767TIP3   OH250715   5.433   4.637  14.167 -0.2863 -0.5094  0.2516
 9767TIP3    H150716   5.371   4.606  14.233 -1.7507  2.6540  0.5513
 9767TIP3    H250717   5.452   4.727  14.192 -1.8915  1.3369 -4.1922
 9768TIP3   OH250718   1.453   0.047   6.329 -0.8544  0.0580 -0.0407
 9768TIP3    H150719   1.459   0.142   6.323  0.3728 -0.0291 -0.4377
 9768TIP3    H250720   1.432   0.030   6.421 -1.1281  0.7070  0.0253
 9769TIP3   OH250721   0.875   0.014  16.210  0.0515  0.0621 -0.1638
 9769TIP3    H150722   0.946   0.038  16.151  0.0625 -0.8417 -0.5392
 9769TIP3    H250723   0.836  -0.064  16.169 -1.0955  0.4914  0.0818
 9770TIP3   OH250724   0.595   6.312  10.528  0.2404  0.7672  0.3686
 9770TIP3    H150725   0.611   6.271  10.613  2.1834  1.7396  0.5072
 9770TIP3    H250726   0.682   6.334  10.495 -0.3262 -0.9592 -2.5910
 9771TIP3   OH250727   4.295   3.729  14.346 -0.0669 -0.7342  0.1709
 9771TIP3    H150728   4.240   3.785  14.401 -0.5440 -2.6730  1.7812
 9771TIP3    H250729   4.285   3.765  14.258 -0.5765  1.4929  1.0620
 9772TIP3   OH250730   1.036   3.051   4.452 -0.8314  0.6672 -0.1928
 9772TIP3    H150731   1.127   3.078   4.460 -0.8141  1.0999 -1.6360
 9772TIP3    H250732   0.987   3.133   4.443 -1.2610  0.4008 -0.3384
 9773TIP3   OH250733   1.208   5.471   0.669 -0.3942 -0.1529  0.3329
 9773TIP3    H150734   1.180   5.516   0.749 -1.7721 -3.0064  1.5738
 9773TIP3    H250735   1.134   5.482   0.609 -1.4167 -1.9852  1.1987
 9774TIP3   OH250736   3.394   5.121   0.018 -0.2744  0.0611  0.2898
 9774TIP3    H150737   3.464   5.172  -0.023 -0.2437  1.1963  1.7019
 9774TIP3    H250738   3.378   5.050  -0.044  1.7192  0.0902 -0.3410
 9775TIP3   OH250739   2.707   6.635  14.983 -0.4433 -0.1436  0.6503
 9775TIP3    H150740   2.754   6.570  15.035  0.9627 -0.2650 -0.6746
 9775TIP3    H250741   2.651   6.584  14.925  1.6574 -0.3888 -1.3509
 9776TIP3   OH250742   4.938   5.469  17.127  0.3939 -0.1439 -0.0913
 9776TIP3    H150743   4.908   5.405  17.063  2.0463 -1.3463  0.2756
 9776TIP3    H250744   4.950   5.419  17.207 -2.2278  1.4301  1.4503
 9777TIP3   OH250745   0.242   1.542   1.103 -0.2755  0.2816  0.3065
 9777TIP3    H150746   0.183   1.550   1.029 -1.2330 -1.2042  0.8770
 9777TIP3    H250747   0.273   1.632   1.118 -2.3479  1.1118 -0.0274
 9778TIP3   OH250748   3.293   6.711   4.589  0.2873 -0.1048 -0.1683
 9778TIP3    H150749   3.356   6.657   4.637  0.3966 -1.5857 -1.8980
 9778TIP3    H250750   3.336   6.729   4.505 -0.8140  0.4888 -0.6226
 9779TIP3   OH250751   5.067   4.281   5.475 -0.0859  0.7958 -0.1858
 9779TIP3    H150752   5.037   4.199   5.515  0.2677 -0.0760 -1.6618
 9779TIP3    H250753   4.992   4.340   5.483 -0.9806 -0.2424 -0.6899
 9780TIP3   OH250754   0.368   4.728   4.659 -0.0418 -0.3940 -0.2151
 9780TIP3    H150755   0.303   4.670   4.621 -0.9365 -0.7086  1.6416
 9780TIP3    H250756   0.377   4.697   4.750  1.8794  0.3437 -0.1057
 9781TIP3   OH250757   1.348   4.741  15.534  0.2477 -0.1174  0.5049
 9781TIP3    H150758   1.431   4.692  15.530 -0.5205 -1.4116 -1.3165
 9781TIP3    H250759   1.353   4.791  15.615  2.7122 -0.3319  0.5615
 9782TIP3   OH250760   2.327   1.080   2.197  0.3256 -0.1270  0.4302
 9782TIP3    H150761   2.275   1.139   2.252  0.0448 -0.4522  0.5155
 9782TIP3    H250762   2.366   1.137   2.131 -0.1333  0.1226  0.3716
 9783TIP3   OH250763   1.264   1.278   0.992 -0.1006 -0.5264  0.2417
 9783TIP3    H150764   1.173   1.257   0.974 -0.6096  0.9983  0.8345
 9783TIP3    H250765   1.265   1.302   1.085  1.2394 -2.0942  0.6873
 9784TIP3   OH250766   0.416   1.958  16.865  0.2275  1.0535 -0.2862
 9784TIP3    H150767   0.369   1.924  16.790  1.6561  0.0128 -0.7559
 9784TIP3    H250768   0.414   2.053  16.854 -0.5142  0.9588 -1.0414
 9785TIP3   OH250769   0.141   5.618  11.039 -0.3213 -0.4163  0.2570
 9785TIP3    H150770   0.127   5.575  10.954  0.6098  1.4263 -0.8846
 9785TIP3    H250771   0.234   5.640  11.039 -0.1626 -0.9514  2.0772
 9786TIP3   OH250772   4.923   2.460   1.931  0.1000  0.3759  0.4996
 9786TIP3    H150773   4.956   2.387   1.879  1.9085  1.2277  0.3445
 9786TIP3    H250774   4.863   2.420   1.994 -1.1030 -0.8495 -1.3237
 9787TIP3   OH250775   3.460   2.600  12.011  0.2259 -0.3256  0.3421
 9787TIP3    H150776   3.491   2.670  11.954  2.6938 -1.0002  0.7696
 9787TIP3    H250777   3.365   2.600  11.998  0.3502  1.7845 -1.1343
 9788TIP3   OH250778   4.559   3.097  14.708  0.3934 -0.3162  0.0883
 9788TIP3    H150779   4.567   3.065  14.618 -1.3268 -0.3944 -0.0659
 9788TIP3    H250780   4.627   3.051  14.756  0.8317 -0.8621 -1.0192
 9789TIP3   OH250781   6.209   2.974  14.439 -0.2491  0.5029  0.0299
 9789TIP3    H150782   6.201   2.927  14.521  0.1736  1.1519  0.4552
 9789TIP3    H250783   6.175   3.062  14.458 -0.9137  0.4115 -0.7088
 9790TIP3   OH250784   6.167   5.070   0.289  0.2275  0.1332 -0.0832
 9790TIP3    H150785   6.139   4.979   0.296  1.3146 -0.2459 -0.5051
 9790TIP3    H250786   6.138   5.110   0.371 -3.1818  0.2603 -1.1948
 9791TIP3   OH250787   5.361   2.906  16.487 -0.4091  0.4193 -0.4620
 9791TIP3    H150788   5.291   2.942  16.433 -0.2597  1.6111  0.1199
 9791TIP3    H250789   5.322   2.893  16.573 -1.0890 -2.8982 -1.1036
 9792TIP3   OH250790   2.175   5.036  14.813  0.6945 -0.0270 -0.2422
 9792TIP3    H150791   2.120   5.111  14.835  0.3345 -0.0806 -0.9252
 9792TIP3    H250792   2.121   4.960  14.834  1.8437 -0.1839  2.5351
 9793TIP3   OH250793   4.056   3.596   2.523  0.8194  0.1337  0.1470
 9793TIP3    H150794   4.100   3.590   2.438  1.9318  0.0969  0.7024
 9793TIP3    H250795   4.121   3.564   2.585 -0.2087 -0.4708  0.9503
 9794TIP3   OH250796   6.042   2.144   0.492  0.2228  0.0633 -0.1509
 9794TIP3    H150797   6.025   2.190   0.410  1.1151  0.2090 -0.2726
 9794TIP3    H250798   6.024   2.209   0.560  0.0866  0.1434 -0.2630
 9795TIP3   OH250799   0.273   5.986  12.635  0.1316 -0.0615 -0.1752
 9795TIP3    H150800   0.178   5.990  12.648  0.1112 -0.5685 -0.1468
 9795TIP3    H250801   0.285   5.995  12.541  0.0660  0.1058 -0.1694
 9796TIP3   OH250802   6.529   5.327  11.390  0.5680 -0.1860  0.6512
 9796TIP3    H150803   6.588   5.254  11.372  0.2557 -0.1541 -0.5866
 9796TIP3    H250804   6.575   5.404  11.357  0.0571 -0.0945  0.1477
 9797TIP3   OH250805   1.767   3.519   5.255 -0.8745 -0.2826  0.7328
 9797TIP3    H150806   1.748   3.607   5.287 -0.0604 -0.8412  2.9059
 9797TIP3    H250807   1.750   3.461   5.329 -2.4053 -2.1484 -0.9381
 9798TIP3   OH250808   4.966   2.626  11.291 -0.2909 -0.8823 -0.1908
 9798TIP3    H150809   4.934   2.716  11.284  0.5294 -0.5554  0.0688
 9798TIP3    H250810   4.888   2.572  11.283 -1.1060 -0.0808  1.6577
 9799TIP3   OH250811   0.549   6.259   0.767 -0.1541  0.1937  0.3479
 9799TIP3    H150812   0.596   6.253   0.850  0.0103 -2.3454  0.1385
 9799TIP3    H250813   0.568   6.348   0.735  2.7557  0.0213  1.2797
 9800TIP3   OH250814   0.211   6.378   4.412 -0.7522  0.0299  0.1407
 9800TIP3    H150815   0.151   6.398   4.484 -0.4571 -0.8679  0.6625
 9800TIP3    H250816   0.203   6.452   4.352 -1.5626  0.4397  0.7337
 9801TIP3   OH250817   1.105   3.476   4.130  0.0827  0.1504  0.1257
 9801TIP3    H150818   1.158   3.443   4.202  0.6753 -0.6670 -0.6696
 9801TIP3    H250819   1.097   3.403   4.069  0.5573  1.1384 -1.1842
 9802TIP3   OH250820   3.464   3.486   5.948  0.2580 -0.1218 -0.1708
 9802TIP3    H150821   3.557   3.505   5.934  0.4461 -0.8406  0.0510
 9802TIP3    H250822   3.454   3.394   5.924  0.0955 -0.7281  1.9683
 9803TIP3   OH250823   4.588   2.108  14.210  0.1178 -0.7115 -0.2299
 9803TIP3    H150824   4.629   2.049  14.147 -0.4614 -0.8373 -0.4970
 9803TIP3    H250825   4.661   2.141  14.262  0.7071  0.0070 -1.4654
 9804TIP3   OH250826   2.165   2.642   1.764 -0.1185 -0.7517  0.0914
 9804TIP3    H150827   2.181   2.597   1.680  0.8946  0.7907 -0.5854
 9804TIP3    H250828   2.216   2.722   1.758 -1.2162  0.1094  1.6029
 9805TIP3   OH250829   5.847   1.448  11.577 -0.0617  0.3806  0.2886
 9805TIP3    H150830   5.843   1.410  11.664 -1.4223  1.2549  0.6588
 9805TIP3    H250831   5.770   1.412  11.532  0.1940  0.5395 -0.2817
 9806TIP3   OH250832   4.793   0.487  13.115 -0.7631 -0.4289 -0.3954
 9806TIP3    H150833   4.709   0.457  13.081 -0.4916  1.3517 -2.9051
 9806TIP3    H250834   4.792   0.582  13.103  0.6723 -0.0437  1.8381
 9807TIP3   OH250835   2.735   0.359  16.704  0.7184  0.1526  0.3791
 9807TIP3    H150836   2.739   0.406  16.621 -0.6446 -0.5659 -0.1225
 9807TIP3    H250837   2.710   0.427  16.768  2.0977  0.7719  0.2916
 9808TIP3   OH250838   6.527   5.997  16.766  0.2140  0.3892 -0.6211
 9808TIP3    H150839   6.467   5.991  16.840  0.8319 -1.8187 -0.2211
 9808TIP3    H250840   6.609   6.029  16.804  0.2813  0.0918 -0.5152
 9809TIP3   OH250841   1.667   1.569   3.318 -0.2029 -0.1510  0.4180
 9809TIP3    H150842   1.640   1.509   3.388  1.5343  0.6286  1.8392
 9809TIP3    H250843   1.759   1.546   3.302 -0.5920 -0.4323 -1.8004
 9810TIP3   OH250844   0.140   0.421   0.892  0.1183  0.3646  0.8563
 9810TIP3    H150845   0.107   0.350   0.838  0.0336  0.4318  0.8185
 9810TIP3    H250846   0.062   0.473   0.914  0.3150  1.0616 -0.0148
 9811TIP3   OH250847   0.204   4.797  12.055  0.3359  0.1609  0.0808
 9811TIP3    H150848   0.155   4.746  11.990 -0.7510 -0.1436  1.1144
 9811TIP3    H250849   0.271   4.842  12.004 -0.5233 -0.0295 -1.2699
 9812TIP3   OH250850   4.189   6.340  14.462 -0.3553 -0.3093 -0.2263
 9812TIP3    H150851   4.129   6.327  14.535 -1.1606  2.6298 -0.2179
 9812TIP3    H250852   4.135   6.326  14.384  0.0944 -1.8497 -0.2910
 9813TIP3   OH250853   3.054   3.177  13.946  0.9318 -0.0218 -0.1921
 9813TIP3    H150854   3.048   3.114  14.018 -1.5950 -0.0222 -0.3249
 9813TIP3    H250855   3.096   3.254  13.986  0.8241 -0.5096  0.9084
 9814TIP3   OH250856   6.011   4.582   1.939 -0.2149 -0.0593  0.0960
 9814TIP3    H150857   6.045   4.520   1.874 -0.3609 -0.9106  0.8085
 9814TIP3    H250858   6.060   4.663   1.923  0.2362 -0.4594 -0.6235
 9815TIP3   OH250859   3.809   1.472  12.633  0.8191 -0.1176 -0.0365
 9815TIP3    H150860   3.795   1.389  12.679 -1.9791  0.5866  0.6015
 9815TIP3    H250861   3.839   1.447  12.546  2.5346 -1.6335  0.9106
 9816TIP3   OH250862   2.670   5.253   1.677 -0.3939 -0.2125 -0.0494
 9816TIP3    H150863   2.703   5.322   1.620 -0.2550  0.3130  0.6417
 9816TIP3    H250864   2.589   5.288   1.713 -0.1951 -0.3001  0.5002
 9817TIP3   OH250865   5.954   4.270  10.634  0.4074  0.1547  0.1539
 9817TIP3    H150866   6.030   4.328  10.645 -0.0023  0.5370  1.1045
 9817TIP3    H250867   5.885   4.327  10.601  0.9383 -0.5083 -2.3076
 9818TIP3   OH250868   6.596   2.390   3.842  0.5582 -0.1351  0.0381
 9818TIP3    H150869   6.589   2.321   3.776  0.0703 -0.9126  0.8849
 9818TIP3    H250870   6.524   2.373   3.902  2.1148 -0.6236  1.8417
 9819TIP3   OH250871   0.297   2.706   2.176 -0.3787  0.0848 -0.1176
 9819TIP3    H150872   0.391   2.688   2.171 -0.3377  0.0673  0.5719
 9819TIP3    H250873   0.273   2.683   2.266 -0.8403  1.0397  0.0151
 9820TIP3   OH250874   2.927   5.748  17.204  0.0157  0.2543 -0.1056
 9820TIP3    H150875   2.953   5.826  17.253  1.9253 -0.7387  0.5732
 9820TIP3    H250876   2.879   5.782  17.129 -1.2372  1.9339  1.3493
 9821TIP3   OH250877   1.190   3.196   2.800 -0.0633  0.2120 -0.4552
 9821TIP3    H150878   1.222   3.190   2.890 -0.3717  1.1622 -0.2699
 9821TIP3    H250879   1.095   3.199   2.808 -0.0930  0.2945 -0.8080
 9822TIP3   OH250880   1.458   5.113  10.948 -0.5991 -0.5466 -0.5059
 9822TIP3    H150881   1.376   5.066  10.931 -1.9813  0.8506  1.8027
 9822TIP3    H250882   1.435   5.206  10.939  0.9711 -0.1420 -0.6543
 9823TIP3   OH250883   4.653   1.036   5.136  0.2600 -0.1753  0.1458
 9823TIP3    H150884   4.609   0.970   5.188  0.5549 -0.5180 -0.0373
 9823TIP3    H250885   4.743   1.038   5.169  0.4521 -0.4017 -0.3458
 9824TIP3   OH250886   2.601   5.834  17.178 -0.2259 -0.0832  0.2200
 9824TIP3    H150887   2.558   5.902  17.230  1.0792  0.9189  0.0433
 9824TIP3    H250888   2.559   5.752  17.206 -0.0933  0.4946  2.2808
 9825TIP3   OH250889   6.442   6.090  10.959 -0.0912  0.5008  0.1881
 9825TIP3    H150890   6.369   6.031  10.940 -0.1412  0.2987  0.9912
 9825TIP3    H250891   6.442   6.152  10.886 -0.4180 -0.1209 -0.3490
 9826TIP3   OH250892   6.758   3.595   3.947  0.0724 -0.0612  0.0512
 9826TIP3    H150893   6.815   3.671   3.938 -0.4020  0.2399 -0.4982
 9826TIP3    H250894   6.762   3.572   4.040 -0.5283  1.2402  0.4202
 9827TIP3   OH250895   1.917   5.043   4.731 -0.0406 -0.4629  0.0720
 9827TIP3    H150896   1.914   4.989   4.652 -0.7646  2.5904 -2.1906
 9827TIP3    H250897   2.004   5.083   4.730 -0.3540  0.2388  0.3451
 9828TIP3   OH250898   5.087   1.925  12.678  0.3107  0.7634 -0.2930
 9828TIP3    H150899   5.088   1.840  12.724  1.5122  1.2147  0.5509
 9828TIP3    H250900   5.094   1.902  12.585 -1.3113 -0.1307 -0.2439
 9829TIP3   OH250901   0.666   6.101   5.027 -0.1017  0.4170  0.5162
 9829TIP3    H150902   0.679   6.159   5.101  1.4812  0.8135 -0.0378
 9829TIP3    H250903   0.626   6.156   4.960  0.9209  0.7703  0.1733
 9830TIP3   OH250904   2.422   0.333  16.347  0.7686 -0.2631 -0.8451
 9830TIP3    H150905   2.378   0.277  16.410 -0.8176  1.6465 -0.1645
 9830TIP3    H250906   2.359   0.345  16.277  1.3978  0.0194 -1.3787
 9831TIP3   OH250907   3.098   3.984  14.239  0.1999 -0.1801 -0.3201
 9831TIP3    H150908   3.055   4.013  14.319 -0.3667 -1.2204 -0.2320
 9831TIP3    H250909   3.138   3.900  14.262 -0.9467 -1.0599 -1.4099
 9832TIP3   OH250910   0.944   1.517   4.082  0.1044  0.7746  0.0561
 9832TIP3    H150911   1.026   1.562   4.063  0.1530  0.1862 -1.2668
 9832TIP3    H250912   0.949   1.496   4.175  2.3657 -1.0026 -0.3698
 9833TIP3   OH250913   0.683   3.814  14.590  0.5522  0.0951 -0.3519
 9833TIP3    H150914   0.619   3.822  14.660  0.0692 -2.5052 -0.3934
 9833TIP3    H250915   0.758   3.770  14.630  0.8885 -0.0584 -1.1278
 9834TIP3   OH250916   0.355   4.473  12.326 -0.1942 -0.2543  0.1511
 9834TIP3    H150917   0.409   4.422  12.386 -0.5816  0.6292  1.2991
 9834TIP3    H250918   0.347   4.559  12.368 -1.1136  0.1564 -0.8003
 9835TIP3   OH250919   1.590   4.096   2.451  0.1975  0.4390  0.3252
 9835TIP3    H150920   1.613   4.062   2.364 -0.7334  0.2251  0.1466
 9835TIP3    H250921   1.539   4.025   2.491 -0.5341  1.0558  0.5144
 9836TIP3   OH250922   3.092   0.690   0.137 -0.0226 -0.3222  0.7849
 9836TIP3    H150923   3.150   0.619   0.108 -0.8689 -0.7294  0.0404
 9836TIP3    H250924   3.143   0.770   0.120  0.0062 -0.6219 -0.7326
 9837TIP3   OH250925   1.163   4.389   1.672  0.2771  0.0532 -0.6962
 9837TIP3    H150926   1.193   4.476   1.644 -0.0766  0.2754 -0.4019
 9837TIP3    H250927   1.206   4.375   1.756 -1.3414  0.9054  0.3338
 9838TIP3   OH250928   5.757   4.931  11.954  0.1084 -0.3696 -0.6692
 9838TIP3    H150929   5.679   4.923  11.899  0.5201  0.9085 -1.4770
 9838TIP3    H250930   5.725   4.971  12.035 -0.3673 -1.5611 -0.2393
 9839TIP3   OH250931   3.901   2.761  16.754 -0.4952  0.1218 -0.0275
 9839TIP3    H150932   3.946   2.797  16.678  1.9492 -0.2729  1.1285
 9839TIP3    H250933   3.968   2.758  16.823 -2.5089  0.1846  2.0770
 9840TIP3   OH250934   1.313   2.411  16.110 -0.1872  0.4616 -0.8250
 9840TIP3    H150935   1.323   2.359  16.190 -0.7324  0.4213 -0.7758
 9840TIP3    H250936   1.219   2.427  16.104 -0.0298  1.4239 -0.8566
 9841TIP3   OH250937   4.888   4.493   3.190  0.0181  0.4722  0.4617
 9841TIP3    H150938   4.883   4.514   3.283 -1.3959  1.9306  0.0872
 9841TIP3    H250939   4.834   4.415   3.180 -1.0084  1.1526  0.6436
 9842TIP3   OH250940   0.888   2.688   3.360 -0.4923 -0.2502  0.3054
 9842TIP3    H150941   0.820   2.651   3.303  0.1921 -1.9477  0.5122
 9842TIP3    H250942   0.938   2.611   3.389  0.6945  0.8322  1.2095
 9843TIP3   OH250943   1.331   1.029   4.430 -0.3820  0.4035 -0.1369
 9843TIP3    H150944   1.379   0.999   4.354  0.6591  1.2704  0.1685
 9843TIP3    H250945   1.239   1.017   4.406 -0.0552 -0.1743 -1.1676
 9844TIP3   OH250946   2.099   0.052  16.012 -0.1400 -0.6104  0.1793
 9844TIP3    H150947   2.171   0.072  15.952  0.2499 -1.0657  0.4871
 9844TIP3    H250948   2.058  -0.026  15.976  0.4223 -1.1933  0.7792
 9845TIP3   OH250949   5.363   6.261   2.448 -0.2392 -0.3763 -0.8291
 9845TIP3    H150950   5.277   6.233   2.418  0.0346 -0.1531 -1.8553
 9845TIP3    H250951   5.366   6.355   2.430  0.7559 -0.6381 -2.1791
 9846TIP3   OH250952   3.531   2.472   2.105  0.8608 -0.4154 -0.1211
 9846TIP3    H150953   3.509   2.503   2.193  0.9415  1.4785 -0.7111
 9846TIP3    H250954   3.500   2.542   2.047  1.7396 -1.1413 -1.5207
 9847TIP3   OH250955   5.691   6.398  15.109  0.2151  0.1441 -0.8232
 9847TIP3    H150956   5.775   6.394  15.156 -0.0405 -0.3709 -0.4031
 9847TIP3    H250957   5.655   6.310  15.118 -1.2743  0.8572  0.6831
 9848TIP3   OH250958   0.359   3.362   0.291 -0.3656 -0.0971  0.4580
 9848TIP3    H150959   0.373   3.288   0.232  0.3382  0.1232  0.3370
 9848TIP3    H250960   0.275   3.344   0.334 -0.7323 -0.4238 -0.3707
 9849TIP3   OH250961   6.193   3.811   0.400 -0.2432 -0.0354  0.3036
 9849TIP3    H150962   6.251   3.870   0.447  0.0503 -1.1134  1.3556
 9849TIP3    H250963   6.174   3.741   0.463 -0.1010 -1.3630 -1.0644
 9850TIP3   OH250964   4.717   3.971  16.579  0.1349  0.4445  0.1159
 9850TIP3    H150965   4.634   4.018  16.566  1.4321  2.2826 -2.5055
 9850TIP3    H250966   4.699   3.882  16.550 -0.8984  0.8618 -0.5839
 9851TIP3   OH250967   5.567   2.498   4.624 -0.0910 -0.2846 -0.6578
 9851TIP3    H150968   5.493   2.486   4.564 -0.2910  1.2350 -0.7527
 9851TIP3    H250969   5.536   2.562   4.688  1.4321  1.1395 -1.2595
 9852TIP3   OH250970   4.143   3.006  14.612 -0.4193 -0.4331 -0.4568
 9852TIP3    H150971   4.180   3.082  14.658 -0.4328 -0.5191 -0.3043
 9852TIP3    H250972   4.077   3.043  14.554 -1.0093 -0.4121  0.2222
 9853TIP3   OH250973   6.582   0.750  13.804 -0.7721  0.2929  0.0086
 9853TIP3    H150974   6.520   0.680  13.826 -1.8295  1.9363  2.7370
 9853TIP3    H250975   6.638   0.711  13.738 -1.6073 -2.9994  1.0173
 9854TIP3   OH250976   0.612   4.063  13.865 -0.2257  0.1613 -0.0395
 9854TIP3    H150977   0.565   4.008  13.927 -1.5831  1.3094 -0.0075
 9854TIP3    H250978   0.703   4.060  13.894 -0.4439 -1.2604  0.5337
 9855TIP3   OH250979   3.955   3.600   4.291  0.0416  0.0864 -0.2974
 9855TIP3    H150980   3.871   3.645   4.284  0.1132  0.3200  0.3134
 9855TIP3    H250981   3.951   3.532   4.224 -0.6332  0.0997 -0.2766
 9856TIP3   OH250982   2.864   6.198   4.685 -0.7335 -0.2426  0.4478
 9856TIP3    H150983   2.858   6.103   4.688  1.3212 -0.5465 -1.7664
 9856TIP3    H250984   2.783   6.227   4.643 -0.7492 -1.1592 -0.1700
 9857TIP3   OH250985   1.908   6.512   0.741  0.3934  0.4433  0.1845
 9857TIP3    H150986   1.928   6.422   0.766  0.6382  0.7295  1.0543
 9857TIP3    H250987   1.960   6.565   0.800 -1.6447  1.1917  1.4079
 9858TIP3   OH250988   5.263   2.508   3.253 -0.0539  0.0748 -0.2074
 9858TIP3    H150989   5.180   2.539   3.288 -0.8101 -1.3742 -0.6491
 9858TIP3    H250990   5.268   2.417   3.280  2.1689  0.5159  1.1985
 9859TIP3   OH250991   2.302   4.558   0.504  0.4565 -0.0639  0.1052
 9859TIP3    H150992   2.267   4.645   0.482 -0.4305 -0.1369  1.1330
 9859TIP3    H250993   2.228   4.499   0.493  1.3428 -0.8984 -1.6973
 9860TIP3   OH250994   5.488   2.392   1.682  0.4435  0.4315  0.0441
 9860TIP3    H150995   5.432   2.384   1.759 -0.4281  0.4543 -0.5755
 9860TIP3    H250996   5.498   2.303   1.650 -1.9022  0.6853 -1.6774
 9861TIP3   OH250997   5.277   5.450  13.118 -0.7668  0.8083  0.1373
 9861TIP3    H150998   5.327   5.531  13.104 -0.0105  0.1209 -1.3971
 9861TIP3    H250999   5.233   5.463  13.202  1.1000  1.9113  1.0049
 9862TIP3   OH251000   1.069   6.527   1.535 -0.0194  0.6124  0.6503
 9862TIP3    H151001   1.113   6.610   1.517 -1.3759  0.9048 -1.8958
 9862TIP3    H251002   0.976   6.550   1.538 -0.6377 -0.9905 -2.3575
 9863TIP3   OH251003   3.073   3.220   4.167  0.2544 -0.7849  0.9679
 9863TIP3    H151004   3.013   3.232   4.093  0.6740  2.4517  1.0065
 9863TIP3    H251005   3.135   3.153   4.138 -0.5719 -0.7743 -0.9505
 9864TIP3   OH251006   4.005   0.401   0.137  0.5103  0.0310 -0.1185
 9864TIP3    H151007   4.027   0.487   0.100 -2.0601  1.1460  0.7376
 9864TIP3    H251008   3.928   0.372   0.087  0.7357 -1.3260  0.2738
 9865TIP3   OH251009   0.860   3.328   5.189 -0.8873  0.0847 -0.4295
 9865TIP3    H151010   0.868   3.399   5.253 -0.0563 -0.2943 -0.1064
 9865TIP3    H251011   0.821   3.256   5.238 -1.0581  0.0812 -0.5718
 9866TIP3   OH251012   4.437   0.185   6.117 -0.0464 -0.4732  0.0517
 9866TIP3    H151013   4.352   0.165   6.077  0.1447 -0.5612 -0.3075
 9866TIP3    H251014   4.420   0.263   6.170 -0.8380 -1.6306  1.5886
 9867TIP3   OH251015   4.472   4.580  14.747 -0.1428  0.4333 -0.0453
 9867TIP3    H151016   4.392   4.631  14.748 -0.7771 -0.5400  0.0938
 9867TIP3    H251017   4.527   4.623  14.682 -2.0455 -0.7347 -2.5969
 9868TIP3   OH251018   4.774   5.296  11.957  0.1480 -0.1052 -0.0633
 9868TIP3    H151019   4.756   5.205  11.934 -0.2678 -0.1797  0.5030
 9868TIP3    H251020   4.755   5.300  12.051 -2.2356  1.1213 -0.5261
 9869TIP3   OH251021   3.877   1.025  15.485 -0.2977 -0.6645 -0.1870
 9869TIP3    H151022   3.882   0.974  15.404 -1.7139  0.8237 -1.3089
 9869TIP3    H251023   3.932   1.102  15.468  3.0105 -2.3081  2.0241
 9870TIP3   OH251024   3.767   2.059  15.756 -0.4178 -0.2281  0.5337
 9870TIP3    H151025   3.818   1.979  15.747 -2.4112 -1.6811  1.2875
 9870TIP3    H251026   3.718   2.066  15.674  2.2719  2.2480 -1.0448
 9871TIP3   OH251027   3.182   4.013  12.996 -0.0474  0.9302  0.3138
 9871TIP3    H151028   3.114   4.058  12.946 -1.2531  1.6095  2.4534
 9871TIP3    H251029   3.151   3.924  13.006  0.1975  0.7922 -0.1204
 9872TIP3   OH251030   4.047   4.918  13.931  0.0675 -0.6887 -0.4860
 9872TIP3    H151031   3.999   4.992  13.895 -1.6288 -1.3425  0.3147
 9872TIP3    H251032   4.124   4.958  13.973 -0.2612  0.4944 -0.9624
 9873TIP3   OH251033   6.148   0.164   2.814  0.1189 -0.3790  0.2323
 9873TIP3    H151034   6.062   0.201   2.795 -0.5036 -1.9899 -0.2674
 9873TIP3    H251035   6.133   0.070   2.818  1.5360 -0.5906  1.9269
 9874TIP3   OH251036   6.521   0.602   5.686  0.1017 -0.0819 -0.0589
 9874TIP3    H151037   6.525   0.697   5.678 -0.6273 -0.0129  0.3276
 9874TIP3    H251038   6.482   0.573   5.603  1.1638 -0.1287 -0.5584
 9875TIP3   OH251039   1.224   6.700  15.456 -0.3422 -0.2176 -0.2288
 9875TIP3    H151040   1.250   6.609  15.444  1.3369  0.2744 -0.6471
 9875TIP3    H251041   1.286   6.750  15.402  0.0451  1.2792  1.4961
 9876TIP3   OH251042   5.902   3.191  14.859  0.5709 -0.2142 -0.2119
 9876TIP3    H151043   5.964   3.192  14.786 -0.3034  1.8461 -1.0160
 9876TIP3    H251044   5.953   3.224  14.934  1.0350 -0.7615 -0.2808
 9877TIP3   OH251045   0.994   6.732   3.588 -0.5156  0.3651 -0.3353
 9877TIP3    H151046   0.978   6.647   3.547 -2.2084  0.4583  0.0800
 9877TIP3    H251047   1.075   6.763   3.547 -0.0644 -1.2738 -0.7548
 9878TIP3   OH251048   2.999   6.706  15.437 -0.1536  0.0818  0.1138
 9878TIP3    H151049   3.095   6.699  15.442  0.1016  2.3957 -0.4892
 9878TIP3    H251050   2.978   6.669  15.351  0.2922  0.2870 -0.0905
 9879TIP3   OH251051   0.864   2.382   0.983  0.5465 -0.5898 -0.3511
 9879TIP3    H151052   0.818   2.352   1.061 -0.9715  2.1546 -0.0405
 9879TIP3    H251053   0.807   2.357   0.910  0.0420  0.1128 -0.2150
 9880TIP3   OH251054   4.597   3.589  11.489 -0.6786 -0.5228  0.4343
 9880TIP3    H151055   4.599   3.658  11.422 -0.8309 -0.8201  0.1225
 9880TIP3    H251056   4.519   3.537  11.468 -0.3474 -1.0237  0.4355
 9881TIP3   OH251057   2.262   6.244   3.501  0.5447 -0.4283 -0.4666
 9881TIP3    H151058   2.222   6.212   3.420  0.0352  1.5836 -1.0692
 9881TIP3    H251059   2.216   6.197   3.571 -2.0638  0.8318 -1.1840
 9882TIP3   OH251060   0.103   6.429   2.853  0.0798  0.8236 -0.4759
 9882TIP3    H151061   0.023   6.401   2.899  1.2143  1.1367  1.8502
 9882TIP3    H251062   0.095   6.391   2.766 -2.6709  0.9755 -0.3719
 9883TIP3   OH251063   0.727   1.702  16.044 -0.1620  0.0466 -0.0038
 9883TIP3    H151064   0.703   1.614  16.014  1.1800 -0.2241 -0.3592
 9883TIP3    H251065   0.798   1.728  15.986 -1.9530  2.2997 -1.3661
 9884TIP3   OH251066   0.181   0.075   1.870 -0.4802 -0.1033  0.6827
 9884TIP3    H151067   0.092   0.051   1.897 -0.2716 -1.2478  0.4000
 9884TIP3    H251068   0.169   0.146   1.807 -1.1715  0.0478  0.9787
 9885TIP3   OH251069   1.969   5.682  12.649 -0.2039  0.1914 -0.4427
 9885TIP3    H151070   2.019   5.730  12.583 -0.1459 -0.3876 -0.8293
 9885TIP3    H251071   2.032   5.619  12.685 -1.0978 -1.8649 -2.2757
 9886TIP3   OH251072   1.018   2.442   5.793  0.1006  0.0650  0.6926
 9886TIP3    H151073   0.994   2.378   5.859  0.1681  0.1018  0.7532
 9886TIP3    H251074   1.112   2.457   5.807  0.3102 -0.5629  0.0392
 9887TIP3   OH251075   2.577   1.577   4.657 -0.2424 -0.2154  0.5608
 9887TIP3    H151076   2.482   1.567   4.669 -0.3844 -0.4013 -0.5864
 9887TIP3    H251077   2.598   1.518   4.585  0.1297  2.2865 -1.5481
 9888TIP3   OH251078   2.656   4.946   5.059  0.1764 -0.3958  0.3164
 9888TIP3    H151079   2.734   4.949   5.114  1.0899 -0.4834 -0.9408
 9888TIP3    H251080   2.673   4.875   4.997  0.2313  1.2218 -1.5883
 9889TIP3   OH251081   3.841   5.920   1.771  0.2775 -0.2744  0.7078
 9889TIP3    H151082   3.886   5.997   1.805 -0.5065 -0.1994  1.6053
 9889TIP3    H251083   3.795   5.883   1.846  0.1454 -1.2793  0.1615
 9890TIP3   OH251084   1.395   6.723  15.688 -0.0870 -0.4376  0.0727
 9890TIP3    H151085   1.354   6.720  15.602  0.6906  0.3024 -0.3453
 9890TIP3    H251086   1.323   6.742  15.749 -0.6651 -1.1238 -0.3845
 9891TIP3   OH251087   3.489   4.656  14.543  0.1606 -0.2505  0.2725
 9891TIP3    H151088   3.523   4.718  14.478 -0.3945 -0.1645  0.0603
 9891TIP3    H251089   3.537   4.575  14.525  0.0368 -0.2159 -0.2207
 9892TIP3   OH251090   5.900   0.443   1.739 -0.5151 -0.3324  0.0399
 9892TIP3    H151091   5.826   0.460   1.797 -0.5181  0.1072 -0.0886
 9892TIP3    H251092   5.960   0.516   1.754 -0.3495 -0.4105 -0.2359
 9893TIP3   OH251093   1.634   2.590  14.938  0.0589 -0.4391  0.5906
 9893TIP3    H151094   1.556   2.589  14.993  0.6049 -1.3419  1.3655
 9893TIP3    H251095   1.702   2.626  14.994  0.2905  0.0270  0.0232
 9894TIP3   OH251096   2.182   0.270   3.036 -0.5960 -0.0595 -0.7454
 9894TIP3    H151097   2.271   0.239   3.019 -0.6521 -0.3150 -0.5743
 9894TIP3    H251098   2.135   0.193   3.068 -0.8907  0.0645 -0.8742
 9895TIP3   OH251099   4.844   4.356  14.740  0.1568  1.0531 -0.0828
 9895TIP3    H151100   4.890   4.273  14.754  1.3507  1.5535 -0.8985
 9895TIP3    H251101   4.864   4.408  14.817 -0.6561  0.5794  0.4664
 9896TIP3   OH251102   6.724   6.107  11.512 -0.3860 -0.3401  0.5573
 9896TIP3    H151103   6.803   6.141  11.471 -0.2665 -0.5470  0.6144
 9896TIP3    H251104   6.732   6.133  11.604 -0.6766  0.1649  0.4425
 9897TIP3   OH251105   2.737   2.997   3.630 -0.3696  0.5221  0.2114
 9897TIP3    H151106   2.751   3.012   3.537 -0.0168  0.3662  0.2353
 9897TIP3    H251107   2.656   3.042   3.650 -1.8690 -1.6019 -0.7241
 9898TIP3   OH251108   2.300   5.982   4.016  0.1766  0.3159 -0.7478
 9898TIP3    H151109   2.234   6.052   4.011  0.5636  1.0984  2.7379
 9898TIP3    H251110   2.381   6.027   4.041  1.5213 -0.9592 -2.5104
 9899TIP3   OH251111   5.451   1.285  14.912  0.1149 -0.1595  0.0759
 9899TIP3    H151112   5.414   1.197  14.900  0.9861 -0.8325  1.8682
 9899TIP3    H251113   5.536   1.282  14.868  0.2018 -0.2627  0.2499
 9900TIP3   OH251114   4.143   4.324   2.416 -0.0337  0.0580  0.6934
 9900TIP3    H151115   4.134   4.338   2.511 -0.2807 -0.6772  0.7892
 9900TIP3    H251116   4.222   4.270   2.408  0.5950  1.0096  0.3892
 9901TIP3   OH251117   6.786   3.609  10.898 -0.4326  0.3617 -0.0819
 9901TIP3    H151118   6.787   3.607  10.802 -0.9876  1.2409 -0.1175
 9901TIP3    H251119   6.873   3.640  10.923  0.0428 -0.7751 -0.2541
 9902TIP3   OH251120   0.679   0.858  12.544  0.1770  0.1098 -0.2632
 9902TIP3    H151121   0.714   0.773  12.572  1.4625  0.7650  0.2146
 9902TIP3    H251122   0.756   0.915  12.539 -0.6001  1.1307 -1.0293
 9903TIP3   OH251123   6.108   6.590  16.423 -0.0589  0.0149 -0.2231
 9903TIP3    H151124   6.154   6.510  16.447  0.9820  0.8751  0.7567
 9903TIP3    H251125   6.040   6.599  16.489 -0.5010 -0.3076 -0.6247
 9904TIP3   OH251126   2.272   5.972  13.141  0.2725 -0.2770  0.1203
 9904TIP3    H151127   2.191   5.941  13.103  0.9346 -1.0873 -0.6643
 9904TIP3    H251128   2.310   6.030  13.075 -0.3050  1.2176  1.0369
 9905TIP3   OH251129   1.644   1.829   4.679 -0.0320 -0.4270 -0.3704
 9905TIP3    H151130   1.597   1.895   4.730  0.4293 -1.0835  0.9511
 9905TIP3    H251131   1.575   1.774   4.642 -0.3652 -1.2865  1.4148
 9906TIP3   OH251132   3.583   0.638  11.823 -0.5415  0.5932  0.7672
 9906TIP3    H151133   3.667   0.607  11.859 -0.2952  0.8025  0.3713
 9906TIP3    H251134   3.534   0.667  11.900 -0.4672 -0.0380  1.0634
 9907TIP3   OH251135   6.778   1.908   3.344  0.1916  0.3546  0.3777
 9907TIP3    H151136   6.845   1.872   3.402  3.6374  1.0664 -2.7960
 9907TIP3    H251137   6.797   2.002   3.341 -1.1375  0.6244 -0.4375
 9908TIP3   OH251138   6.263   2.664  12.815  0.2012  0.6802 -0.0291
 9908TIP3    H151139   6.286   2.756  12.803 -1.3477  1.1307  0.2239
 9908TIP3    H251140   6.177   2.667  12.858  0.4555 -0.8813  0.6328
 9909TIP3   OH251141   1.690   0.959  14.469  0.0842  0.1381 -0.2205
 9909TIP3    H151142   1.713   0.968  14.562 -0.3385  0.6980 -0.1639
 9909TIP3    H251143   1.594   0.969  14.468  0.1898  1.1859 -0.8419
 9910TIP3   OH251144   3.270   4.090  12.401  0.1638 -0.1684 -0.6002
 9910TIP3    H151145   3.262   4.094  12.306  0.5851  1.5724 -0.6101
 9910TIP3    H251146   3.310   4.174  12.425  0.0192 -0.5466  1.1185
 9911TIP3   OH251147   5.338   0.686   1.701  0.1687  0.0778  0.0287
 9911TIP3    H151148   5.309   0.777   1.705  0.4793  0.1656  0.3510
 9911TIP3    H251149   5.379   0.670   1.786 -0.7994 -0.6846  0.3694
 9912TIP3   OH251150   5.936   4.660   2.448  0.3623  0.0374  0.2112
 9912TIP3    H151151   5.848   4.623   2.447 -0.1640  1.2253  0.9331
 9912TIP3    H251152   5.984   4.608   2.384 -0.5446 -1.3866  0.6166
 9913TIP3   OH251153   5.905   4.034   1.425  0.2550 -0.4094 -0.6209
 9913TIP3    H151154   5.818   4.050   1.389 -0.9527 -1.7375  1.4274
 9913TIP3    H251155   5.898   4.064   1.516  2.3388  0.5348 -0.7318
 9914TIP3   OH251156   6.665   6.626   4.739 -0.7750  0.0594  0.2390
 9914TIP3    H151157   6.586   6.627   4.793  0.9607  1.9296  3.0386
 9914TIP3    H251158   6.695   6.717   4.739  0.6061 -0.3291 -1.9738
 9915TIP3   OH251159   0.085   1.823  11.942  0.2217  0.5276 -0.2065
 9915TIP3    H151160   0.107   1.774  12.021 -1.5299  1.2212  0.7767
 9915TIP3    H251161   0.169   1.847  11.903  1.2590 -4.0154 -1.3167
 9916TIP3   OH251162   3.522   1.713  15.526 -0.3337  0.0631  0.0806
 9916TIP3    H151163   3.459   1.765  15.576 -0.0751  1.6943 -1.2059
 9916TIP3    H251164   3.502   1.623  15.550 -2.4938  0.5813  0.4945
 9917TIP3   OH251165   4.936   4.697  12.373  0.2719 -0.0612 -0.3340
 9917TIP3    H151166   4.958   4.632  12.308  1.9891  1.3083 -1.1981
 9917TIP3    H251167   4.895   4.768  12.323 -1.4704 -0.3699  0.5710
 9918TIP3   OH251168   3.759   3.233   6.067  0.2066  0.2824 -0.1626
 9918TIP3    H151169   3.690   3.227   6.133 -0.3893  1.3425 -0.6536
 9918TIP3    H251170   3.794   3.322   6.076  1.0034  0.0047 -0.4225
 9919TIP3   OH251171   5.620   1.254   3.768 -0.5124 -0.0914  0.1556
 9919TIP3    H151172   5.601   1.293   3.683  0.7120  0.5766  0.1641
 9919TIP3    H251173   5.560   1.297   3.829 -0.3282  0.5601 -0.1183
 9920TIP3   OH251174   4.241   6.279   4.047 -0.5342  0.0543 -0.0854
 9920TIP3    H151175   4.193   6.226   3.984 -0.6750  0.0955 -0.0153
 9920TIP3    H251176   4.276   6.216   4.110  0.6733 -0.1113 -0.8911
 9921TIP3   OH251177   3.269   6.715   1.194  0.5148  0.4846 -0.3300
 9921TIP3    H151178   3.339   6.745   1.136 -1.2449  3.8177 -0.9975
 9921TIP3    H251179   3.311   6.709   1.280  2.2006 -0.4080 -1.1447
 9922TIP3   OH251180   4.030   5.611  12.480 -0.4383  0.3508  0.4777
 9922TIP3    H151181   4.103   5.664  12.513 -1.3331  1.4718  0.7170
 9922TIP3    H251182   3.963   5.617  12.548 -0.4125 -1.4779  0.7135
 9923TIP3   OH251183   4.646   4.255   4.581 -0.0104 -0.1985  0.1254
 9923TIP3    H151184   4.661   4.322   4.648  1.1906 -0.7673  0.4441
 9923TIP3    H251185   4.601   4.185   4.627 -0.2865 -0.0757  0.0453
 9924TIP3   OH251186   5.100   3.318   2.591 -0.2344  0.3837  0.2465
 9924TIP3    H151187   5.196   3.321   2.597 -0.1271  1.4030 -1.2726
 9924TIP3    H251188   5.083   3.255   2.521 -0.7022 -0.0935  0.7875
 9925TIP3   OH251189   0.903   4.667  14.764 -0.0074  0.1822 -0.1983
 9925TIP3    H151190   0.829   4.613  14.736 -0.5455  1.1713 -0.7578
 9925TIP3    H251191   0.863   4.749  14.793  0.8585  0.7052 -0.4438
 9926TIP3   OH251192   4.556   6.615  16.775  0.1526  0.1999  0.1752
 9926TIP3    H151193   4.548   6.666  16.856 -0.1440  1.6203 -0.7118
 9926TIP3    H251194   4.470   6.621  16.734  0.8597  1.2864 -1.2419
 9927TIP3   OH251195   4.725   1.860  13.459 -0.0978  0.3169  0.2449
 9927TIP3    H151196   4.633   1.852  13.483  0.0684  1.0599  1.1847
 9927TIP3    H251197   4.772   1.862  13.542  0.7867 -0.1877 -0.2270
 9928TIP3   OH251198   0.034   1.290  14.603 -0.0460 -0.4733  0.1218
 9928TIP3    H151199  -0.051   1.259  14.571  0.0623 -0.6994  0.0529
 9928TIP3    H251200   0.016   1.319  14.692 -0.6910  1.6599 -0.6549
 9929TIP3   OH251201   2.163   1.559  12.718 -0.0291  0.2844 -0.1470
 9929TIP3    H151202   2.196   1.648  12.731 -1.3468  1.0728 -1.7588
 9929TIP3    H251203   2.196   1.534  12.632 -0.9723 -0.1506 -0.3922
 9930TIP3   OH251204   5.222   1.875  10.445  0.2674  0.5806 -0.0009
 9930TIP3    H151205   5.159   1.935  10.406 -0.0235 -0.4048 -1.0919
 9930TIP3    H251206   5.229   1.803  10.383  0.6130 -0.5249  1.2681
 9931TIP3   OH251207   2.768   4.025   4.420  0.1847  0.0848 -0.8601
 9931TIP3    H151208   2.794   3.950   4.474 -1.1321  0.3332  0.1781
 9931TIP3    H251209   2.794   4.101   4.471  0.9046  0.3442 -1.6010
 9932TIP3   OH251210   1.814   6.074   4.682 -0.4294 -0.5037 -0.2015
 9932TIP3    H151211   1.876   6.136   4.645  2.1688 -2.6076  0.3896
 9932TIP3    H251212   1.804   6.006   4.614 -1.3712 -0.6656  0.0838
 9933TIP3   OH251213   4.873   4.886  14.707  0.2883 -0.1528  0.5862
 9933TIP3    H151214   4.843   4.972  14.677  1.5061  0.5072  1.1775
 9933TIP3    H251215   4.908   4.844  14.629 -2.6757 -1.2208 -0.2730
 9934TIP3   OH251216   1.569   0.872  13.864 -0.9880  0.1884  0.2728
 9934TIP3    H151217   1.506   0.858  13.934  0.1729 -2.9321  0.8726
 9934TIP3    H251218   1.566   0.791  13.813  0.3110  1.2138 -1.5689
 9935TIP3   OH251219   2.736   0.683  11.157 -0.0495  0.7260  0.3054
 9935TIP3    H151220   2.675   0.622  11.199 -0.8557  1.8172  0.7591
 9935TIP3    H251221   2.709   0.686  11.066  0.6696 -0.3843  0.0268
 9936TIP3   OH251222   3.032   4.449  13.326 -0.2366  0.2172  0.4592
 9936TIP3    H151223   3.072   4.433  13.411  0.0214 -0.7444  0.1693
 9936TIP3    H251224   2.990   4.366  13.303 -1.2448  0.8013  0.1413
 9937TIP3   OH251225   0.809   0.481  15.397  0.0768  0.5138  0.1073
 9937TIP3    H151226   0.825   0.391  15.424  2.2895  0.4596 -1.1312
 9937TIP3    H251227   0.733   0.475  15.338  1.1912 -0.8381 -1.2664
 9938TIP3   OH251228   5.642   4.636  11.746 -0.1087  0.1420 -0.5238
 9938TIP3    H151229   5.568   4.597  11.794 -0.2008  1.7351  0.6996
 9938TIP3    H251230   5.608   4.649  11.657 -0.7774 -0.5583 -0.3847
 9939TIP3   OH251231   3.815   3.309   3.126  0.4198 -0.1028 -0.1993
 9939TIP3    H151232   3.804   3.307   3.031  0.2789 -2.9664 -0.1916
 9939TIP3    H251233   3.730   3.336   3.160  0.5877  1.3464 -0.8571
 9940TIP3   OH251234   2.739   3.398   6.146  0.4744 -0.0636 -0.5403
 9940TIP3    H151235   2.649   3.431   6.147  0.5327  0.1219  0.7465
 9940TIP3    H251236   2.792   3.474   6.171  0.6545 -0.9209  1.9717
 9941TIP3   OH251237   3.201   6.096  11.229  0.4539  0.4280 -0.0508
 9941TIP3    H151238   3.175   6.154  11.301  0.4540 -0.3597  0.6034
 9941TIP3    H251239   3.183   6.008  11.262  0.8843  0.0296 -0.8520
 9942TIP3   OH251240   2.771   1.345   3.155  0.3983  0.4696 -0.0372
 9942TIP3    H151241   2.817   1.420   3.117  1.4745  0.1119  0.5165
 9942TIP3    H251242   2.773   1.361   3.249 -1.4101  0.8762 -0.0421
 9943TIP3   OH251243   2.062   0.237   5.606  0.8413  0.6729  0.2781
 9943TIP3    H151244   1.990   0.215   5.665 -0.5228 -1.3192 -1.9227
 9943TIP3    H251245   2.067   0.332   5.608 -1.1117  0.7941  1.3546
 9944TIP3   OH251246   3.790   4.219   6.372  0.0238 -0.0108  0.4173
 9944TIP3    H151247   3.816   4.132   6.343 -3.5647 -0.5460 -1.9373
 9944TIP3    H251248   3.783   4.212   6.467  0.7550 -1.9648  0.3736
 9945TIP3   OH251249   2.318   1.830  13.450 -0.3919 -0.4587  0.4830
 9945TIP3    H151250   2.280   1.917  13.455 -1.7551 -1.0277  0.4252
 9945TIP3    H251251   2.250   1.772  13.484 -0.2068 -1.6964 -1.1293
 9946TIP3   OH251252   0.536   2.604   1.479 -0.3092 -0.4109 -0.2321
 9946TIP3    H151253   0.561   2.697   1.484 -2.9679  0.3995 -0.5896
 9946TIP3    H251254   0.615   2.560   1.448  1.5761  1.4436  1.5485
 9947TIP3   OH251255   3.081   1.537   4.961 -0.1221 -0.7934 -0.0242
 9947TIP3    H151256   3.010   1.542   4.897 -0.7100 -5.0282  0.0289
 9947TIP3    H251257   3.037   1.521   5.045  0.7652  2.2613  1.1692
 9948TIP3   OH251258   5.809   0.231   2.451 -0.0244  0.4412  0.2798
 9948TIP3    H151259   5.809   0.326   2.464 -0.0905  0.3994  0.5891
 9948TIP3    H251260   5.771   0.219   2.364  0.0840  0.7035  0.1953
 9949TIP3   OH251261   3.748   4.028   2.001  0.1568 -0.8004  0.2029
 9949TIP3    H151262   3.681   3.961   2.015  0.2158 -0.9977 -0.4271
 9949TIP3    H251263   3.830   3.980   1.997 -0.0017 -0.9834 -2.3799
 9950TIP3   OH251264   4.951   5.770   4.217  0.3350 -0.0378 -0.1942
 9950TIP3    H151265   4.871   5.722   4.197  0.1826  0.3587 -0.5419
 9950TIP3    H251266   5.022   5.712   4.190  0.1698 -0.3921  0.1249
 9951TIP3   OH251267   2.108   0.875  11.423 -0.4473  0.4887  0.0276
 9951TIP3    H151268   2.178   0.853  11.485  0.3308  2.0510 -0.2458
 9951TIP3    H251269   2.105   0.971  11.424 -0.4440  0.5659 -2.3084
 9952TIP3   OH251270   1.813   6.319  13.942 -0.4042  0.0596 -0.4858
 9952TIP3    H151271   1.798   6.234  13.900  0.7156 -1.0998  1.3204
 9952TIP3    H251272   1.794   6.304  14.034 -3.1926  2.6466 -0.4945
 9953TIP3   OH251273   3.148   1.072   1.452 -0.0141 -0.0376  0.7889
 9953TIP3    H151274   3.172   1.151   1.404  0.8722 -1.6796 -1.6514
 9953TIP3    H251275   3.056   1.057   1.430  0.3773 -0.7613 -0.4312
 9954TIP3   OH251276   0.712   1.664  14.240 -0.1252  0.1816 -0.3244
 9954TIP3    H151277   0.640   1.718  14.274 -0.3697 -0.1253 -0.3487
 9954TIP3    H251278   0.675   1.576  14.235 -0.0705  0.2082 -1.3283
 9955TIP3   OH251279   4.600   6.275   0.350 -0.2023 -0.0034 -0.1314
 9955TIP3    H151280   4.692   6.272   0.322 -0.8955 -0.2974 -2.6407
 9955TIP3    H251281   4.586   6.366   0.375  1.1603 -0.2944  1.9018
 9956TIP3   OH251282   2.950   4.029   1.624 -0.3660  0.4071 -0.1112
 9956TIP3    H151283   2.912   4.008   1.710 -2.4749 -1.3037 -1.3480
 9956TIP3    H251284   2.914   4.115   1.604 -1.0748  0.1713  0.1002
 9957TIP3   OH251285   5.225   2.379  14.744  0.2481  1.3338 -0.3985
 9957TIP3    H151286   5.316   2.349  14.745  0.2833  1.4428 -0.4102
 9957TIP3    H251287   5.179   2.312  14.693 -0.0444  0.2499  1.2056
 9958TIP3   OH251288   2.990   1.018  10.968  0.2171  0.2508 -0.2504
 9958TIP3    H151289   3.053   0.977  11.027  0.3129  1.0091  0.1997
 9958TIP3    H251290   3.010   0.982  10.882  0.3761 -0.5328  0.1044
 9959TIP3   OH251291   2.175   6.094  11.375  0.8135 -0.4230 -0.6614
 9959TIP3    H151292   2.144   6.079  11.286  0.6422 -0.5965 -0.5717
 9959TIP3    H251293   2.247   6.157  11.365 -0.2770  0.8500 -0.7710
 9960TIP3   OH251294   1.033   3.222   5.012 -0.6765  0.6181 -0.0477
 9960TIP3    H151295   0.955   3.171   4.989 -0.3770  0.3168 -0.4034
 9960TIP3    H251296   1.000   3.291   5.070 -0.9840 -0.3891  1.0102
 9961TIP3   OH251297   6.694   4.672  11.085 -0.2097  0.2026  0.4654
 9961TIP3    H151298   6.727   4.717  11.007  0.6242  0.1940  0.8046
 9961TIP3    H251299   6.618   4.623  11.053  0.2014  0.0872 -0.3838
 9962TIP3   OH251300   6.646   6.377   4.145 -0.2173  0.7198 -0.1834
 9962TIP3    H151301   6.703   6.447   4.177 -0.6377  0.8759  0.2392
 9962TIP3    H251302   6.590   6.421   4.080 -0.3803  0.7449 -0.0270
 9963TIP3   OH251303   2.820   1.389   3.427 -0.0598  0.5587 -0.0037
 9963TIP3    H151304   2.797   1.336   3.503 -0.2101  0.2805 -0.2405
 9963TIP3    H251305   2.825   1.478   3.461  0.8713  0.3082  0.5402
 9964TIP3   OH251306   2.606   0.820  16.160 -0.2517 -0.0643 -0.1617
 9964TIP3    H151307   2.524   0.849  16.121 -0.5070 -0.0615  0.3707
 9964TIP3    H251308   2.594   0.727  16.177  0.0339 -0.1689 -0.5295
 9965TIP3   OH251309   1.223   6.516  11.156  0.1089 -0.5054  0.5917
 9965TIP3    H151310   1.153   6.491  11.096  0.8118  0.2104 -0.5445
 9965TIP3    H251311   1.303   6.514  11.104  0.4859  2.0453  0.9509
 9966TIP3   OH251312   1.810   5.533   4.950  0.2100 -0.6160 -0.3829
 9966TIP3    H151313   1.783   5.445   4.924 -0.7932 -0.5947  0.5090
 9966TIP3    H251314   1.734   5.569   4.995  1.4556 -0.2455  1.5337
 9967TIP3   OH251315   3.847   1.035   3.291  0.2068  0.3677  0.3497
 9967TIP3    H151316   3.871   1.049   3.199 -0.4287 -0.9469 -0.0421
 9967TIP3    H251317   3.840   1.123   3.327 -2.2318  1.0743 -1.5724
 9968TIP3   OH251318   0.429   4.612   0.902  0.0493  0.5680  0.8111
 9968TIP3    H151319   0.334   4.602   0.900  0.2605 -2.3524  0.6566
 9968TIP3    H251320   0.453   4.635   0.812 -0.4971  1.8167  0.9595
 9969TIP3   OH251321   2.840   0.530   5.186 -0.1465  0.0967 -0.4004
 9969TIP3    H151322   2.800   0.594   5.245 -0.2048 -0.5385  0.2557
 9969TIP3    H251323   2.773   0.463   5.174 -0.2129  0.3203 -1.3621
 9970TIP3   OH251324   4.254   1.504   4.217  0.4226 -1.1051  0.4156
 9970TIP3    H151325   4.242   1.439   4.148 -0.0870 -0.4931 -0.0871
 9970TIP3    H251326   4.178   1.561   4.209  1.1227 -0.1335  0.4928
 9971TIP3   OH251327   3.871   1.778   2.686  0.8756 -0.1676 -0.0990
 9971TIP3    H151328   3.835   1.864   2.705 -2.6570 -1.4079 -0.3643
 9971TIP3    H251329   3.905   1.784   2.597 -2.1429  0.2981 -1.3413
 9972TIP3   OH251330   2.555   0.915  12.333  0.0886  0.1458  0.8813
 9972TIP3    H151331   2.634   0.945  12.288  0.0298  0.0829  0.7326
 9972TIP3    H251332   2.552   0.821  12.315 -0.6557  0.3370 -0.1354
 9973TIP3   OH251333   2.779   2.790   3.201 -0.0337  0.1296  0.2388
 9973TIP3    H151334   2.770   2.785   3.296  1.5584  2.8001  0.6228
 9973TIP3    H251335   2.690   2.808   3.169 -0.9829 -2.7913  0.9137
 9974TIP3   OH251336   3.172   3.335  13.251 -0.0519 -0.2526 -0.0509
 9974TIP3    H151337   3.116   3.411  13.233 -0.3991 -0.3698  0.5262
 9974TIP3    H251338   3.256   3.373  13.276 -0.3853 -0.0472  0.7628
 9975TIP3   OH251339   2.016   5.752  13.584 -0.5783  0.0098  0.5610
 9975TIP3    H151340   2.020   5.667  13.541  0.7097  0.9552 -1.3348
 9975TIP3    H251341   2.014   5.732  13.678  1.9895 -2.1035  0.2723
 9976TIP3   OH251342   4.986   4.386   1.462 -0.0503 -0.3370  0.4952
 9976TIP3    H151343   4.988   4.372   1.367 -1.3914  2.1978  0.0129
 9976TIP3    H251344   4.904   4.344   1.491  0.7727 -1.8624  0.7402
 9977TIP3   OH251345   4.612   1.510   4.203  0.2126 -0.1204 -0.5838
 9977TIP3    H151346   4.639   1.571   4.134  0.4562 -0.5192 -0.8427
 9977TIP3    H251347   4.536   1.465   4.166  0.0560  0.0022 -0.4082
 9978TIP3   OH251348   0.454   1.902  14.860 -0.2614 -0.1625  0.3369
 9978TIP3    H151349   0.500   1.880  14.779 -1.1339 -3.9376  0.6975
 9978TIP3    H251350   0.363   1.913  14.834 -0.1564  1.3871  0.4943
 9979TIP3   OH251351   4.511   0.474  14.883 -0.2736 -0.1147  0.4428
 9979TIP3    H151352   4.416   0.462  14.876 -0.1384 -0.2604 -2.3403
 9979TIP3    H251353   4.548   0.394  14.844  0.9995  0.0738  1.2153
 9980TIP3   OH251354   2.905   4.310   0.731  0.4072 -0.2244 -0.5908
 9980TIP3    H151355   2.929   4.297   0.639 -0.7995  0.2971 -1.0187
 9980TIP3    H251356   2.830   4.252   0.744 -1.6272  2.1426 -0.9880
 9981TIP3   OH251357   5.727   6.063   4.111  0.0681  0.4194  1.2071
 9981TIP3    H151358   5.644   6.080   4.154  1.0732  0.6419  3.1671
 9981TIP3    H251359   5.791   6.117   4.159  1.4719 -0.3530  0.2885
 9982TIP3   OH251360   3.781   4.145   3.206  0.0999 -0.2345  0.4456
 9982TIP3    H151361   3.868   4.176   3.228  0.2875  1.3324 -2.0737
 9982TIP3    H251362   3.793   4.093   3.126 -1.3566  0.9137 -0.5786
 9983TIP3   OH251363   4.709   5.646  16.062 -0.7402  0.4221 -0.3212
 9983TIP3    H151364   4.795   5.644  16.103 -1.5543 -0.4726  1.4708
 9983TIP3    H251365   4.698   5.558  16.026 -1.1127  0.3539 -0.0465
 9984TIP3   OH251366   4.877   1.218   2.691  0.1534  0.4409  0.6203
 9984TIP3    H151367   4.832   1.167   2.623  1.0663 -0.6607  0.8199
 9984TIP3    H251368   4.970   1.201   2.676  0.4267  1.2341  1.3464
 9985TIP3   OH251369   0.928   0.996   5.010  0.3426  0.2153 -0.3497
 9985TIP3    H151370   0.904   1.065   4.948  0.5334 -0.2285 -0.9239
 9985TIP3    H251371   0.932   1.040   5.095  1.8470  1.2305 -0.8968
 9986TIP3   OH251372   0.970   0.786   4.267  0.2173  0.2789  0.2433
 9986TIP3    H151373   1.018   0.840   4.205  0.0728  0.3603  0.2031
 9986TIP3    H251374   1.009   0.699   4.259  0.1322  0.2661 -0.0312
 9987TIP3   OH251375   2.379   0.313   2.858  0.1141  0.2058  0.0439
 9987TIP3    H151376   2.365   0.398   2.900 -3.0653 -0.0696 -0.2650
 9987TIP3    H251377   2.423   0.335   2.776 -0.2481  1.5234  0.1772
 9988TIP3   OH251378   1.733   5.316  11.414  0.1803  0.0479 -0.0576
 9988TIP3    H151379   1.643   5.348  11.401  0.3856 -0.0071 -1.8248
 9988TIP3    H251380   1.787   5.394  11.411  0.4315 -0.1641 -1.7554
 9989TIP3   OH251381   0.739   2.635  13.536 -0.6879  0.1341  0.1029
 9989TIP3    H151382   0.771   2.682  13.613  0.8661 -0.2431 -0.2727
 9989TIP3    H251383   0.692   2.702  13.485 -1.0512  0.5656  0.9856
 9990TIP3   OH251384   5.499   4.353  14.325 -0.6400  0.5930  0.6335
 9990TIP3    H151385   5.429   4.385  14.381 -1.5815 -2.1037  1.1404
 9990TIP3    H251386   5.565   4.318  14.385  0.1157  1.1030  0.1172
 9991TIP3   OH251387   6.578   3.452   3.822  0.0846 -0.2027 -0.6741
 9991TIP3    H151388   6.607   3.419   3.737  2.9294 -0.0727  0.1554
 9991TIP3    H251389   6.653   3.501   3.855 -0.6975 -0.7747  2.1741
 9992TIP3   OH251390   1.827   4.898  13.730  0.1906  0.1492  0.2866
 9992TIP3    H151391   1.832   4.829  13.797 -1.3660  0.8108  1.1196
 9992TIP3    H251392   1.894   4.962  13.757  0.2757 -0.0779  0.6313
 9993TIP3   OH251393   4.033   6.778   2.483  0.3007  0.2065 -0.0556
 9993TIP3    H151394   3.956   6.806   2.433 -0.0159  0.8226  0.7560
 9993TIP3    H251395   4.043   6.685   2.460  0.7072  0.6596 -1.9208
 9994TIP3   OH251396   1.488   0.788   2.213  0.3116 -0.0910  0.0716
 9994TIP3    H151397   1.541   0.855   2.255 -1.1886  1.1576  0.0834
 9994TIP3    H251398   1.402   0.796   2.256 -0.2429 -1.1860 -0.7895
 9995TIP3   OH251399   0.139   1.611  15.595  0.5657  0.2531 -0.6250
 9995TIP3    H151400   0.212   1.659  15.555  0.2600  1.6764  0.4323
 9995TIP3    H251401   0.080   1.679  15.627 -0.0491 -0.8360  0.6783
 9996TIP3   OH251402   0.252   4.703   1.363 -0.3130 -0.0816 -0.1139
 9996TIP3    H151403   0.294   4.628   1.320 -1.8570 -0.7273 -0.5480
 9996TIP3    H251404   0.172   4.668   1.401 -1.3937  1.4512 -0.8430
 9997TIP3   OH251405   2.348   5.703  16.981  0.0557  0.7093 -0.0380
 9997TIP3    H151406   2.389   5.642  16.919  0.3993  1.2465 -0.3462
 9997TIP3    H251407   2.348   5.656  17.064 -0.7190 -0.1588 -0.5042
 9998TIP3   OH251408   6.320   2.497  13.577  0.2254 -0.2292 -0.4588
 9998TIP3    H151409   6.239   2.520  13.532 -0.7878  0.2184  1.5078
 9998TIP3    H251410   6.321   2.402  13.578  1.7009 -0.3950 -3.8020
 9999TIP3   OH251411   1.863   2.571  14.593  0.6970  0.3424 -0.5957
 9999TIP3    H151412   1.839   2.479  14.592 -2.4528  1.0474  0.6410
 9999TIP3    H251413   1.902   2.585  14.679  1.7335  0.0853 -1.0073
10000TIP3   OH251414   1.745   3.032  16.772 -0.1952  0.4963  0.2362
10000TIP3    H151415   1.670   3.002  16.822 -0.5265 -0.0107 -0.5567
10000TIP3    H251416   1.774   2.956  16.721 -1.0547  1.4506 -1.8128
10001TIP3   OH251417   0.823   5.339   1.390 -0.3412  0.1018 -0.1455
10001TIP3    H151418   0.893   5.384   1.437 -1.8382  0.2081  2.1244
10001TIP3    H251419   0.759   5.408   1.370 -0.6085 -0.2889 -0.6663
10002TIP3   OH251420   2.350   3.676  11.659 -0.5307  0.2867  0.1501
10002TIP3    H151421   2.345   3.765  11.622  0.1145 -0.5720 -2.1702
10002TIP3    H251422   2.259   3.650  11.672 -0.7563  0.8375 -0.2877
10003TIP3   OH251423   4.151   5.552  16.910 -0.6032  0.4594  0.6195
10003TIP3    H151424   4.134   5.564  16.816  0.9200  2.1089  0.4978
10003TIP3    H251425   4.078   5.597  16.953 -1.9046 -1.2365  0.2863
10004TIP3   OH251426   2.159   0.930  16.197  0.1907 -0.1677 -0.8196
10004TIP3    H151427   2.166   0.995  16.128  3.0176  1.7143  1.0491
10004TIP3    H251428   2.234   0.946  16.253 -0.8817 -2.8761  1.6470
10005TIP3   OH251429   3.157   0.335  16.198  0.7982  0.0970 -0.5731
10005TIP3    H151430   3.116   0.418  16.223  2.2464  0.3443  1.1417
10005TIP3    H251431   3.100   0.300  16.129 -0.2475  2.1413 -0.8203
10006TIP3   OH251432   1.895   6.208  13.449 -0.2470  0.2433 -0.0304
10006TIP3    H151433   1.938   6.292  13.435 -0.6325  0.5254  0.4557
10006TIP3    H251434   1.964   6.143  13.431  0.2145  0.6723  0.1487
10007TIP3   OH251435   1.762   3.388   5.475 -0.1813 -0.2421 -0.4776
10007TIP3    H151436   1.810   3.356   5.551 -0.2504 -0.2248 -0.4263
10007TIP3    H251437   1.673   3.352   5.485 -0.2258 -0.1352 -0.4833
10008TIP3   OH251438   3.168   6.007   5.042  0.2289  0.3209  0.1658
10008TIP3    H151439   3.080   5.968   5.042 -0.3040  1.4410  1.1638
10008TIP3    H251440   3.152   6.101   5.049  1.5207  0.5631  0.1070
10009TIP3   OH251441   5.584   1.618   6.182  0.0753 -0.0114  0.1228
10009TIP3    H151442   5.630   1.667   6.251 -0.0377 -0.6556  0.6633
10009TIP3    H251443   5.527   1.683   6.140 -0.0200  0.3387  0.7830
10010TIP3   OH251444   1.500   1.089  11.866 -0.4321  0.2480 -0.3106
10010TIP3    H151445   1.533   1.005  11.896  0.7440  0.3377 -1.2731
10010TIP3    H251446   1.414   1.070  11.829 -1.0773 -0.1640  1.3361
10011TIP3   OH251447   0.760   4.888   0.602  0.0447 -0.3530  0.3938
10011TIP3    H151448   0.746   4.930   0.518  1.1838  0.1444  0.4297
10011TIP3    H251449   0.699   4.931   0.662 -0.6175 -0.5616 -0.1212
10012TIP3   OH251450   5.751   1.290  16.090 -0.2554 -0.0222 -0.2357
10012TIP3    H151451   5.813   1.301  16.162  1.4234  0.7755 -1.7306
10012TIP3    H251452   5.748   1.196  16.075 -0.2362 -0.1509  0.5467
10013TIP3   OH251453   5.484   3.062   3.199 -0.1295 -0.0491  0.0680
10013TIP3    H151454   5.478   3.149   3.160 -0.2650  0.3472  0.9416
10013TIP3    H251455   5.476   3.077   3.293 -0.3120 -1.0246  0.2253
10014TIP3   OH251456   5.886   6.155  13.515 -0.0411 -0.2831 -0.6302
10014TIP3    H151457   5.911   6.230  13.569  0.0482 -0.5135 -0.3496
10014TIP3    H251458   5.881   6.190  13.426  0.5735 -0.0711 -0.5837
10015TIP3   OH251459   1.905   3.738   0.795 -0.0025 -0.2435 -0.1786
10015TIP3    H151460   1.891   3.647   0.769  1.6274 -0.5946  0.0858
10015TIP3    H251461   1.983   3.736   0.849  1.0969  1.5599 -1.5852
10016TIP3   OH251462   3.379   5.448   2.182  0.4012 -0.0556 -0.2825
10016TIP3    H151463   3.389   5.355   2.203 -0.5526 -0.1208 -0.0476
10016TIP3    H251464   3.468   5.480   2.173  0.7801 -0.7685  0.6503
10017TIP3   OH251465   5.039   4.820  16.336 -0.8176 -0.1405  0.4649
10017TIP3    H151466   5.068   4.911  16.342  1.4185 -0.7031 -0.5046
10017TIP3    H251467   5.100   4.771  16.392  0.1208 -1.3876 -1.5259
10018TIP3   OH251468   2.206   5.277  16.865  0.1352  0.0230 -0.1064
10018TIP3    H151469   2.287   5.226  16.860 -0.2682 -0.8927  1.7704
10018TIP3    H251470   2.183   5.277  16.958 -2.0469  0.2294 -0.5804
10019TIP3   OH251471   5.334   0.225  13.756 -0.0396  0.1282 -0.2843
10019TIP3    H151472   5.261   0.171  13.724  0.3612 -0.9525  0.5385
10019TIP3    H251473   5.412   0.181  13.722  0.2857  0.3424  0.1809
10020TIP3   OH251474   6.308   4.975  10.296  0.3067 -0.5324  0.2433
10020TIP3    H151475   6.296   5.069  10.292 -0.8582 -0.7050 -1.5569
10020TIP3    H251476   6.402   4.962  10.305  0.4467  0.7933  0.7729
10021TIP3   OH251477   4.951   5.633  12.436  0.2723  0.0388 -0.4796
10021TIP3    H151478   4.891   5.676  12.497  0.8142  0.9248 -0.5525
10021TIP3    H251479   4.896   5.607  12.362 -0.5125 -1.6284  0.6293
10022TIP3   OH251480   3.942   1.783   5.434 -0.4898 -0.3710  0.4402
10022TIP3    H151481   3.991   1.860   5.464 -0.1943 -0.7293  0.8840
10022TIP3    H251482   3.980   1.762   5.348  0.1037 -0.6150  0.7575
10023TIP3   OH251483   1.608   1.307  14.496 -0.2146  0.1297 -0.2240
10023TIP3    H151484   1.573   1.328  14.582  2.2847 -0.5655  1.0714
10023TIP3    H251485   1.561   1.228  14.470 -1.4264  0.6947  0.2032
10024TIP3   OH251486   3.288   4.762   4.064  0.8980  0.2897  0.2177
10024TIP3    H151487   3.225   4.781   4.134  0.9197  1.7245 -0.1169
10024TIP3    H251488   3.298   4.845   4.018  2.0915 -0.2304 -0.5138
10025TIP3   OH251489   1.953   1.654  15.481  0.1107 -0.1342  0.3519
10025TIP3    H151490   1.991   1.570  15.457  0.6465  0.3137 -0.3843
10025TIP3    H251491   2.025   1.717  15.474 -0.6852  0.6870 -0.8708
10026TIP3   OH251492   5.496   1.601   0.662  0.3618  0.7329 -0.1320
10026TIP3    H151493   5.511   1.515   0.622 -0.1587  1.7655 -2.7168
10026TIP3    H251494   5.413   1.592   0.709  1.1636 -0.6158  1.1271
10027TIP3   OH251495   5.943   1.095   3.410  0.5800 -0.1877 -0.0653
10027TIP3    H151496   6.010   1.044   3.456  1.7867  0.7457 -0.7096
10027TIP3    H251497   5.991   1.169   3.372 -1.3433  2.5234  2.3670
10028TIP3   OH251498   5.403   5.642  15.773  0.0356  0.4691 -0.1155
10028TIP3    H151499   5.387   5.736  15.779  1.2595  0.6913 -0.0281
10028TIP3    H251500   5.468   5.624  15.840  0.2343 -0.3365 -0.5072
10029TIP3   OH251501   5.809   4.568   5.206  0.1690  0.3523 -0.3015
10029TIP3    H151502   5.857   4.651   5.202 -0.9603  1.0898  0.8321
10029TIP3    H251503   5.781   4.560   5.297 -0.6433 -0.7640 -0.6184
10030TIP3   OH251504   6.020   6.692  15.222 -0.2731 -0.0857  0.1672
10030TIP3    H151505   6.106   6.652  15.210  0.4613  1.1451  1.0170
10030TIP3    H251506   6.001   6.734  15.138 -1.0113 -2.0358 -0.7027
10031TIP3   OH251507   5.611   0.382  14.122  0.1604  0.5744  0.1256
10031TIP3    H151508   5.698   0.374  14.162 -0.4294 -0.7882  1.2089
10031TIP3    H251509   5.618   0.332  14.041  0.4017  0.5103  0.1838
10032TIP3   OH251510   1.900   3.978  11.662 -0.5791  0.7479  0.3088
10032TIP3    H151511   1.852   3.920  11.603  1.1342  0.4624 -0.8761
10032TIP3    H251512   1.889   4.065  11.624  0.5993  0.5520 -0.5282
10033TIP3   OH251513   1.251   5.486  13.199  0.8253  0.3091  0.8596
10033TIP3    H151514   1.208   5.570  13.214 -0.7972  0.0921 -1.8142
10033TIP3    H251515   1.195   5.443  13.134  2.2946 -2.3211  1.2294
10034TIP3   OH251516   6.205   1.571   0.450 -0.2522  0.3594  0.1410
10034TIP3    H151517   6.141   1.634   0.483 -0.8664 -0.5774  0.7896
10034TIP3    H251518   6.243   1.533   0.529  0.7841  0.5771 -0.2452
10035TIP3   OH251519   0.254   4.647   0.573 -0.1195  0.1619  0.0807
10035TIP3    H151520   0.210   4.719   0.527 -0.5011  0.8282  1.4385
10035TIP3    H251521   0.347   4.672   0.572 -0.2037  0.4897  0.2114
10036TIP3   OH251522   4.767   1.008   2.519 -0.6314 -0.1683 -0.4922
10036TIP3    H151523   4.723   1.031   2.437 -1.9210 -1.0999 -0.0927
10036TIP3    H251524   4.703   1.028   2.587  0.4945  0.7781  0.3295
10037TIP3   OH251525   4.413   2.271   6.404 -0.1427  0.1096 -0.3019
10037TIP3    H151526   4.496   2.307   6.436 -0.1171 -0.8925  0.7832
10037TIP3    H251527   4.367   2.347   6.369  1.3023  0.6579 -1.1144
10038TIP3   OH251528   0.259   5.751  15.419 -0.4619 -0.7540  0.1227
10038TIP3    H151529   0.295   5.664  15.399  0.0732 -0.2425 -1.2842
10038TIP3    H251530   0.336   5.806  15.433 -0.7162 -0.1142 -0.8415
10039TIP3   OH251531   3.943   0.620   2.235 -0.3312  0.2445 -0.2454
10039TIP3    H151532   3.928   0.663   2.150 -1.1103  0.1851 -0.1439
10039TIP3    H251533   4.020   0.665   2.271 -0.2485  0.5555 -0.7936
10040TIP3   OH251534   0.435   6.739  11.222 -0.4363  0.1390  0.4886
10040TIP3    H151535   0.416   6.648  11.243 -3.3881  0.4559 -0.4701
10040TIP3    H251536   0.386   6.790  11.286 -0.8391  1.0570 -0.5151
10041TIP3   OH251537   6.207   2.820  13.560 -0.1478  0.4572 -0.1496
10041TIP3    H151538   6.230   2.792  13.649  2.9949  1.3000 -0.5643
10041TIP3    H251539   6.148   2.752  13.528  1.1513 -1.5704  1.4884
10042TIP3   OH251540   2.989   3.394   5.964 -0.0259  0.3448 -0.3771
10042TIP3    H151541   2.985   3.328   6.033  0.3621  0.9351  0.2285
10042TIP3    H251542   3.076   3.384   5.926  0.2161  0.8226  0.0436
10043TIP3   OH251543   4.224   4.042   3.310 -0.0682 -0.1028 -0.3571
10043TIP3    H151544   4.211   4.035   3.215  0.0497 -0.7886 -0.3270
10043TIP3    H251545   4.188   4.128   3.332  0.6621  0.4295 -1.1458
10044TIP3   OH251546   6.718   4.973   1.430  0.2573  0.4643  0.2989
10044TIP3    H151547   6.724   5.056   1.477 -2.5685  0.3570  1.0054
10044TIP3    H251548   6.715   4.907   1.500 -0.8574  0.0595 -0.1099
10045TIP3   OH251549   6.068   3.713   1.713  0.1753  0.3719 -0.3593
10045TIP3    H151550   6.072   3.621   1.686  2.0359  0.0186  0.8551
10045TIP3    H251551   6.150   3.726   1.761 -0.7186  2.2748  0.7489
10046TIP3   OH251552   0.819   1.776   1.229  0.8648 -0.1537 -0.0786
10046TIP3    H151553   0.751   1.723   1.187  0.8042 -0.5823  0.5559
10046TIP3    H251554   0.823   1.856   1.176  0.9991 -0.8054 -1.0891
10047TIP3   OH251555   3.454   4.074  14.787  0.1670 -0.5752 -0.1786
10047TIP3    H151556   3.536   4.123  14.778  0.2827 -0.7605 -0.1289
10047TIP3    H251557   3.481   3.982  14.789  0.1902 -0.5857  2.0787
10048TIP3   OH251558   1.914   2.345   0.279  0.0564 -0.0337  0.0389
10048TIP3    H151559   1.929   2.262   0.324 -0.1858 -0.2483 -0.2693
10048TIP3    H251560   1.818   2.350   0.270  0.1666 -0.9850 -2.2756
10049TIP3   OH251561   1.368   4.882  10.732  0.1358 -0.0644  0.1028
10049TIP3    H151562   1.322   4.897  10.814 -0.0745 -0.4993  0.0683
10049TIP3    H251563   1.368   4.967  10.688 -0.5349 -0.0345  0.1529
10050TIP3   OH251564   2.198   0.314  15.094  0.5724  0.2152  0.0881
10050TIP3    H151565   2.161   0.226  15.091  0.0944  0.3768  0.9648
10050TIP3    H251566   2.287   0.304  15.060  1.4986 -1.1351  2.7183
10051TIP3   OH251567   0.524   1.784  13.785 -0.7779 -0.0796 -0.5941
10051TIP3    H151568   0.617   1.783  13.808 -0.6194 -0.4612 -1.2209
10051TIP3    H251569   0.514   1.864  13.733 -0.5809 -0.5523 -1.3719
10052TIP3   OH251570   5.145   6.533   5.935  0.1221  0.2986  0.1963
10052TIP3    H151571   5.192   6.611   5.965  0.2050  0.8786 -1.3592
10052TIP3    H251572   5.086   6.511   6.008  0.8110  1.2165  1.0507
10053TIP3   OH251573   6.568   5.826   4.819 -0.4963 -0.4124 -0.0706
10053TIP3    H151574   6.519   5.798   4.742  0.4162 -2.0892 -0.0950
10053TIP3    H251575   6.603   5.745   4.856  1.3471  0.5978  0.5477
10054TIP3   OH251576   6.082   4.792   0.337  0.2920  0.4939 -0.2754
10054TIP3    H151577   6.009   4.805   0.397  0.0615  0.5109 -0.5581
10054TIP3    H251578   6.090   4.697   0.329  0.3667  0.4910 -0.1640
10055TIP3   OH251579   1.264   3.863   5.364 -0.5238 -0.3348  0.6007
10055TIP3    H151580   1.255   3.809   5.285  1.3567 -1.0690  0.8423
10055TIP3    H251581   1.326   3.815   5.419 -0.9094  0.7452  2.0455
10056TIP3   OH251582   3.406   5.402   5.106  0.1518  0.2984  0.7722
10056TIP3    H151583   3.438   5.348   5.035 -0.2589  0.1125  0.7250
10056TIP3    H251584   3.344   5.346   5.153 -0.7760  0.9246  0.3301
10057TIP3   OH251585   4.647   6.169   1.465 -0.2120  1.1406  0.6762
10057TIP3    H151586   4.552   6.161   1.466 -0.0595 -1.3893  0.1756
10057TIP3    H251587   4.671   6.165   1.372  0.5099 -0.8007  0.9089
10058TIP3   OH251588   5.853   1.241   2.040  0.1734 -0.4274  0.4979
10058TIP3    H151589   5.760   1.232   2.021  0.0271  1.2940  0.2071
10058TIP3    H251590   5.860   1.326   2.084  1.5916 -0.6082  0.6764
10059TIP3   OH251591   4.348   2.897  13.156  0.0518 -0.0290  0.1371
10059TIP3    H151592   4.262   2.891  13.197 -0.0178 -0.3725 -0.0606
10059TIP3    H251593   4.375   2.807  13.142  0.5441  0.0708  0.4000
10060TIP3   OH251594   6.254   1.023  13.270  0.5911 -0.7007  0.5671
10060TIP3    H151595   6.282   0.961  13.203 -1.4605  1.1446 -2.2324
10060TIP3    H251596   6.313   1.097  13.260 -1.6537  0.9557 -1.6652
10061TIP3   OH251597   4.794   1.117   4.130 -0.5675  0.4657  0.4494
10061TIP3    H151598   4.847   1.160   4.063  1.4870 -0.9877  1.0162
10061TIP3    H251599   4.855   1.103   4.203 -2.2079  0.2162  1.8267
10062TIP3   OH251600   3.682   0.533   0.122  0.0038 -0.5804 -0.1025
10062TIP3    H151601   3.659   0.544   0.029  0.0663  1.6056  0.0894
10062TIP3    H251602   3.674   0.621   0.159  1.7049 -1.0764  1.5862
10063TIP3   OH251603   5.553   5.142   1.859  0.4971 -0.0415 -0.1979
10063TIP3    H151604   5.607   5.069   1.833 -0.6300 -1.0274  0.1317
10063TIP3    H251605   5.477   5.139   1.800 -0.4830 -0.3175  1.0225
10064TIP3   OH251606   3.517   6.009   3.571  0.0017  0.1813 -0.3348
10064TIP3    H151607   3.458   5.968   3.634  1.3488 -1.9777 -0.3640
10064TIP3    H251608   3.497   6.102   3.576 -2.8101 -0.3497  0.2267
10065TIP3   OH251609   2.750   6.574   5.417  0.5636  0.9132 -0.6155
10065TIP3    H151610   2.811   6.548   5.485  0.1801  0.3437 -0.4794
10065TIP3    H251611   2.768   6.667   5.402  0.0195  1.2974  0.9333
10066TIP3   OH251612   2.031   3.515  14.954 -1.0088 -0.1713  0.0281
10066TIP3    H151613   1.992   3.440  14.911 -1.3487  0.0095  0.0227
10066TIP3    H251614   2.126   3.500  14.947 -1.0064  0.5165 -1.9571
10067TIP3   OH251615   6.185   1.973   4.951  0.0049  0.1215  0.4053
10067TIP3    H151616   6.277   1.998   4.957  0.2525 -0.8661  0.9721
10067TIP3    H251617   6.142   2.050   4.915  1.1401  0.4091 -0.4135
10068TIP3   OH251618   5.028   4.670  14.886  0.1847  0.2058 -0.2782
10068TIP3    H151619   4.976   4.747  14.864  0.6927  0.9469  0.9981
10068TIP3    H251620   5.108   4.705  14.926  0.0592 -0.9842  1.0970
10069TIP3   OH251621   3.537   0.833   0.739 -0.0377 -0.3997  0.1184
10069TIP3    H151622   3.606   0.793   0.791  0.0672 -0.1115  0.2050
10069TIP3    H251623   3.577   0.847   0.653 -1.1222 -3.7224 -1.0842
10070TIP3   OH251624   3.410   5.299  14.450 -0.0065  0.0124  0.3064
10070TIP3    H151625   3.333   5.301  14.507 -0.3416  0.9935 -0.1490
10070TIP3    H251626   3.462   5.226  14.482 -1.1771 -0.7365  0.5568
10071TIP3   OH251627   3.519   6.558   3.093  0.1739  0.0787  0.1070
10071TIP3    H151628   3.496   6.476   3.137 -0.7084 -0.1080 -0.6728
10071TIP3    H251629   3.493   6.626   3.154 -0.9969 -0.1808 -0.0768
10072TIP3   OH251630   5.488   5.633  16.867  0.2463  0.3014  0.0816
10072TIP3    H151631   5.552   5.594  16.927  1.3768  1.4673 -0.3500
10072TIP3    H251632   5.496   5.727  16.880 -0.5175  0.5160 -0.8776
10073TIP3   OH251633   0.654   6.238   1.822  0.5656 -0.2238 -0.5308
10073TIP3    H151634   0.589   6.292   1.778  1.0115  0.2486 -0.6145
10073TIP3    H251635   0.695   6.296   1.886 -0.6466 -1.1060  1.1161
10074TIP3   OH251636   2.323   5.644  13.541  0.3796 -0.3660 -0.5492
10074TIP3    H151637   2.338   5.695  13.461 -0.7037  1.0242  0.0798
10074TIP3    H251638   2.324   5.553  13.513 -1.5244  0.1321 -2.4592
10075TIP3   OH251639   6.054   6.249  15.823 -0.2521 -0.5844 -0.3361
10075TIP3    H151640   6.067   6.247  15.918  0.9129  1.2069 -0.4037
10075TIP3    H251641   5.969   6.208  15.809 -0.2743 -1.2191  1.4421
10076TIP3   OH251642   4.756   5.674  13.338 -0.2940  0.2547 -0.3665
10076TIP3    H151643   4.704   5.595  13.354 -1.0091  0.4284 -1.6936
10076TIP3    H251644   4.692   5.739  13.309  0.1858  1.5506  1.3044
10077TIP3   OH251645   2.631   2.877  15.126 -0.3313 -0.0061  0.3863
10077TIP3    H151646   2.684   2.861  15.204 -1.0379 -0.8026  0.7310
10077TIP3    H251647   2.549   2.913  15.161 -0.9953 -1.1963  0.1111
10078TIP3   OH251648   0.747   2.924   3.867  0.2757 -0.2773 -0.7959
10078TIP3    H151649   0.678   2.944   3.930 -0.5876 -3.8471 -0.3801
10078TIP3    H251650   0.819   2.982   3.891 -0.8138  0.0616  2.0750
10079TIP3   OH251651   3.527   2.102  12.575  0.0850 -0.1760 -0.1466
10079TIP3    H151652   3.528   2.132  12.666 -2.2124 -0.4704  0.0142
10079TIP3    H251653   3.597   2.036  12.571  0.8285  0.4913  1.1429
10080TIP3   OH251654   1.605   2.024   0.890 -0.1875 -0.3240  0.4797
10080TIP3    H151655   1.552   2.018   0.969  0.3548 -0.4091  0.8429
10080TIP3    H251656   1.579   1.948   0.838 -2.2466  0.9649 -0.5069
10081TIP3   OH251657   3.565   2.153  14.547  0.2772  0.0082  0.0573
10081TIP3    H151658   3.634   2.214  14.521  2.1241 -1.2656  1.6398
10081TIP3    H251659   3.539   2.110  14.465  1.5621  0.3500 -0.5604
10082TIP3   OH251660   2.181   2.135  12.490 -0.2054  0.5051 -0.0635
10082TIP3    H151661   2.134   2.119  12.572 -0.6853  1.1551 -0.2071
10082TIP3    H251662   2.144   2.069  12.429  0.2470 -0.0644  0.2710
10083TIP3   OH251663   4.873   5.714  17.245 -0.1372 -0.3908  0.4743
10083TIP3    H151664   4.872   5.692  17.338  0.5553 -1.0320  0.3465
10083TIP3    H251665   4.915   5.638  17.203 -0.5071 -0.1434 -0.3661
10084TIP3   OH251666   5.784   6.604  11.026 -0.1349 -0.2504  0.2353
10084TIP3    H151667   5.743   6.576  10.943 -0.6724  1.0245  0.0529
10084TIP3    H251668   5.825   6.688  11.005  1.1722 -0.7083  0.8579
10085TIP3   OH251669   0.344   6.209  12.127  0.0680  0.2346  0.1207
10085TIP3    H151670   0.348   6.137  12.063  5.1522  0.7122 -0.4553
10085TIP3    H251671   0.324   6.286  12.074  0.3136  0.0506 -0.2484
10086TIP3   OH251672   2.252   2.668  16.096 -0.1657 -0.1298  0.2087
10086TIP3    H151673   2.165   2.631  16.109 -0.8100  1.0417 -0.5872
10086TIP3    H251674   2.237   2.748  16.046  1.3424  0.2683  0.3399
10087TIP3   OH251675   2.895   3.755   2.994  0.0601 -0.0368  0.0705
10087TIP3    H151676   2.829   3.824   2.989 -0.9665 -0.9587  0.5254
10087TIP3    H251677   2.956   3.776   2.923 -1.0608  0.4879 -0.7742
10088TIP3   OH251678   1.389   2.126   5.315 -0.3947  0.0206 -0.4139
10088TIP3    H151679   1.294   2.125   5.327 -0.3665  0.2524 -0.1403
10088TIP3    H251680   1.414   2.034   5.304 -0.1570 -0.6057  3.7399
10089TIP3   OH251681   1.892   2.608   0.245  0.0318  0.1823  0.5126
10089TIP3    H151682   1.979   2.649   0.246 -0.3996  1.1187  0.7676
10089TIP3    H251683   1.910   2.514   0.237  1.0008  0.5183 -2.9911
10090TIP3   OH251684   6.330   1.212  12.912 -0.2877 -0.1863 -0.1208
10090TIP3    H151685   6.385   1.290  12.901 -1.4147  0.5347 -0.8194
10090TIP3    H251686   6.392   1.140  12.921  0.7759  0.7333  0.1122
10091TIP3   OH251687   1.754   6.162   4.347  0.1729  0.3512 -0.0748
10091TIP3    H151688   1.753   6.208   4.263  0.6084 -2.0890 -1.5120
10091TIP3    H251689   1.716   6.076   4.328  0.0348 -0.1786  2.3014
10092TIP3   OH251690   4.488   4.627  12.358  0.2207 -0.2313  0.3057
10092TIP3    H151691   4.560   4.573  12.326  0.4341 -0.0543  0.4866
10092TIP3    H251692   4.467   4.686  12.286 -0.1294 -0.6689  0.0412
10093TIP3   OH251693   5.829   5.487  11.220 -0.4136 -0.1542  0.4878
10093TIP3    H151694   5.753   5.485  11.162  0.1489 -1.3424 -0.2564
10093TIP3    H251695   5.860   5.577  11.217 -0.8022 -0.0436 -0.5367
10094TIP3   OH251696   2.363   1.710  16.689  0.6359  0.1868 -0.3375
10094TIP3    H151697   2.451   1.677  16.703  0.3453 -0.4526  0.0047
10094TIP3    H251698   2.347   1.698  16.595  0.1915 -1.5344 -0.0762
10095TIP3   OH251699   1.472   5.099  11.848 -0.1728  0.4481 -0.3001
10095TIP3    H151700   1.546   5.145  11.809 -0.1996  1.1613  0.4531
10095TIP3    H251701   1.451   5.030  11.786  1.0203  0.3331 -0.5992
10096TIP3   OH251702   4.700   4.166   2.667  0.1801 -0.4329 -0.2866
10096TIP3    H151703   4.774   4.158   2.728  0.0222 -1.3563 -0.1981
10096TIP3    H251704   4.657   4.081   2.672 -1.0510  0.1812 -0.1418
10097TIP3   OH251705   0.649   5.565  11.947 -0.5371  0.2521  0.0120
10097TIP3    H151706   0.573   5.611  11.982 -0.4624 -1.3463  2.4974
10097TIP3    H251707   0.721   5.588  12.005  0.4223  0.1224 -1.0866
10098TIP3   OH251708   6.722   2.135  15.142  0.3527 -0.3204  1.0212
10098TIP3    H151709   6.783   2.206  15.123  0.9642 -0.6609  1.6595
10098TIP3    H251710   6.700   2.147  15.235 -1.0902  0.1951  0.6504
10099TIP3   OH251711   1.585   1.425   4.977 -0.5252  0.0774 -0.2937
10099TIP3    H151712   1.569   1.350   5.033 -2.2438  1.7804  1.6440
10099TIP3    H251713   1.571   1.392   4.888  0.0918 -2.1676  0.3781
10100TIP3   OH251714   3.919   5.939   3.673 -0.2784 -0.7017 -0.1926
10100TIP3    H151715   3.939   5.998   3.601 -1.6940 -0.8898 -0.7578
10100TIP3    H251716   3.856   5.987   3.727 -0.1572 -1.0433  0.2592
10101TIP3   OH251717   1.926   4.090  14.892  0.1734  0.5208  0.1096
10101TIP3    H151718   1.868   4.100  14.817 -0.5668  0.3513  0.6550
10101TIP3    H251719   1.870   4.102  14.968  0.7783 -0.0216  0.6530
10102TIP3   OH251720   6.371   0.698  15.923 -0.2770 -0.1870  0.1972
10102TIP3    H151721   6.289   0.744  15.901 -0.7178 -1.0340  0.0409
10102TIP3    H251722   6.405   0.744  15.999  0.5472  1.9476 -1.3508
10103TIP3   OH251723   6.259   2.500   3.146 -0.2679  0.5813  0.4825
10103TIP3    H151724   6.189   2.438   3.167 -1.2966  1.4800 -0.1606
10103TIP3    H251725   6.228   2.544   3.067  1.6702  0.0592 -0.6257
10104TIP3   OH251726   6.264   6.495  12.532  0.3648  0.2374  1.2904
10104TIP3    H151727   6.271   6.400  12.522 -2.3189  0.2695 -3.0988
10104TIP3    H251728   6.346   6.529  12.497  1.1541 -0.3435  2.4849
10105TIP3   OH251729   6.146   6.521  14.148  0.0575  0.7997 -0.0819
10105TIP3    H151730   6.061   6.564  14.136 -0.1246  0.5721  0.3827
10105TIP3    H251731   6.163   6.478  14.064 -1.5574 -1.4131  0.6361
10106TIP3   OH251732   6.078   1.026  14.751 -0.5608  0.2031 -0.3572
10106TIP3    H151733   5.989   0.999  14.731 -0.2460 -1.1811 -0.0094
10106TIP3    H251734   6.118   1.043  14.666 -1.3106  1.3887 -0.4847
10107TIP3   OH251735   4.505   4.946  13.708  0.1835  0.5708  0.2771
10107TIP3    H151736   4.464   4.877  13.760  1.0399 -0.2678 -0.1086
10107TIP3    H251737   4.572   4.983  13.766 -0.3485  1.1567  0.5205
10108TIP3   OH251738   1.829   3.808   0.508  0.3390 -0.6262  0.0676
10108TIP3    H151739   1.881   3.729   0.491  0.3790 -0.4913 -0.4746
10108TIP3    H251740   1.827   3.816   0.603  0.6434 -1.0783  0.1151
10109TIP3   OH251741   5.072   1.794   1.209  0.3678  0.2528  0.4110
10109TIP3    H151742   5.096   1.705   1.184 -0.7755 -0.5888  2.0906
10109TIP3    H251743   5.002   1.818   1.147 -0.4957 -0.6943  0.9971
10110TIP3   OH251744   0.422   3.149   1.608 -0.0220 -0.0874  0.0621
10110TIP3    H151745   0.406   3.242   1.588 -3.9635 -0.3759  0.9296
10110TIP3    H251746   0.437   3.148   1.702  0.7725 -0.2916 -0.0628
10111TIP3   OH251747   0.062   6.381   3.341 -0.7885  0.4652  0.2525
10111TIP3    H151748   0.107   6.466   3.342 -2.1355  1.2121 -0.3268
10111TIP3    H251749   0.090   6.340   3.259 -2.9111  1.9451 -1.3069
10112TIP3   OH251750   2.050   5.946  16.827  0.4269 -0.5698  0.1120
10112TIP3    H151751   1.956   5.957  16.838  0.4626 -1.4170  1.5733
10112TIP3    H251752   2.072   5.996  16.748 -0.7907  1.9198  1.2434
10113TIP3   OH251753   1.895   3.557   2.635 -0.2459 -0.8686 -0.9444
10113TIP3    H151754   1.897   3.478   2.688  2.9159  0.8323  1.9183
10113TIP3    H251755   1.972   3.550   2.578 -0.0762 -0.0087 -0.8425
10114TIP3   OH251756   3.675   1.584  14.002  0.4019 -0.3390 -0.0871
10114TIP3    H151757   3.638   1.507  14.045 -1.4406  0.6654  0.2171
10114TIP3    H251758   3.731   1.548  13.933 -1.2267 -1.9589 -0.6414
10115TIP3   OH251759   1.687   2.068   2.321  0.3403 -0.3678  0.3594
10115TIP3    H151760   1.708   1.987   2.274  2.3226  0.1113  0.3208
10115TIP3    H251761   1.755   2.130   2.293 -0.5001  0.9839  1.2071
10116TIP3   OH251762   4.237   6.578   3.146 -0.2156 -0.2934 -0.1304
10116TIP3    H151763   4.147   6.554   3.170 -0.6006  0.2484 -0.9584
10116TIP3    H251764   4.242   6.561   3.052  0.2740  0.4772 -0.2552
10117TIP3   OH251765   3.335   6.124  11.668  0.2590  0.2977 -0.6702
10117TIP3    H151766   3.333   6.078  11.752  0.1130  0.7474 -0.4244
10117TIP3    H251767   3.388   6.068  11.612 -0.6473 -0.6168 -0.6440
10118TIP3   OH251768   5.201   4.588  14.648  0.0759 -0.1311 -0.0049
10118TIP3    H151769   5.155   4.630  14.721 -1.4205  1.1096 -1.5965
10118TIP3    H251770   5.145   4.513  14.625 -0.5767  0.6855 -1.1759
10119TIP3   OH251771   6.545   2.546   3.626 -0.0698  0.3863 -0.6256
10119TIP3    H151772   6.492   2.618   3.661  0.0362 -0.0704  0.5160
10119TIP3    H251773   6.567   2.493   3.703 -0.4280 -1.0712 -1.4988
10120TIP3   OH251774   1.671   4.748   1.102  0.6520 -0.0346 -0.5349
10120TIP3    H151775   1.689   4.655   1.089 -0.9118 -0.5162  0.4951
10120TIP3    H251776   1.578   4.758   1.080  0.4768  1.0149  0.5878
10121TIP3   OH251777   5.053   5.617   1.779  0.2225  0.3368  0.1658
10121TIP3    H151778   5.075   5.710   1.786  0.7658  0.1972  0.4133
10121TIP3    H251779   5.103   5.586   1.704 -0.1720  0.2999 -0.0848
10122TIP3   OH251780   5.937   4.948   1.671  0.2767 -0.4383  0.0901
10122TIP3    H151781   5.881   4.979   1.600 -0.9374 -0.4690  1.0045
10122TIP3    H251782   5.940   5.022   1.733 -0.2441 -1.0696  0.8903
10123TIP3   OH251783   3.546   4.508   6.495 -0.4436  0.0730  0.0091
10123TIP3    H151784   3.500   4.426   6.515  1.1295 -1.2580 -1.4983
10123TIP3    H251785   3.534   4.520   6.401  0.9036  0.5549 -0.1179
10124TIP3   OH251786   0.454   5.438  12.424  0.0341  0.2606  0.0850
10124TIP3    H151787   0.527   5.394  12.468 -1.1150 -1.3759  0.4419
10124TIP3    H251788   0.442   5.390  12.342 -1.3334 -0.2543  0.5482
10125TIP3   OH251789   4.672   5.179  15.262 -0.1201 -0.4588  0.6259
10125TIP3    H151790   4.585   5.158  15.294 -0.8189 -0.8153 -1.4029
10125TIP3    H251791   4.706   5.097  15.227  1.1653 -0.3890  1.6294
10126TIP3   OH251792   0.026   1.672  13.243 -0.4113 -0.0455 -0.3976
10126TIP3    H151793   0.045   1.649  13.152 -1.3395 -0.3258 -0.5338
10126TIP3    H251794   0.090   1.740  13.264  0.1319 -0.3195 -1.1011
10127TIP3   OH251795   6.155   3.563  16.829 -0.5970  0.1816 -0.7383
10127TIP3    H151796   6.131   3.533  16.741 -1.6589  0.6165 -0.6063
10127TIP3    H251797   6.072   3.587  16.870 -0.4808 -2.4734  1.3391
10128TIP3   OH251798   5.305   1.191  16.396 -0.0089 -0.7442 -0.5694
10128TIP3    H151799   5.388   1.235  16.378 -0.1537 -0.6722 -1.0890
10128TIP3    H251800   5.318   1.102  16.363 -0.3687 -0.5367 -1.2939
10129TIP3   OH251801   4.322   3.143  13.362 -0.1839  0.0715 -0.1988
10129TIP3    H151802   4.351   3.056  13.388 -0.8146 -0.3395 -0.8174
10129TIP3    H251803   4.384   3.169  13.294  0.6067  0.5411  0.6867
10130TIP3   OH251804   6.677   6.141   2.060 -0.4993 -0.0925 -0.0783
10130TIP3    H151805   6.728   6.211   2.018 -3.0073  1.9146  0.0038
10130TIP3    H251806   6.670   6.073   1.993  1.8444 -0.2932 -0.2240
10131TIP3   OH251807   4.401   0.441  11.222 -0.6068 -0.0943  0.1586
10131TIP3    H151808   4.320   0.424  11.175 -0.5236 -0.3464  0.1018
10131TIP3    H251809   4.378   0.507  11.288 -0.8540 -0.1568  0.1345
10132TIP3   OH251810   4.702   5.093  10.916 -0.0779 -0.2083  0.4484
10132TIP3    H151811   4.615   5.056  10.930 -0.0918 -0.3219  0.0727
10132TIP3    H251812   4.689   5.157  10.846 -0.0339  0.4398  1.0257
10133TIP3   OH251813   6.668   0.293  16.883 -0.2906  0.6743 -0.0685
10133TIP3    H151814   6.723   0.222  16.851  2.0543  2.4725 -0.3461
10133TIP3    H251815   6.608   0.252  16.945  1.0925 -1.5020 -0.0755
10134TIP3   OH251816   3.892   6.138   2.746  0.1043 -0.0707 -0.0542
10134TIP3    H151817   3.958   6.198   2.710 -0.2581 -0.2702 -1.0962
10134TIP3    H251818   3.827   6.129   2.676  0.2827 -1.8973 -0.0366
10135TIP3   OH251819   4.147   5.699   6.482 -0.1980  0.3299 -0.6582
10135TIP3    H151820   4.168   5.778   6.431  2.0268 -0.6606 -1.3920
10135TIP3    H251821   4.202   5.631   6.444 -1.5186 -1.4276  0.4542
10136TIP3   OH251822   3.596   1.007  13.461 -0.1134  0.4473  0.0285
10136TIP3    H151823   3.524   0.958  13.501 -0.3284  1.0401  0.3921
10136TIP3    H251824   3.553   1.073  13.407  0.1763 -0.0100 -0.7819
10137TIP3   OH251825   3.529   6.247  15.347 -0.1246 -0.4242 -0.3787
10137TIP3    H151826   3.490   6.165  15.316 -2.4271 -0.2498  1.7851
10137TIP3    H251827   3.479   6.315  15.302 -0.3191 -0.1996  0.1769
10138TIP3   OH251828   0.053   5.706   2.971 -0.6339  0.2910  0.2840
10138TIP3    H151829  -0.008   5.634   2.986 -0.5554  0.3022  0.6698
10138TIP3    H251830   0.069   5.743   3.058 -0.4527  0.5951  0.1250
10139TIP3   OH251831   3.726   4.078   1.357  0.1765  0.0896 -0.4868
10139TIP3    H151832   3.785   4.062   1.283  1.1811 -0.7536  0.4772
10139TIP3    H251833   3.697   3.991   1.384  0.7408  0.2986  0.8450
10140TIP3   OH251834   3.438   0.374  12.859  0.2303  0.5680  0.6840
10140TIP3    H151835   3.402   0.393  12.945  1.1641  0.3047  1.1500
10140TIP3    H251836   3.529   0.347  12.876 -0.5772 -3.1527  0.0333
10141TIP3   OH251837   4.627   0.529   5.528  0.5084  0.4752  0.0391
10141TIP3    H151838   4.599   0.552   5.617  0.2741  0.9730 -0.1613
10141TIP3    H251839   4.648   0.613   5.487 -2.5914  0.6429 -1.4688
10142TIP3   OH251840   5.867   2.027   0.890 -0.0339 -0.0831  0.0829
10142TIP3    H151841   5.778   1.997   0.908 -0.0862 -1.7357 -2.4627
10142TIP3    H251842   5.860   2.122   0.884 -2.0712 -0.2689 -1.8184
10143TIP3   OH251843   1.878   5.503   4.624  0.4493  0.7253 -0.1028
10143TIP3    H151844   1.884   5.461   4.538 -0.9013  0.0565  0.1081
10143TIP3    H251845   1.930   5.446   4.682 -1.7766 -1.0503  0.2867
10144TIP3   OH251846   4.645   2.269  10.455  0.2551 -0.2143 -0.5818
10144TIP3    H151847   4.678   2.201  10.513  1.5435  1.3656  0.6419
10144TIP3    H251848   4.551   2.252  10.449  0.0143 -0.2731  2.2311
10145TIP3   OH251849   5.608   3.523  13.955  0.1454  0.1354 -0.1622
10145TIP3    H151850   5.644   3.442  13.992 -0.4763  0.0036  0.1703
10145TIP3    H251851   5.655   3.535  13.873  1.3526  0.2726  0.5262
10146TIP3   OH251852   4.788   5.034   2.288  0.2886 -0.7305  0.1223
10146TIP3    H151853   4.725   5.105   2.303  0.9700 -0.3250  1.1218
10146TIP3    H251854   4.741   4.954   2.313 -0.4848 -0.6641 -1.0074
10147TIP3   OH251855   1.017   4.815   0.913  0.2781  0.0136 -0.4492
10147TIP3    H151856   1.012   4.853   1.001 -1.7047  1.0785 -0.9744
10147TIP3    H251857   1.077   4.872   0.866  1.7042 -0.8143  0.2784
10148TIP3   OH251858   5.690   4.321   0.185 -0.5943  0.0378 -0.2396
10148TIP3    H151859   5.782   4.320   0.158 -0.7976 -1.5159 -1.0193
10148TIP3    H251860   5.641   4.320   0.103 -1.3796  2.8080  0.1135
10149TIP3   OH251861   2.887   6.601  14.416  0.2499  0.3591 -0.1701
10149TIP3    H151862   2.856   6.691  14.417 -0.6800  0.0538  0.1367
10149TIP3    H251863   2.882   6.574  14.324 -2.1922 -0.2428  0.0730
10150TIP3   OH251864   0.587   4.215   1.748 -0.0937  0.7702  0.3606
10150TIP3    H151865   0.639   4.215   1.829  0.9045 -0.0886 -0.2415
10150TIP3    H251866   0.639   4.266   1.686  0.9756 -1.5500 -0.7714
10151TIP3   OH251867   2.980   3.381  14.904 -0.2165 -0.0855 -0.2118
10151TIP3    H151868   2.904   3.418  14.860 -0.9880  0.6895  1.6924
10151TIP3    H251869   3.004   3.445  14.970 -0.0713 -1.8460  1.5429
10152TIP3   OH251870   1.823   2.325  11.998 -0.9342 -0.0984  0.2177
10152TIP3    H151871   1.901   2.333  11.943 -1.0179  0.0546  0.1196
10152TIP3    H251872   1.831   2.396  12.062  0.3260 -1.6810  1.8783
10153TIP3   OH251873   6.685   5.469   1.609  0.4474 -0.2711  0.2873
10153TIP3    H151874   6.680   5.524   1.688  1.0887  0.5118 -0.2071
10153TIP3    H251875   6.667   5.529   1.537  2.0997 -0.4971 -0.3360
10154TIP3   OH251876   4.936   6.614   1.893 -0.1926 -0.4049 -0.2648
10154TIP3    H151877   4.882   6.592   1.817  0.5217  0.3188 -1.0046
10154TIP3    H251878   4.908   6.703   1.917  1.3053  0.3528 -1.2465
10155TIP3   OH251879   4.725   0.824  11.862 -0.3446  0.0456 -0.6124
10155TIP3    H151880   4.670   0.747  11.848 -0.6791  0.2863 -0.6330
10155TIP3    H251881   4.709   0.879  11.786 -0.5083  0.3721 -0.3463
10156TIP3   OH251882   1.822   2.765  13.142 -0.1640 -0.6069  0.1660
10156TIP3    H151883   1.761   2.691  13.139  0.2367 -1.0688  2.2672
10156TIP3    H251884   1.906   2.726  13.165  0.8138  0.1220 -1.9267
10157TIP3   OH251885   4.139   3.641   1.840  0.2073  0.2404  0.2237
10157TIP3    H151886   4.118   3.583   1.914 -1.0604  2.8387  2.0769
10157TIP3    H251887   4.099   3.725   1.864  1.6923  1.8301 -2.4284
10158TIP3   OH251888   6.436   2.041   2.115  0.1194  0.1275  0.4086
10158TIP3    H151889   6.505   2.083   2.166  0.7422  0.4057 -0.6326
10158TIP3    H251890   6.430   1.953   2.152  0.4755  0.3529  1.0285
10159TIP3   OH251891   6.080   1.635   4.243  0.4465 -0.3910  0.1628
10159TIP3    H151892   6.020   1.704   4.214 -4.1823 -3.5708  0.9760
10159TIP3    H251893   6.144   1.680   4.298 -0.3790  3.5288 -1.7261
10160TIP3   OH251894   0.025   3.842  16.316  0.2516 -0.6413  0.3563
10160TIP3    H151895   0.062   3.927  16.340 -0.2134 -0.1368 -0.6716
10160TIP3    H251896  -0.067   3.860  16.299  0.5769 -0.8966 -2.0411
10161TIP3   OH251897   0.829   2.144  11.176 -0.2178  0.3528 -0.0585
10161TIP3    H151898   0.834   2.208  11.247  0.6136  0.1070  0.1205
10161TIP3    H251899   0.864   2.063  11.213  0.7581  0.3649 -0.8814
10162TIP3   OH251900   3.809   6.425  16.299  0.1283  0.3914 -0.5716
10162TIP3    H151901   3.737   6.479  16.332 -0.4913 -0.2285 -0.8726
10162TIP3    H251902   3.833   6.369  16.373  0.5725  0.8602 -0.3516
10163TIP3   OH251903   4.684   0.715   4.134  0.1636  0.1610  0.4100
10163TIP3    H151904   4.633   0.656   4.079  1.0492  1.2340 -1.7053
10163TIP3    H251905   4.642   0.711   4.220 -1.2527 -1.6620 -0.2985
10164TIP3   OH251906   6.020   2.981  11.129  0.0981 -0.4819  0.4420
10164TIP3    H151907   5.950   2.996  11.193  0.0396 -0.3937  0.3579
10164TIP3    H251908   6.015   3.056  11.070  1.3562  0.4448  1.4348
10165TIP3   OH251909   1.403   5.103   5.185  0.2335  0.0889 -0.1012
10165TIP3    H151910   1.389   5.048   5.262 -0.1162  0.0716 -0.1737
10165TIP3    H251911   1.470   5.166   5.213  0.4223 -0.1857  0.0759
10166TIP3   OH251912   5.270   4.102  17.002  0.0963  0.0152  0.7696
10166TIP3    H151913   5.243   4.057  16.922  0.0462 -0.2775  0.9484
10166TIP3    H251914   5.365   4.091  17.004  0.0967  0.0163  0.7543
10167TIP3   OH251915   4.788   6.333  12.926  0.1255 -0.0057 -0.3094
10167TIP3    H151916   4.773   6.239  12.917 -1.0764  0.1648 -0.2556
10167TIP3    H251917   4.716   6.374  12.879 -0.0595  0.8844  0.6865
10168TIP3   OH251918   3.880   0.952   4.939  0.0353  0.2622 -0.2409
10168TIP3    H151919   3.848   0.885   4.878  0.8265  0.6260 -1.0801
10168TIP3    H251920   3.802   0.978   4.988 -0.4906 -0.5159 -0.6342
10169TIP3   OH251921   4.343   4.331   2.850  0.7518  0.1578 -0.1096
10169TIP3    H151922   4.354   4.303   2.760  2.8950  0.1501  0.0893
10169TIP3    H251923   4.396   4.411   2.857 -1.7245  1.8533  0.4398
10170TIP3   OH251924   4.848   3.669  16.760  0.1424  0.5365  0.0820
10170TIP3    H151925   4.768   3.719  16.743  0.2717  0.2789 -1.3860
10170TIP3    H251926   4.842   3.647  16.853 -0.3315  2.5200  0.5835
10171TIP3   OH251927   0.016   3.198  11.569  0.2931  0.0091 -0.4770
10171TIP3    H151928   0.109   3.179  11.573 -0.1383 -2.1363  0.9471
10171TIP3    H251929  -0.000   3.222  11.477  2.1446  0.0429 -0.8277
10172TIP3   OH251930   1.949   4.368  16.586 -0.6161 -0.2750  0.4420
10172TIP3    H151931   1.963   4.431  16.657 -1.5105 -1.6789  1.9415
10172TIP3    H251932   1.901   4.417  16.520  0.4573  1.1493  0.6719
10173TIP3   OH251933   2.570   2.783   0.932  0.3401 -0.9833  0.3599
10173TIP3    H151934   2.548   2.706   0.985 -0.4760  0.1417  1.7048
10173TIP3    H251935   2.488   2.808   0.891  0.7198 -1.1183 -0.5253
10174TIP3   OH251936   4.923   2.125   3.331  0.3739 -0.5613 -0.1080
10174TIP3    H151937   4.932   2.088   3.419  0.6672 -0.2997 -0.0260
10174TIP3    H251938   4.923   2.219   3.344  0.6080 -0.5170 -0.4026
10175TIP3   OH251939   0.259   1.171   3.981  0.1987 -0.9341 -0.2134
10175TIP3    H151940   0.346   1.186   4.017  0.0841  2.5162 -1.0184
10175TIP3    H251941   0.201   1.171   4.057  0.7660 -2.4255  0.2540
10176TIP3   OH251942   1.300   4.794  11.508 -0.1991  0.0293  0.1361
10176TIP3    H151943   1.357   4.825  11.578  0.4988 -1.3347  0.2051
10176TIP3    H251944   1.245   4.728  11.549 -0.3766 -0.1702 -0.4116
10177TIP3   OH251945   0.477   3.591  14.680  0.0073  0.3024  0.1747
10177TIP3    H151946   0.512   3.601  14.591 -0.5698 -1.9060 -0.3480
10177TIP3    H251947   0.427   3.672  14.695  1.3575  1.3894 -0.8779
10178TIP3   OH251948   1.172   6.458  10.759  0.1570  0.0510  0.3366
10178TIP3    H151949   1.255   6.437  10.802  1.0342  0.3499 -1.1568
10178TIP3    H251950   1.120   6.378  10.764 -0.1283  0.3037  2.6553
10179TIP3   OH251951   1.618   0.167   5.508  0.2570  0.0539 -1.1780
10179TIP3    H151952   1.602   0.130   5.595 -1.0982 -2.5193 -2.4158
10179TIP3    H251953   1.538   0.150   5.459  1.1510  0.9858 -3.0866
10180TIP3   OH251954   4.362   0.474  13.445 -0.1756 -0.3166  0.2468
10180TIP3    H151955   4.290   0.509  13.393 -0.9074 -1.6153  0.3313
10180TIP3    H251956   4.441   0.511  13.405 -0.8761  1.1294  0.1496
10181TIP3   OH251957   1.504   0.037   6.046  0.5028  0.5656 -0.7657
10181TIP3    H151958   1.486   0.127   6.017 -0.0579  0.2891 -1.2845
10181TIP3    H251959   1.473   0.035   6.136  0.2415  0.8072 -0.8486
10182TIP3   OH251960   5.873   4.362   5.046 -0.9401  0.3692 -0.1452
10182TIP3    H151961   5.968   4.367   5.034 -0.9444 -0.4764 -0.6359
10182TIP3    H251962   5.848   4.450   5.072 -0.0269  0.6217 -0.0592
10183TIP3   OH251963   3.842   2.562  13.438  0.4711  0.4652 -0.0967
10183TIP3    H151964   3.822   2.515  13.358  0.8292  0.9995 -0.5043
10183TIP3    H251965   3.806   2.507  13.508 -0.3642  0.2871 -0.6544
10184TIP3   OH251966   3.451   2.793   5.859 -0.4325  0.0070  0.2995
10184TIP3    H151967   3.544   2.795   5.838 -0.5202 -1.1075 -0.2193
10184TIP3    H251968   3.439   2.866   5.920  0.4780  1.1476 -0.8336
10185TIP3   OH251969   4.035   6.583   2.125  0.1543  0.2185  0.3639
10185TIP3    H151970   3.962   6.638   2.096  1.6157  1.1450 -1.8332
10185TIP3    H251971   4.043   6.517   2.056  2.0266  0.8029 -0.0270
10186TIP3   OH251972   3.095   3.670   1.021  0.5560 -0.5118  0.0705
10186TIP3    H151973   3.187   3.645   1.014  0.6156 -0.4439  0.5882
10186TIP3    H251974   3.047   3.589   1.004  0.7187 -0.6451  0.2476
10187TIP3   OH251975   2.491   6.673   0.090  0.1448  0.0539 -0.5753
10187TIP3    H151976   2.579   6.642   0.111  0.2890  0.4668 -0.5705
10187TIP3    H251977   2.504   6.746   0.029 -0.1121  1.1041  0.5840
10188TIP3   OH251978   2.060   2.057   4.052 -0.1012  0.5918  0.2124
10188TIP3    H151979   1.967   2.078   4.055  0.3735  3.3039 -0.9861
10188TIP3    H251980   2.078   2.042   3.959  0.9946  1.9798  0.1812
10189TIP3   OH251981   2.876   5.941  13.215  0.2543 -0.0315 -0.0679
10189TIP3    H151982   2.824   5.861  13.221 -0.1962  0.1273 -1.4556
10189TIP3    H251983   2.853   5.978  13.129 -1.1566  2.6922  1.3458
10190TIP3   OH251984   3.401   1.557   2.117  0.4103  0.2853 -0.1210
10190TIP3    H151985   3.359   1.636   2.084 -1.0450 -0.8076 -1.0048
10190TIP3    H251986   3.492   1.566   2.089  0.2919  1.6464 -0.1651
10191TIP3   OH251987   3.748   0.182  10.873 -0.5242 -0.2012 -0.1242
10191TIP3    H151988   3.670   0.149  10.918 -1.1770 -2.8198 -2.8210
10191TIP3    H251989   3.716   0.207  10.786  1.5217 -0.9318 -1.1567
10192TIP3   OH251990   0.112   5.005   0.277 -0.7174  0.4081 -0.2321
10192TIP3    H151991   0.205   5.015   0.298 -1.0016  2.1713  0.3906
10192TIP3    H251992   0.083   4.931   0.331  0.6575 -1.3080 -1.7280
10193TIP3   OH251993   1.881   1.588  11.683 -0.4933  0.7299 -0.9893
10193TIP3    H151994   1.904   1.495  11.683  1.2388  1.1127 -1.6322
10193TIP3    H251995   1.788   1.590  11.703 -0.3420 -1.0747  0.1191
10194TIP3   OH251996   4.143   2.325  11.418 -0.2223  0.5560 -0.1047
10194TIP3    H151997   4.096   2.404  11.390 -0.1309  0.4815 -0.4746
10194TIP3    H251998   4.202   2.305  11.345 -2.2157 -1.4832 -1.2781
10195TIP3   OH251999   6.667   0.468   4.530 -0.6946 -0.2117  0.4787
10195TIP3    H152000   6.632   0.435   4.448 -1.7536  0.4390  0.6458
10195TIP3    H252001   6.618   0.549   4.546  2.4770  2.0996 -0.4567
10196TIP3   OH252002   6.066   0.180   3.216 -0.0269 -0.3504  0.5093
10196TIP3    H152003   5.984   0.132   3.204 -0.7458  0.6863  1.1282
10196TIP3    H252004   6.102   0.147   3.299 -0.0245 -0.5133  0.4431
10197TIP3   OH252005   1.089   5.342   6.521 -0.2885  0.7069  0.1205
10197TIP3    H152006   1.154   5.288   6.565  0.5549  1.5814  0.0011
10197TIP3    H252007   1.013   5.285   6.510  0.0522 -0.0016  1.2721
10198TIP3   OH252008   0.560   1.343  11.485 -0.2828 -0.0453 -0.1941
10198TIP3    H152009   0.576   1.312  11.574 -0.4640 -0.4914 -0.3095
10198TIP3    H252010   0.628   1.409  11.469 -0.2460  0.0296  0.2677
10199TIP3   OH252011   3.626   3.807   0.297  0.3299  0.1836 -0.4644
10199TIP3    H152012   3.566   3.777   0.366 -0.6640  2.2138 -0.3763
10199TIP3    H252013   3.616   3.744   0.227 -2.0025  0.4942 -0.4763
10200TIP3   OH252014   3.320   3.193  12.527 -0.0741 -0.1838 -0.1344
10200TIP3    H152015   3.371   3.267  12.559  0.4182 -0.6118  0.0745
10200TIP3    H252016   3.349   3.181  12.436 -0.7568  0.3991 -0.4444
10201TIP3   OH252017   3.455   4.010   3.805  0.5103 -0.3236 -0.1733
10201TIP3    H152018   3.524   3.944   3.804  0.0350 -0.8508 -1.8060
10201TIP3    H252019   3.488   4.080   3.748 -0.3284 -0.6385 -1.0659
10202TIP3   OH252020   5.980   5.702   1.717  0.6697  0.2302 -0.0851
10202TIP3    H152021   5.946   5.791   1.704 -0.5759  0.3230  2.8775
10202TIP3    H252022   6.059   5.698   1.663  0.7958  3.1790 -0.2923
10203TIP3   OH252023   2.618   3.628   1.766 -0.1980 -0.3015  0.1578
10203TIP3    H152024   2.709   3.600   1.773  0.1941  0.7274 -0.6516
10203TIP3    H252025   2.576   3.593   1.845  1.1019  0.0334  1.0283
10204TIP3   OH252026   4.435   0.275   2.571 -0.6024  0.5091 -0.3665
10204TIP3    H152027   4.353   0.226   2.569 -0.1651 -0.2139 -1.6883
10204TIP3    H252028   4.414   0.357   2.525 -0.7290  0.5763 -0.1915
10205TIP3   OH252029   2.283   4.982  15.217  0.5397  0.1234  0.5155
10205TIP3    H152030   2.287   4.968  15.312 -0.7246  2.3104  0.9522
10205TIP3    H252031   2.232   5.062  15.207 -0.3821 -0.6995 -2.0927
10206TIP3   OH252032   6.512   4.783   5.505 -0.0761  0.0127 -0.0646
10206TIP3    H152033   6.563   4.785   5.587 -0.5057  0.9185  0.1971
10206TIP3    H252034   6.422   4.771   5.534 -0.4504  1.9523 -0.2552
10207TIP3   OH252035   5.909   2.194  16.272 -0.0236 -0.3079 -0.2948
10207TIP3    H152036   5.992   2.177  16.317 -0.7533 -2.0296  0.5207
10207TIP3    H252037   5.919   2.151  16.187  0.9724  2.0665 -1.4737
10208TIP3   OH252038   2.960   2.676   3.494  0.2207 -0.3291  0.1001
10208TIP3    H152039   3.024   2.606   3.508 -0.2130 -0.8939 -0.6894
10208TIP3    H252040   3.014   2.752   3.470  0.6718 -0.4518  0.6893
10209TIP3   OH252041   2.823   0.684   4.263 -0.3188 -0.3388 -0.2711
10209TIP3    H152042   2.902   0.642   4.230  0.0259 -0.4648  0.6832
10209TIP3    H252043   2.841   0.701   4.356 -0.3930  2.0333 -0.6203
10210TIP3   OH252044   2.101   6.305   3.937 -0.2657  0.5244  0.0005
10210TIP3    H152045   2.144   6.390   3.937  1.7009 -0.4275 -0.4531
10210TIP3    H252046   2.071   6.294   3.847 -0.9173  0.8982  0.1617
10211TIP3   OH252047   1.292   3.764   3.323 -0.1083 -0.0018  0.2167
10211TIP3    H152048   1.292   3.720   3.408  0.4170  1.3277  0.9465
10211TIP3    H252049   1.245   3.846   3.339  0.1271  0.3298 -0.7376
10212TIP3   OH252050   5.411   1.856  12.067  0.6198 -0.7704 -0.2410
10212TIP3    H152051   5.382   1.767  12.047  1.0066 -1.2187  1.0633
10212TIP3    H252052   5.498   1.862  12.029  0.2574 -0.6457 -1.0712
10213TIP3   OH252053   1.015   4.025  12.962 -0.5385 -0.3051  0.3704
10213TIP3    H152054   1.103   3.999  12.989  0.4140  1.6842 -0.6788
10213TIP3    H252055   1.020   4.033  12.867 -1.3712  1.4940  0.4470
10214TIP3   OH252056   1.567   0.338   2.918  0.4788 -0.0766  0.1044
10214TIP3    H152057   1.585   0.430   2.898  2.4925  0.1099  2.3388
10214TIP3    H252058   1.507   0.341   2.992  1.2022 -0.5242  0.7230
10215TIP3   OH252059   1.767   5.939  16.045  0.5342 -0.3189  0.6514
10215TIP3    H152060   1.802   5.871  16.102 -0.2899 -1.1162  0.2485
10215TIP3    H252061   1.811   6.020  16.072  1.8180 -1.0760  0.8847
10216TIP3   OH252062   2.078   0.606  15.782 -0.0844  0.0836 -0.5494
10216TIP3    H152063   2.061   0.514  15.799 -0.5396  0.1957 -0.3868
10216TIP3    H252064   2.102   0.609  15.689  2.5891 -0.5572  0.0241
10217TIP3   OH252065   6.512   2.540  12.946 -0.4263  0.5505  0.1581
10217TIP3    H152066   6.503   2.445  12.946  0.5737  0.4410 -0.9827
10217TIP3    H252067   6.425   2.572  12.922 -0.3529 -0.1438 -1.1036
10218TIP3   OH252068   6.295   0.651  10.603 -0.1476 -0.4935 -0.5358
10218TIP3    H152069   6.287   0.604  10.519  3.1610  0.4350 -1.5301
10218TIP3    H252070   6.387   0.678  10.606 -0.9318  2.3411  1.9322
10219TIP3   OH252071   3.146   2.598   2.407  0.0892 -1.0254 -0.4303
10219TIP3    H152072   3.091   2.546   2.466 -0.5718 -1.6049 -1.5247
10219TIP3    H252073   3.155   2.543   2.329  0.0509  0.1759 -1.2930
10220TIP3   OH252074   1.518   0.981  13.528  0.8127  0.0627 -0.1295
10220TIP3    H152075   1.610   0.983  13.503  0.6692  2.0161 -0.6925
10220TIP3    H252076   1.513   1.036  13.606  0.3235 -1.2254  0.7836
10221TIP3   OH252077   6.129   0.930  12.661  0.1603  0.2457 -0.1174
10221TIP3    H152078   6.122   0.885  12.745  1.7048 -2.0190 -1.0678
10221TIP3    H252079   6.221   0.956  12.656 -0.0801  0.9797 -0.8077
10222TIP3   OH252080   1.850   3.198  15.634  0.3019 -0.7604 -0.0857
10222TIP3    H152081   1.755   3.211  15.643 -0.1967 -3.7148 -0.1013
10222TIP3    H252082   1.874   3.249  15.557 -1.6220 -1.3347 -1.1152
10223TIP3   OH252083   4.628   1.548  12.375 -0.0438 -0.4137 -0.2896
10223TIP3    H152084   4.701   1.490  12.355  0.8003  0.1437  1.0135
10223TIP3    H252085   4.584   1.506  12.449  0.8202  0.7511  0.9373
10224TIP3   OH252086   2.665   2.567   5.575  0.0379  0.9761 -0.2827
10224TIP3    H152087   2.590   2.586   5.518 -0.2439 -0.9930 -0.6509
10224TIP3    H252088   2.735   2.543   5.515 -0.3513 -1.4348  0.1375
10225TIP3   OH252089   0.759   6.027  16.345  0.1503  0.3503  0.0205
10225TIP3    H152090   0.739   6.077  16.265  0.4971  0.5496  0.0586
10225TIP3    H252091   0.757   5.935  16.317 -1.0180  0.3450  0.0633
10226TIP3   OH252092   3.856   5.456   1.136 -0.2157  0.0020  0.5612
10226TIP3    H152093   3.772   5.410   1.144 -0.0579 -0.1909  1.1427
10226TIP3    H252094   3.861   5.510   1.215 -0.8406  1.7723 -0.5417
10227TIP3   OH252095   3.864   4.138   5.329  0.2164 -0.6297  0.0812
10227TIP3    H152096   3.891   4.202   5.264 -2.3305  1.0198  0.5003
10227TIP3    H252097   3.887   4.178   5.413  0.5212 -1.2569  0.3035
10228TIP3   OH252098   1.842   2.393   1.982  0.8329  0.9110  0.3951
10228TIP3    H152099   1.752   2.384   1.948  1.9034 -0.1363 -2.5018
10228TIP3    H252100   1.871   2.479   1.951  1.3814  0.5249 -0.1772
10229TIP3   OH252101   2.593   5.715   6.337  0.3902  0.4127  0.0766
10229TIP3    H152102   2.662   5.769   6.300 -0.5428 -0.2039 -2.8459
10229TIP3    H252103   2.637   5.636   6.368  1.2128  0.8266 -0.0324
10230TIP3   OH252104   2.742   3.814  12.391  0.1514  0.0293  0.2276
10230TIP3    H152105   2.724   3.759  12.315  0.2672  2.0617 -1.3602
10230TIP3    H252106   2.838   3.818  12.396  0.1883  1.6863 -0.9707
10231TIP3   OH252107   4.882   4.324  16.488  0.0831  0.4738  0.4865
10231TIP3    H152108   4.944   4.277  16.543  0.2705 -0.3718 -0.4090
10231TIP3    H252109   4.910   4.305  16.399  0.0517  2.1726  0.0832
10232TIP3   OH252110   4.345   6.326  13.614 -0.2528  0.2670 -0.5019
10232TIP3    H152111   4.304   6.337  13.700 -0.1860  1.4027 -0.6033
10232TIP3    H252112   4.286   6.370  13.553 -0.3062 -0.5452 -1.0464
10233TIP3   OH252113   4.232   1.447   2.062  0.0762 -0.4287  0.1449
10233TIP3    H152114   4.183   1.365   2.056 -0.1159 -0.4619  1.7312
10233TIP3    H252115   4.305   1.436   2.001 -0.8055 -1.1452 -0.8131
10234TIP3   OH252116   3.864   2.289  14.218 -0.6002  0.3792 -0.0100
10234TIP3    H152117   3.882   2.196  14.202 -0.2348  0.9416 -3.6842
10234TIP3    H252118   3.940   2.335  14.184 -1.3193  2.1008  0.5789
10235TIP3   OH252119   3.015   6.634  15.168 -0.0403 -0.0234  0.1115
10235TIP3    H152120   3.075   6.563  15.191  1.1763  0.8499 -0.2696
10235TIP3    H252121   3.068   6.696  15.118 -1.5112  0.3045 -1.1325
10236TIP3   OH252122   1.008   4.476  13.050 -0.0774  0.4597  0.1775
10236TIP3    H152123   1.067   4.439  12.983 -0.8971  0.4911 -0.5738
10236TIP3    H252124   0.985   4.401  13.105  0.3009  0.3591  0.2033
10237TIP3   OH252125   0.391   2.832   4.191  0.0919 -0.9535 -0.0252
10237TIP3    H152126   0.348   2.780   4.259  0.1840 -0.8090  0.1454
10237TIP3    H252127   0.466   2.779   4.164  0.7170 -0.5234  0.7913
10238TIP3   OH252128   1.122   0.047  14.054 -0.7708  0.4179 -0.7085
10238TIP3    H152129   1.086   0.007  13.975  0.1374  0.0254 -0.9356
10238TIP3    H252130   1.121  -0.023  14.119  0.8890 -0.0569 -1.1265
10239TIP3   OH252131   3.863   3.374   2.589  0.0235  0.2482  0.6343
10239TIP3    H152132   3.914   3.455   2.585 -0.1994  0.3507 -0.7716
10239TIP3    H252133   3.798   3.389   2.657  1.3418  0.4203  1.8925
10240TIP3   OH252134   0.264   2.922  16.026  0.1022  0.0479 -0.0748
10240TIP3    H152135   0.333   2.878  15.976  1.7028  1.2899  0.9205
10240TIP3    H252136   0.237   2.858  16.092 -0.4469 -0.8093 -1.1035
10241TIP3   OH252137   2.347   2.137  15.936  0.1721  0.4004  0.4225
10241TIP3    H152138   2.424   2.112  15.987  0.1628  0.8354  0.6513
10241TIP3    H252139   2.283   2.164  16.001  0.3006  1.3411  0.1662
10242TIP3   OH252140   0.319   5.769   1.766  0.2688  0.1491 -0.1599
10242TIP3    H152141   0.377   5.825   1.817  0.2970  1.1979 -1.2837
10242TIP3    H252142   0.365   5.757   1.682 -0.3723 -0.4069 -0.4432
10243TIP3   OH252143   1.701   0.753   1.207 -0.1759  0.5261 -0.1336
10243TIP3    H152144   1.771   0.818   1.218  0.0362  0.5096 -1.2625
10243TIP3    H252145   1.740   0.670   1.234  0.4508  0.4169 -1.3068
10244TIP3   OH252146   2.379   3.094  12.518 -0.0832  0.1790  0.2480
10244TIP3    H152147   2.285   3.081  12.503 -0.5377  1.1553  2.0078
10244TIP3    H252148   2.398   3.042  12.596  0.7900  0.1954  0.0552
10245TIP3   OH252149   6.718   1.588  15.193 -0.7967 -0.1460  0.0527
10245TIP3    H152150   6.694   1.620  15.279  0.2037 -1.3182  0.7992
10245TIP3    H252151   6.715   1.493  15.200  1.5787 -0.3366 -0.4648
10246TIP3   OH252152   4.219   2.695   1.419  0.0652  0.2445  0.2381
10246TIP3    H152153   4.156   2.669   1.352  0.2604 -0.2319  0.2344
10246TIP3    H252154   4.303   2.699   1.373 -0.2598  3.0223 -0.2647
10247TIP3   OH252155   1.778   3.051  11.494  1.0725 -0.3738 -0.2448
10247TIP3    H152156   1.775   3.133  11.544  1.7319 -0.6835  0.3145
10247TIP3    H252157   1.769   3.079  11.403 -0.6473  0.1649  0.0487
10248TIP3   OH252158   2.119   4.846   5.433 -0.4068  0.5927  0.2834
10248TIP3    H152159   2.110   4.815   5.523  0.7444  2.3643  1.0886
10248TIP3    H252160   2.211   4.829   5.411 -1.1168 -1.5668 -1.3166
10249TIP3   OH252161   5.755   1.725  14.995  0.9149  0.0057  0.3143
10249TIP3    H152162   5.760   1.728  14.899  0.3472 -0.3927  0.2645
10249TIP3    H252163   5.842   1.750  15.025  0.7953  1.2040 -0.2831
10250TIP3   OH252164   1.072   2.427  11.698 -0.2797  0.0807  0.1845
10250TIP3    H152165   1.028   2.511  11.689  1.6560  1.1396 -0.0776
10250TIP3    H252166   1.022   2.380  11.764 -1.7423  1.2043 -0.0847
10251TIP3   OH252167   0.038   4.822   4.079 -0.9936 -0.1257 -0.8702
10251TIP3    H152168   0.067   4.757   4.015  0.9916 -0.0585 -0.1282
10251TIP3    H252169   0.043   4.776   4.163 -0.7641  0.6074 -0.4726
10252TIP3   OH252170   1.916   1.767   4.700  0.4557  0.1327  0.1576
10252TIP3    H152171   1.838   1.796   4.747 -0.5726 -1.5026 -0.4513
10252TIP3    H252172   1.970   1.846   4.691 -0.3473  0.9525  2.0541
10253TIP3   OH252173   0.095   5.006  12.272 -0.3477  0.1743  0.0908
10253TIP3    H152174   0.162   4.944  12.302  0.2875  1.2552  0.9393
10253TIP3    H252175   0.028   4.950  12.231  1.1814 -0.9177 -1.0435
10254TIP3   OH252176   3.747   3.511  13.515  0.0745  0.3576 -0.2354
10254TIP3    H152177   3.812   3.442  13.499 -0.8725 -0.6397  0.1608
10254TIP3    H252178   3.741   3.557  13.431  0.5225 -0.2048 -0.5832
10255TIP3   OH252179   2.536   3.456   5.683  0.4979  0.0066 -0.1988
10255TIP3    H152180   2.567   3.531   5.734  1.3137 -0.8222  0.5611
10255TIP3    H252181   2.472   3.493   5.623 -0.9635  0.9371  1.8086
10256TIP3   OH252182   2.722   5.470  15.470  0.0716 -0.2015 -0.2964
10256TIP3    H152183   2.797   5.515  15.432 -0.7502  0.7479 -0.8048
10256TIP3    H252184   2.759   5.422  15.545  0.5201  3.8688  2.3722
10257TIP3   OH252185   5.924   1.654   5.309 -0.6273  0.5612 -0.3241
10257TIP3    H152186   6.006   1.688   5.274 -0.2396 -0.2422 -0.2216
10257TIP3    H252187   5.941   1.641   5.403 -0.6426 -0.2329 -0.4217
10258TIP3   OH252188   0.423   2.646  16.266 -0.4430  0.1323  0.4627
10258TIP3    H152189   0.351   2.679  16.214 -0.1540  1.4965  0.8824
10258TIP3    H252190   0.461   2.576  16.213  0.7689  2.4046 -1.9191
10259TIP3   OH252191   3.928   5.630   5.669 -0.5027 -0.2079 -0.1878
10259TIP3    H152192   3.883   5.684   5.733  1.0316  1.1542 -0.1924
10259TIP3    H252193   3.859   5.598   5.610 -1.3446  2.9774 -1.0861
10260TIP3   OH252194   6.714   0.349   1.462  0.9372 -0.0265  0.5235
10260TIP3    H152195   6.729   0.400   1.383 -0.0710  0.0528  0.3788
10260TIP3    H252196   6.730   0.258   1.436  0.7702  0.0175  0.2717
10261TIP3   OH252197   2.061   0.305   5.262  0.2725 -0.1453  0.4274
10261TIP3    H152198   2.021   0.248   5.197  0.1209  1.6686 -1.1554
10261TIP3    H252199   2.104   0.374   5.211  0.4995  1.1365  2.2358
10262TIP3   OH252200   3.767   3.624   3.639  0.8148  0.5259 -0.2770
10262TIP3    H152201   3.858   3.645   3.617  0.6272  3.6886  1.3353
10262TIP3    H252202   3.744   3.686   3.709 -3.2922  1.5148 -2.1858
10263TIP3   OH252203   3.842   3.858  14.601  0.2535 -0.5259 -0.5343
10263TIP3    H152204   3.840   3.952  14.581  0.4517 -0.2659  0.6250
10263TIP3    H252205   3.864   3.853  14.694  0.5554 -1.7361 -0.6496
10264TIP3   OH252206   2.870   3.841   4.210  0.1441 -0.8137  0.1042
10264TIP3    H152207   2.947   3.877   4.254 -0.6382 -0.4504  1.2358
10264TIP3    H252208   2.817   3.805   4.281 -0.6133 -1.2802 -0.6787
10265TIP3   OH252209   5.358   6.783  16.190 -0.2087  0.1612  0.1476
10265TIP3    H152210   5.368   6.717  16.258 -0.8090  1.0258  1.1016
10265TIP3    H252211   5.373   6.866  16.235 -1.6414  0.8205 -0.5249
10266TIP3   OH252212   4.058   1.773  14.817  0.2503  0.5027 -0.0243
10266TIP3    H152213   4.143   1.778  14.772 -0.0102  0.7309 -0.4967
10266TIP3    H252214   4.041   1.862  14.846  0.7168  0.2424  1.1069
10267TIP3   OH252215   6.300   5.472  12.784 -0.2175  0.6134 -0.6495
10267TIP3    H152216   6.270   5.455  12.874 -0.1314  2.7892 -0.1633
10267TIP3    H252217   6.395   5.474  12.791 -0.2402  1.9231 -0.5367
10268TIP3   OH252218   4.674   1.226  12.697  0.2739  0.6540 -0.3165
10268TIP3    H152219   4.725   1.153  12.663  0.5685  0.0948  1.2741
10268TIP3    H252220   4.591   1.188  12.723 -0.2027  1.2003 -0.9726
10269TIP3   OH252221   4.735   5.945   2.158  0.3514  0.0484  0.2725
10269TIP3    H152222   4.795   5.870   2.159 -1.0520 -1.1618 -1.4251
10269TIP3    H252223   4.754   5.990   2.076 -0.8750 -0.2240 -0.1762
10270TIP3   OH252224   0.547   3.646  15.682 -0.5909 -0.2368 -0.1928
10270TIP3    H152225   0.513   3.586  15.749 -0.4226 -0.5199 -0.3588
10270TIP3    H252226   0.505   3.618  15.601 -1.1857  0.4320 -0.1226
10271TIP3   OH252227   5.385   0.221   4.795 -0.1696 -0.6593  0.6161
10271TIP3    H152228   5.406   0.179   4.711  0.4860  1.7407 -0.5318
10271TIP3    H252229   5.470   0.229   4.839  0.1248  1.4269 -0.2232
10272TIP3   OH252230   2.878   2.255   0.039 -0.2625 -0.7050  0.1124
10272TIP3    H152231   2.892   2.342   0.000  0.4674 -1.8006 -2.2760
10272TIP3    H252232   2.794   2.262   0.085  0.6031  1.7138  1.5087
10273TIP3   OH252233   1.499   2.517  13.458  0.1322 -0.1216  0.2967
10273TIP3    H152234   1.552   2.582  13.505  1.9938 -0.8648 -0.6737
10273TIP3    H252235   1.539   2.433  13.480  0.7584 -0.5317 -2.1400
10274TIP3   OH252236   1.038   3.090   5.427  0.0300  0.0199 -0.4854
10274TIP3    H152237   1.080   3.094   5.341 -2.2023 -1.6393 -1.7409
10274TIP3    H252238   1.065   3.006   5.464 -0.6180 -0.1704 -0.4407
10275TIP3   OH252239   0.842   4.024  13.660  0.1005 -0.2309 -0.2950
10275TIP3    H152240   0.787   4.097  13.689  1.2983  0.7883 -0.4895
10275TIP3    H252241   0.813   4.005  13.571 -0.0348  0.1975 -0.3424
10276TIP3   OH252242   1.200   3.478   1.323  0.6231 -0.0904  0.6900
10276TIP3    H152243   1.107   3.497   1.336  0.6087  1.8899 -1.6497
10276TIP3    H252244   1.204   3.382   1.321 -1.1829 -0.2496  1.8457
10277TIP3   OH252245   2.109   6.355  17.059 -0.1308  0.0266 -0.3243
10277TIP3    H152246   2.136   6.395  17.142 -0.8332 -0.8341  0.3475
10277TIP3    H252247   2.040   6.293  17.085 -0.8017  0.1977 -1.6314
10278TIP3   OH252248   3.924   3.048  13.325 -0.3797  0.9013 -0.2941
10278TIP3    H152249   3.897   3.140  13.329 -1.7050  0.4970  1.4404
10278TIP3    H252250   3.943   3.025  13.416  2.2490  0.0631 -0.9711
10279TIP3   OH252251   2.953   4.548   2.970 -0.3573  1.1633  0.1121
10279TIP3    H152252   2.912   4.514   2.891 -0.0030  0.6633  0.1334
10279TIP3    H252253   3.012   4.616   2.940  1.8269 -0.8293 -0.4018
10280TIP3   OH252254   0.658   3.777   4.087 -0.1303 -0.0775  0.1011
10280TIP3    H152255   0.700   3.860   4.112  0.1628 -0.6654  1.7061
10280TIP3    H252256   0.706   3.711   4.137 -0.8980 -1.1234 -0.5206
10281TIP3   OH252257   6.152   2.397   2.039  0.0602 -0.7829 -0.7778
10281TIP3    H152258   6.162   2.433   2.127  0.5408  0.1737 -1.2091
10281TIP3    H252259   6.142   2.474   1.983  0.0771 -1.3703 -1.6033
10282TIP3   OH252260   3.650   2.379   3.822 -0.0761  0.4199 -0.1276
10282TIP3    H152261   3.622   2.353   3.735  0.8286  0.6311 -0.4900
10282TIP3    H252262   3.628   2.472   3.827 -0.7508  0.2525  0.1305
10283TIP3   OH252263   2.536   3.720   6.022  0.3443  0.3025 -0.2092
10283TIP3    H152264   2.561   3.747   6.110 -1.0250  1.9533 -0.2506
10283TIP3    H252265   2.534   3.625   6.025 -1.7961  0.2950  2.2440
10284TIP3   OH252266   6.026   0.027  14.457 -0.1293  0.0918 -0.7935
10284TIP3    H152267   6.066  -0.010  14.378 -0.5798 -0.9985 -0.5322
10284TIP3    H252268   6.099   0.067  14.504  0.2131  0.3925 -1.5583
10285TIP3   OH252269   1.843   1.294  12.900  0.1904 -0.1797 -0.4107
10285TIP3    H152270   1.848   1.348  12.821  2.2370 -1.4894 -1.2728
10285TIP3    H252271   1.763   1.322  12.943  0.0615  2.0194 -1.8936
10286TIP3   OH252272   1.757   2.835   0.089 -0.0046 -0.3940 -0.1878
10286TIP3    H152273   1.791   2.762   0.140 -1.4454 -2.0774 -1.4904
10286TIP3    H252274   1.698   2.880   0.149 -1.0339 -1.8473 -0.0441
10287TIP3   OH252275   0.951   1.674  17.218  0.7650  0.0830  0.0495
10287TIP3    H152276   0.946   1.594  17.167 -0.0528 -0.7753  1.4194
10287TIP3    H252277   1.040   1.707  17.203  1.2851 -1.3384 -0.1519
10288TIP3   OH252278   3.475   2.219  15.780 -0.4276  0.3338  0.4921
10288TIP3    H152279   3.568   2.198  15.788  0.0012  0.3894 -2.8037
10288TIP3    H252280   3.437   2.193  15.863  1.8636 -3.4981  0.5868
10289TIP3   OH252281   2.426   6.765  12.815  0.3636  0.7611 -0.0560
10289TIP3    H152282   2.358   6.826  12.845  1.3781  1.4538  0.9110
10289TIP3    H252283   2.482   6.752  12.892  0.0684 -1.5746 -0.1696
10290TIP3   OH252284   1.736   3.719  14.759  0.2304 -0.6861 -0.5022
10290TIP3    H152285   1.725   3.800  14.809  2.4687 -0.7040  0.1176
10290TIP3    H252286   1.695   3.652  14.813 -0.2428 -0.2190 -0.2666
10291TIP3   OH252287   0.417   1.546  17.054  0.4378 -0.3593  0.4354
10291TIP3    H152288   0.345   1.511  17.003  0.0471  0.1337  0.6438
10291TIP3    H252289   0.376   1.596  17.123  0.9809 -0.0025  0.5078
10292TIP3   OH252290   3.124   0.951  15.037  0.0899  0.0318 -0.5740
10292TIP3    H152291   3.190   0.930  14.970  0.3290  0.1532 -0.3821
10292TIP3    H252292   3.168   1.015  15.093 -0.2882  0.3119 -0.5972
10293TIP3   OH252293   0.478   5.952   4.488 -0.2316 -0.1207  0.3626
10293TIP3    H152294   0.529   5.885   4.443 -1.1314 -1.0200  0.6424
10293TIP3    H252295   0.520   5.960   4.574  0.1276 -0.0199  0.1807
10294TIP3   OH252296   4.811   1.856   5.852 -0.1545  0.3659  0.9566
10294TIP3    H152297   4.846   1.847   5.941  0.4402  2.6834  1.0071
10294TIP3    H252298   4.716   1.851   5.862 -0.0649 -0.0475  1.6213
10295TIP3   OH252299   2.467   5.189   2.678 -0.3202 -0.3839 -0.4650
10295TIP3    H152300   2.392   5.139   2.644 -0.2203 -0.0885 -1.1378
10295TIP3    H252301   2.478   5.261   2.616 -1.3173  1.2966  1.2415
10296TIP3   OH252302   2.193   5.329   5.201 -0.0774  0.4471  0.0370
10296TIP3    H152303   2.203   5.409   5.252  2.2083 -0.4503  1.1192
10296TIP3    H252304   2.182   5.260   5.266 -0.0345 -0.3627 -0.7977
10297TIP3   OH252305   1.584   1.938   1.976 -0.1521 -0.3272 -0.1337
10297TIP3    H152306   1.613   1.875   1.910 -3.2626 -1.0517 -0.9715
10297TIP3    H252307   1.554   2.014   1.925 -0.4265  0.0697  0.6052
10298TIP3   OH252308   2.597   4.671  12.362 -0.3693 -0.3077  0.6663
10298TIP3    H152309   2.649   4.727  12.419 -1.2278 -1.2461  2.4975
10298TIP3    H252310   2.659   4.609  12.324  0.2980  0.6734  0.1214
10299TIP3   OH252311   2.577   0.919  12.879 -0.4791 -0.1215 -0.1378
10299TIP3    H152312   2.526   0.911  12.799  0.1537 -0.7194 -0.4976
10299TIP3    H252313   2.543   0.851  12.937  1.2997 -2.0396 -1.1858
10300TIP3   OH252314   5.873   1.479   2.172 -0.2242 -0.8315 -0.0514
10300TIP3    H152315   5.941   1.460   2.236  0.8050  0.5798 -0.6620
10300TIP3    H252316   5.811   1.535   2.218  0.0926 -0.4810 -0.0423
10301TIP3   OH252317   1.693   6.169  15.661 -0.0441  0.0031  0.1958
10301TIP3    H152318   1.628   6.102  15.680 -0.3314  0.4140  0.6635
10301TIP3    H252319   1.645   6.252  15.666  0.6202  0.3469  1.0497
10302TIP3   OH252320   3.240   6.403   3.695  0.0252 -0.3670 -0.3445
10302TIP3    H152321   3.190   6.474   3.735 -0.1045 -0.8201  0.3220
10302TIP3    H252322   3.206   6.323   3.736  0.7662 -0.7460 -0.4390
10303TIP3   OH252323   5.996   3.153  13.002  1.2042 -0.2239 -0.0659
10303TIP3    H152324   6.085   3.173  12.970  0.9619  2.5225  0.7410
10303TIP3    H252325   5.975   3.225  13.061 -1.0209 -1.6159  0.9604
10304TIP3   OH252326   5.004   1.869  15.025  0.0539 -0.1975  0.3855
10304TIP3    H152327   4.998   1.929  14.950 -1.7330  0.4696  1.0055
10304TIP3    H252328   5.088   1.891  15.067 -0.6770  2.1145  0.7606
10305TIP3   OH252329   6.770   2.308   1.795 -0.2130  0.9794  0.9775
10305TIP3    H152330   6.714   2.301   1.872  0.5112 -2.6649  1.3470
10305TIP3    H252331   6.718   2.270   1.724  0.3714  1.1904  0.4256
10306TIP3   OH252332   1.219   4.865   0.502  0.3754 -0.2901  0.1016
10306TIP3    H152333   1.233   4.871   0.596 -0.7598 -0.0552  0.2740
10306TIP3    H252334   1.134   4.907   0.488  0.7122  0.0232 -1.0782
10307TIP3   OH252335   6.128   4.111   1.686  0.2710 -0.0692 -0.9291
10307TIP3    H152336   6.069   4.047   1.725  1.7048 -0.7492  0.2417
10307TIP3    H252337   6.141   4.080   1.596  1.0044 -1.5012 -0.3602
10308TIP3   OH252338   6.295   2.632   1.345 -0.3204  0.5222  0.3220
10308TIP3    H152339   6.386   2.661   1.342 -0.3139  0.5214  0.5110
10308TIP3    H252340   6.297   2.553   1.400 -0.5837  1.0622  1.1299
10309TIP3   OH252341   5.599   0.890  13.215 -0.2287  0.2454 -0.1404
10309TIP3    H152342   5.549   0.971  13.206  0.0533  0.4520  0.1221
10309TIP3    H252343   5.687   0.912  13.183 -0.1891  0.0014 -0.2052
10310TIP3   OH252344   6.185   6.732   1.864  0.8783  0.0784 -0.2914
10310TIP3    H152345   6.181   6.639   1.886 -1.5819  0.0457 -0.5649
10310TIP3    H252346   6.119   6.773   1.920  1.8705  1.6726 -0.2120
10311TIP3   OH252347   3.854   0.922  11.812  0.0427 -0.6076  0.4062
10311TIP3    H152348   3.778   0.891  11.763 -0.1463  0.3927  0.0526
10311TIP3    H252349   3.916   0.849  11.808 -1.6945 -2.4143  2.6172
10312TIP3   OH252350   6.575   1.354  17.250 -0.0055  0.1339 -0.6327
10312TIP3    H152351   6.486   1.341  17.284  0.2817 -0.1960 -0.0038
10312TIP3    H252352   6.564   1.350  17.155 -0.5502 -0.7033 -0.5473
10313TIP3   OH252353   0.867   6.161  14.999  0.2466 -0.4223  0.0447
10313TIP3    H152354   0.908   6.095  15.054  1.3295  2.4744  2.9894
10313TIP3    H252355   0.940   6.213  14.965 -0.5696 -0.6768 -2.3343
10314TIP3   OH252356   4.582   2.708  12.796  0.0618  0.0425  0.4509
10314TIP3    H152357   4.506   2.741  12.750 -0.5206 -2.3053 -0.4153
10314TIP3    H252358   4.645   2.780  12.793 -1.2478  1.1998 -0.8975
10315TIP3   OH252359   4.688   4.425  15.924  0.0560 -0.4771 -0.0599
10315TIP3    H152360   4.653   4.350  15.971 -1.8664  0.2489 -0.2526
10315TIP3    H252361   4.641   4.500  15.960 -0.4020  0.2689 -2.0957
10316TIP3   OH252362   0.359   1.898  15.314 -0.8831  0.2589 -0.1885
10316TIP3    H152363   0.382   1.859  15.399  0.4787  0.3174 -0.5181
10316TIP3    H252364   0.366   1.826  15.252 -0.3472  0.5674 -0.4896
10317TIP3   OH252365   1.273   1.669  13.851 -0.6258  0.2445 -0.1217
10317TIP3    H152366   1.359   1.634  13.871  0.5402  2.3508 -1.0778
10317TIP3    H252367   1.243   1.708  13.934 -1.1625 -1.3774  0.4786
10318TIP3   OH252368   1.505   3.554  16.275 -0.7219 -0.3679  0.8647
10318TIP3    H152369   1.451   3.497  16.221 -0.4927  0.3068 -0.0961
10318TIP3    H252370   1.566   3.595  16.214  0.7621 -0.9661  1.8971
10319TIP3   OH252371   1.534   3.527  14.068  0.3557  0.2040 -0.0296
10319TIP3    H152372   1.539   3.531  14.163 -0.3625 -1.7989  0.1320
10319TIP3    H252373   1.549   3.435  14.046  1.3716  0.7653 -1.9259
10320TIP3   OH252374   2.088   1.615   1.380 -0.5481 -0.1933 -0.3287
10320TIP3    H152375   2.034   1.549   1.424 -1.1599  0.2974 -0.3461
10320TIP3    H252376   2.032   1.692   1.373 -0.0790  0.0971 -0.9669
10321TIP3   OH252377   5.132   3.759  12.838  0.5904 -0.4426 -0.3439
10321TIP3    H152378   5.178   3.707  12.773  0.6208 -1.3143  0.3518
10321TIP3    H252379   5.051   3.711  12.855  0.3065  0.0850 -0.1793
10322TIP3   OH252380   0.533   6.738   5.142 -0.2673 -0.2715 -0.6565
10322TIP3    H152381   0.537   6.807   5.208 -0.9957  0.1042 -0.9982
10322TIP3    H252382   0.584   6.773   5.069  0.3460 -0.5925 -0.3937
10323TIP3   OH252383   1.256   2.323   4.919 -0.8662  0.0610 -0.0139
10323TIP3    H152384   1.206   2.392   4.876 -0.2918 -0.2079 -1.1444
10323TIP3    H252385   1.331   2.307   4.861 -1.3102 -1.9400 -0.1201
10324TIP3   OH252386   0.276   1.799   1.627  0.2590 -0.0990  0.0348
10324TIP3    H152387   0.304   1.889   1.610 -2.0566  0.5278 -0.8815
10324TIP3    H252388   0.180   1.805   1.633  0.1349 -2.2988  1.3424
10325TIP3   OH252389   3.249   5.951  15.963 -0.8085  0.4134  0.5269
10325TIP3    H152390   3.325   6.004  15.941 -1.7673  1.3241 -0.7519
10325TIP3    H252391   3.179   6.015  15.976 -1.3413 -0.3977  1.8107
10326TIP3   OH252392   6.179   6.445   1.995  0.3584  0.3396  0.0343
10326TIP3    H152393   6.102   6.406   2.037  0.4109  2.3570  2.2450
10326TIP3    H252394   6.231   6.371   1.966 -1.5631 -1.1019  0.0583
10327TIP3   OH252395   6.007   6.063   0.941  0.5451  0.5886  0.0333
10327TIP3    H152396   5.950   6.038   1.013  1.0149  0.2551  0.2882
10327TIP3    H252397   5.952   6.053   0.863  0.7561 -1.4032  0.1008
10328TIP3   OH252398   3.828   1.683  11.235  0.0075 -0.1841  0.1285
10328TIP3    H152399   3.923   1.671  11.233  0.1671  1.0234 -0.1597
10328TIP3    H252400   3.815   1.777  11.220 -1.1616 -0.0412  1.7297
10329TIP3   OH252401   1.749   5.921   1.749  0.0673  0.0880  0.5992
10329TIP3    H152402   1.824   5.944   1.694 -1.0513  0.8901 -0.6754
10329TIP3    H252403   1.735   5.997   1.805 -0.5117  0.4657 -0.0320
10330TIP3   OH252404   2.054   5.737   4.581  0.2761  0.7365 -0.3514
10330TIP3    H152405   1.994   5.662   4.577 -0.3035  1.2214 -0.9132
10330TIP3    H252406   2.066   5.753   4.674  0.8802 -0.4225 -0.2106
10331TIP3   OH252407   0.805   5.723   2.895  0.0612 -0.4477  0.7515
10331TIP3    H152408   0.880   5.781   2.882  1.3596 -2.1861  0.2415
10331TIP3    H252409   0.790   5.724   2.989 -2.0718  3.2035  0.5831
10332TIP3   OH252410   3.400   3.022   4.766  0.0539  0.0546 -0.5670
10332TIP3    H152411   3.478   3.023   4.710  0.7187  1.9870  0.3083
10332TIP3    H252412   3.327   3.036   4.706  0.6745  1.2162 -1.0827
10333TIP3   OH252413   6.102   5.335   5.336  0.2479 -0.4980 -0.0581
10333TIP3    H152414   6.014   5.359   5.307  0.9430  2.3651 -0.1035
10333TIP3    H252415   6.143   5.419   5.358  2.3461 -1.9076  1.7840
10334TIP3   OH252416   5.286   0.330   5.436  0.0096  0.3549  0.0112
10334TIP3    H152417   5.287   0.376   5.352  0.7893  0.1289 -0.1077
10334TIP3    H252418   5.275   0.399   5.501  0.5654  0.6552 -0.2055
10335TIP3   OH252419   0.685   1.190  15.584 -0.2288 -0.2672  0.3168
10335TIP3    H152420   0.657   1.099  15.583  0.4583 -0.4808 -0.6043
10335TIP3    H252421   0.659   1.224  15.498  1.0394 -0.0696 -0.0020
10336TIP3   OH252422   2.054   6.369  12.408  0.1292  0.3271  0.6193
10336TIP3    H152423   1.965   6.390  12.381 -0.0508 -2.1148 -1.0051
10336TIP3    H252424   2.046   6.286  12.455  1.6161 -0.4898 -0.4865
10337TIP3   OH252425   3.327   2.255  14.554 -0.4022 -0.5154 -0.1497
10337TIP3    H152426   3.409   2.207  14.548 -0.8815 -1.2464 -1.0685
10337TIP3    H252427   3.337   2.310  14.632  1.5795  0.6252 -1.1423
10338TIP3   OH252428   5.941   3.365  12.089 -0.4755 -0.1845 -0.2056
10338TIP3    H152429   5.902   3.287  12.129  1.1428 -1.3264 -0.7121
10338TIP3    H252430   5.869   3.408  12.045 -1.5255 -1.1039  0.5561
10339TIP3   OH252431   4.970   2.434  14.265  0.1399  0.0472  0.3355
10339TIP3    H152432   4.923   2.409  14.186  2.3630 -0.9370 -0.7698
10339TIP3    H252433   4.914   2.405  14.337 -0.9640 -0.9772 -0.8897
10340TIP3   OH252434   4.255   6.196   5.340 -0.4542 -0.1076  0.5852
10340TIP3    H152435   4.190   6.252   5.382  0.0777  0.8716  0.1347
10340TIP3    H252436   4.338   6.219   5.383  0.1714  1.1989 -1.2161
10341TIP3   OH252437   2.196   4.687   5.143 -0.8796 -0.2112 -0.0044
10341TIP3    H152438   2.234   4.651   5.224 -0.5295  0.0068 -0.0666
10341TIP3    H252439   2.121   4.631   5.125  1.2007 -2.6971 -1.5864
10342TIP3   OH252440   4.751   2.250   1.156 -0.3793  0.2720 -0.2226
10342TIP3    H152441   4.841   2.233   1.186 -0.8395 -0.6287  0.6851
10342TIP3    H252442   4.732   2.338   1.186 -0.7919 -0.5655  2.1377
10343TIP3   OH252443   1.434   2.158   0.398  0.3112  0.0050  0.3628
10343TIP3    H152444   1.483   2.169   0.479  0.6975 -1.4262  0.3579
10343TIP3    H252445   1.469   2.225   0.339  0.0239  1.0601  1.3579
10344TIP3   OH252446   3.727   0.013  13.693  0.0538 -0.3779  0.9480
10344TIP3    H152447   3.746   0.000  13.600 -0.1456  4.2087  0.0683
10344TIP3    H252448   3.811  -0.002  13.737  1.0794  0.8717 -0.4791
10345TIP3   OH252449   6.434   0.453  12.959 -0.0310 -0.1321 -0.5678
10345TIP3    H152450   6.467   0.521  13.017 -1.5224 -0.1466  0.3537
10345TIP3    H252451   6.408   0.499  12.880  0.2390  0.1561 -0.4917
10346TIP3   OH252452   0.646   0.345   4.488  0.0320  0.7490 -0.2341
10346TIP3    H152453   0.578   0.314   4.428 -0.5608  2.0382 -0.2604
10346TIP3    H252454   0.724   0.297   4.463 -0.6007  0.0776 -0.9620
10347TIP3   OH252455   5.005   2.842  14.623  0.1058 -0.0970  0.4183
10347TIP3    H152456   4.927   2.839  14.568  1.5510 -0.7252 -1.7275
10347TIP3    H252457   5.017   2.752  14.653 -0.1324  0.0503  0.9628
10348TIP3   OH252458   2.093   5.483  14.912  0.1312 -0.5269 -0.3462
10348TIP3    H152459   2.063   5.401  14.874  0.7058 -1.2567  0.7081
10348TIP3    H252460   2.109   5.462  15.004 -3.1677  1.6317  0.8991
10349TIP3   OH252461   3.101   5.016   5.060 -0.1510 -0.1819  0.2604
10349TIP3    H152462   3.045   4.960   5.115  1.4376  0.3753  2.5762
10349TIP3    H252463   3.153   4.954   5.009 -0.3335 -0.7749  0.7718
10350TIP3   OH252464   0.084   5.196   0.002  0.0903 -0.2210 -0.7206
10350TIP3    H152465   0.110   5.141   0.077  0.1381  2.0087  0.9990
10350TIP3    H252466   0.010   5.151  -0.036  0.9164 -2.1396 -0.1967
10351TIP3   OH252467   6.486   3.895   1.726 -0.2223  0.0221 -0.5600
10351TIP3    H152468   6.568   3.940   1.746  0.0092 -0.8028  0.4733
10351TIP3    H252469   6.508   3.834   1.655  0.2052 -0.5420  0.0378
10352TIP3   OH252470   0.722   4.629   5.543 -0.2243 -0.0246  0.7995
10352TIP3    H152471   0.740   4.555   5.485 -3.4527 -0.6297  0.3336
10352TIP3    H252472   0.784   4.620   5.615 -0.2393 -2.9659  0.5548
10353TIP3   OH252473   6.091   3.092   2.179 -0.3527 -0.5541 -0.1436
10353TIP3    H152474   6.011   3.099   2.127 -1.3803 -1.5656  1.2276
10353TIP3    H252475   6.064   3.044   2.257  1.3677  0.0172  0.8448
10354TIP3   OH252476   6.610   1.883  11.409  0.4339 -0.5272  0.2860
10354TIP3    H152477   6.651   1.847  11.488 -0.0156 -1.3243  0.1656
10354TIP3    H252478   6.572   1.807  11.365  0.4799 -0.0575 -0.5820
10355TIP3   OH252479   1.295   0.173  13.180 -0.1802 -0.3386 -0.1122
10355TIP3    H152480   1.294   0.260  13.219 -1.2733 -1.1446  1.7812
10355TIP3    H252481   1.289   0.189  13.086 -0.6432  1.6168  0.2090
10356TIP3   OH252482   0.773   4.119   5.612  0.4934 -0.4022 -0.4714
10356TIP3    H152483   0.845   4.089   5.556  1.1793 -0.1235  0.2517
10356TIP3    H252484   0.801   4.097   5.701 -1.4399 -2.6891 -0.3175
10357TIP3   OH252485   1.170   1.730  12.427  0.3805 -0.2676 -0.2323
10357TIP3    H152486   1.123   1.805  12.462 -1.3352 -0.0331 -2.7609
10357TIP3    H252487   1.250   1.767  12.389 -0.3399  0.2758 -1.2508
10358TIP3   OH252488   1.952   6.230  15.566  0.0935  0.1498  0.6546
10358TIP3    H152489   1.884   6.179  15.609  1.7758 -2.6351  0.2598
10358TIP3    H252490   1.939   6.215  15.473  1.2329 -0.4805  0.5724
10359TIP3   OH252491   2.164   5.935   0.832  0.1966  0.0477 -0.0537
10359TIP3    H152492   2.197   5.953   0.745  2.3408 -1.5890  0.3431
10359TIP3    H252493   2.114   5.853   0.823 -0.6207  0.5183  0.0576
10360TIP3   OH252494   3.467   6.306  16.143 -0.1751 -0.1555 -0.4463
10360TIP3    H152495   3.521   6.379  16.112  2.1035 -1.7976 -0.5793
10360TIP3    H252496   3.447   6.255  16.064  0.2325 -0.9281 -0.0565
10361TIP3   OH252497   0.872   4.030  13.938 -0.7211 -0.6451 -0.4917
10361TIP3    H152498   0.934   3.992  14.001  0.4859  3.4728  1.1534
10361TIP3    H252499   0.907   4.006  13.852  2.3334  0.0865  0.4032
10362TIP3   OH252500   6.653   1.571   1.428  0.3100  0.2666  0.2256
10362TIP3    H152501   6.744   1.573   1.458  0.2044  1.5240  0.5501
10362TIP3    H252502   6.603   1.543   1.505  0.4858 -1.2502 -0.1919
10363TIP3   OH252503   3.330   1.001   5.475 -0.2173  0.4111  0.5549
10363TIP3    H152504   3.347   1.066   5.408 -0.8035 -0.6415 -0.6647
10363TIP3    H252505   3.416   0.984   5.515  0.5615 -0.4552 -1.3694
10364TIP3   OH252506   0.710   2.222  10.953 -0.2813 -0.3556  0.1652
10364TIP3    H152507   0.788   2.212  10.899 -1.3900  2.7290 -2.3584
10364TIP3    H252508   0.735   2.188  11.039  2.5918 -2.7906 -1.4116
10365TIP3   OH252509   1.704   2.650  11.222  0.2928  0.1249  0.2058
10365TIP3    H152510   1.777   2.643  11.160 -1.0586 -0.1287 -1.4039
10365TIP3    H252511   1.729   2.591  11.294  1.3250 -0.5392 -0.6611
10366TIP3   OH252512   5.588   3.331  14.173  0.1787  0.7869  0.1313
10366TIP3    H152513   5.662   3.315  14.231 -1.3173 -1.2260  1.6489
10366TIP3    H252514   5.567   3.245  14.137 -0.1846  1.6631 -1.8516
10367TIP3   OH252515   6.397   2.903   4.762  0.3810 -0.3616  0.4145
10367TIP3    H152516   6.463   2.905   4.831  1.5105  0.5269 -0.6570
10367TIP3    H252517   6.437   2.950   4.689 -1.2812 -0.1601 -0.4093
10368TIP3   OH252518   0.998   1.565  10.225  0.1859 -0.0067 -0.3996
10368TIP3    H152519   0.997   1.642  10.168  1.0338 -0.8533 -1.5880
10368TIP3    H252520   1.018   1.601  10.312  0.6173  1.1044 -0.9381
10369TIP3   OH252521   0.729   2.810   2.557  0.3625  1.3601  0.0625
10369TIP3    H152522   0.664   2.767   2.614  0.6453  0.9723  0.0959
10369TIP3    H252523   0.685   2.890   2.528 -0.0067  1.2723  0.3573
10370TIP3   OH252524   3.576   6.121   5.731  0.2606  0.9838 -0.4396
10370TIP3    H152525   3.595   6.123   5.825 -1.8111 -1.2942  0.1042
10370TIP3    H252526   3.637   6.056   5.696  0.3023  1.0618 -0.5147
10371TIP3   OH252527   0.636   6.041  13.004  0.8619 -0.8045  0.0099
10371TIP3    H152528   0.588   5.991  12.938 -1.7219 -0.3225  1.4010
10371TIP3    H252529   0.627   5.989  13.084  2.4800 -0.5490  0.3832
10372TIP3   OH252530   0.173   6.433   1.430  0.4325 -0.0224  0.0586
10372TIP3    H152531   0.095   6.478   1.397  1.0211  1.5299  0.6742
10372TIP3    H252532   0.237   6.441   1.360  0.1841 -0.9304 -0.2814
10373TIP3   OH252533   5.107   1.404   6.476  0.0239  0.3054 -0.1188
10373TIP3    H152534   5.137   1.313   6.479 -1.6777 -0.2683  0.2124
10373TIP3    H252535   5.097   1.429   6.567 -0.5708  0.4588 -0.2234
10374TIP3   OH252536   5.410   1.223   2.382 -0.3917  0.3310 -0.1724
10374TIP3    H152537   5.463   1.282   2.328  0.4004 -2.0582 -2.1845
10374TIP3    H252538   5.466   1.203   2.458  0.8262 -0.5804 -1.2690
10375TIP3   OH252539   4.007   4.209  13.862  0.0148 -0.1928 -0.4224
10375TIP3    H152540   4.020   4.170  13.776  2.9058  1.3475 -0.8132
10375TIP3    H252541   3.974   4.297  13.844  0.4089  0.0524  0.0203
10376TIP3   OH252542   5.350   0.413  13.542 -0.0700  0.4518  0.3343
10376TIP3    H152543   5.354   0.343  13.607 -1.5891 -0.7832 -0.8172
10376TIP3    H252544   5.436   0.413  13.500 -0.8331 -2.6998 -1.5312
10377TIP3   OH252545   4.536   2.856  13.352 -0.7574  0.4230  0.0569
10377TIP3    H152546   4.497   2.812  13.276 -1.6150  0.4773  0.4498
10377TIP3    H252547   4.620   2.888  13.320  0.8765 -3.2134  0.2885
10378TIP3   OH252548   6.421   1.173  16.129 -0.2629  0.1905  0.2482
10378TIP3    H152549   6.486   1.176  16.200 -1.1297  1.4895  1.0464
10378TIP3    H252550   6.433   1.256  16.083 -0.2915 -0.2700 -0.6050
10379TIP3   OH252551   1.737   5.398   1.969  0.3322 -0.0967  0.0092
10379TIP3    H152552   1.698   5.432   1.889 -0.5870  0.2178  0.5779
10379TIP3    H252553   1.761   5.475   2.019  2.1661 -0.2677 -0.5168
10380TIP3   OH252554   5.943   5.102  14.511 -0.2020  0.1281 -0.1028
10380TIP3    H152555   5.952   5.168  14.442  2.1162 -0.0047 -0.0112
10380TIP3    H252556   5.910   5.151  14.587  3.2116  1.7373  0.5442
10381TIP3   OH252557   0.900   2.679   0.972  0.4558  0.4511  0.3732
10381TIP3    H152558   0.814   2.675   0.930  0.1197  0.3959  1.0511
10381TIP3    H252559   0.903   2.601   1.027  0.7570  0.6811  0.6860
10382TIP3   OH252560   3.846   3.308  11.999  0.0646 -0.0812 -0.0926
10382TIP3    H152561   3.907   3.255  12.050 -0.5030 -0.8188 -0.1518
10382TIP3    H252562   3.765   3.309  12.050 -0.5038 -0.8122 -0.9386
10383TIP3   OH252563   5.215   2.751  16.290  0.2509  0.2847  0.2971
10383TIP3    H152564   5.158   2.743  16.367 -0.6437  3.5268  0.1222
10383TIP3    H252565   5.155   2.761  16.217  1.1019 -1.0724 -0.6206
10384TIP3   OH252566   0.615   4.173   3.326 -0.6150  0.0706  0.0949
10384TIP3    H152567   0.627   4.082   3.300  0.9716  0.2115  0.2220
10384TIP3    H252568   0.546   4.206   3.268  0.7409 -0.4509 -1.9281
10385TIP3   OH252569   0.008   1.875  15.078 -0.2190 -0.7849 -0.7417
10385TIP3    H152570  -0.008   1.969  15.087  0.4757 -0.7590  0.5407
10385TIP3    H252571  -0.037   1.836  15.153  0.1809 -1.3823 -0.8022
10386TIP3   OH252572   4.739   5.763  12.537 -0.1516 -0.6468 -0.0502
10386TIP3    H152573   4.672   5.748  12.603  0.3184  1.0788  0.8528
10386TIP3    H252574   4.690   5.784  12.457 -0.7349  1.6679  0.8589
10387TIP3   OH252575   1.669   2.048   3.221  0.4018  0.0130 -0.4056
10387TIP3    H152576   1.607   2.102   3.173 -0.3279 -0.6635 -0.2484
10387TIP3    H252577   1.695   2.101   3.296 -1.2489 -0.3019  0.4251
10388TIP3   OH252578   4.101   6.602  11.365  0.0987 -0.0575  0.0276
10388TIP3    H152579   4.070   6.621  11.276 -1.2142  1.1732  0.6964
10388TIP3    H252580   4.172   6.664  11.380  1.6593 -1.5558 -0.8013
10389TIP3   OH252581   1.416   4.087   5.337 -0.3855  0.1846  0.3371
10389TIP3    H152582   1.345   4.023   5.337 -0.0461 -0.1996  0.5584
10389TIP3    H252583   1.393   4.149   5.406 -0.6441  0.2137  0.2229
10390TIP3   OH252584   5.643   1.723  14.218  0.4189  0.1192 -0.1975
10390TIP3    H152585   5.730   1.729  14.178 -0.9425 -2.3461 -4.1535
10390TIP3    H252586   5.654   1.659  14.289  1.8235 -0.1933 -0.6480
10391TIP3   OH252587   1.758   5.553   3.926  0.2383 -0.4356  0.1270
10391TIP3    H152588   1.680   5.522   3.973  0.8386 -1.6863  0.3560
10391TIP3    H252589   1.815   5.476   3.922  1.5101  0.4816  0.0605
10392TIP3   OH252590   2.712   5.083   2.946  0.1768  0.0263 -0.2101
10392TIP3    H152591   2.653   5.086   3.022 -1.2677 -0.6245 -1.2635
10392TIP3    H252592   2.798   5.066   2.984  0.1418  3.0524  1.5691
10393TIP3   OH252593   0.134   0.756   6.675  0.4132 -0.3997  0.6452
10393TIP3    H152594   0.101   0.746   6.764 -1.9439 -0.0880 -0.1229
10393TIP3    H252595   0.134   0.666   6.640 -0.2314 -0.3364  0.4673
10394TIP3   OH252596   0.787   6.234   0.394  0.4088 -0.3859  0.3417
10394TIP3    H152597   0.721   6.172   0.424  0.7669 -0.6490  0.5970
10394TIP3    H252598   0.870   6.193   0.416  0.7337 -0.9943 -1.7663
10395TIP3   OH252599   2.168   2.519   0.941  0.4009 -0.4290  0.1203
10395TIP3    H152600   2.080   2.547   0.919  0.8690  0.3842 -0.7496
10395TIP3    H252601   2.156   2.432   0.981 -0.5724 -1.6652 -2.5953
10396TIP3   OH252602   6.034   3.107  16.463  0.0663 -0.4943  0.7010
10396TIP3    H152603   6.052   3.133  16.372  1.3637  1.0293  1.3415
10396TIP3    H252604   5.940   3.090  16.465  0.3284 -2.6653 -1.4113
10397TIP3   OH252605   0.673   1.181  17.004  0.4755  0.2242  0.5004
10397TIP3    H152606   0.609   1.132  17.057  0.7540  0.6178  1.2217
10397TIP3    H252607   0.686   1.262  17.053 -1.1084  1.7211 -1.4140
10398TIP3   OH252608   2.057   0.885   4.267  0.1073  0.1605  0.4189
10398TIP3    H152609   1.994   0.935   4.319 -0.7289 -1.5291  1.1151
10398TIP3    H252610   2.039   0.910   4.177  1.4114  2.9610  0.8249
10399TIP3   OH252611   1.760   2.903  14.538 -0.1888 -0.1327  0.4489
10399TIP3    H152612   1.846   2.909  14.495  0.7133 -1.9455  1.8767
10399TIP3    H252613   1.709   2.846  14.480 -0.9982  2.1340 -1.1775
10400TIP3   OH252614   5.859   4.289  13.027  0.5206  0.1625 -0.4566
10400TIP3    H152615   5.778   4.261  12.982  1.3618  1.6762 -3.1283
10400TIP3    H252616   5.834   4.294  13.119 -2.0041 -0.9013 -0.9850
10401TIP3   OH252617   1.876   3.014   1.057  0.5135  0.6894 -0.3966
10401TIP3    H152618   1.871   3.103   1.023 -1.7866  0.7948  0.0485
10401TIP3    H252619   1.902   3.024   1.149 -1.5448  1.1401  0.2064
10402TIP3   OH252620   4.337   6.180   5.663  0.1001  0.0207  0.3257
10402TIP3    H152621   4.350   6.096   5.707 -0.1915 -0.8562 -1.1946
10402TIP3    H252622   4.397   6.177   5.588 -1.6073  0.1252 -1.1157
10403TIP3   OH252623   5.569   3.166  14.452 -0.3000  0.1019  0.3349
10403TIP3    H152624   5.533   3.134  14.370 -0.4975  0.7994  0.1417
10403TIP3    H252625   5.495   3.159  14.514 -1.4632  3.3363 -0.5090
10404TIP3   OH252626   5.525   5.354   4.238 -0.0621  0.0181 -0.7642
10404TIP3    H152627   5.442   5.400   4.242 -0.0270  0.0220  0.4215
10404TIP3    H252628   5.501   5.262   4.229 -0.1784  0.0830 -1.1125
10405TIP3   OH252629   4.947   6.716   5.370 -0.1909 -0.1739 -0.2826
10405TIP3    H152630   5.023   6.769   5.394 -0.8379  0.9233 -0.5912
10405TIP3    H252631   4.961   6.632   5.415  1.0631  0.0971 -0.1341
10406TIP3   OH252632   3.112   5.054   0.865 -0.3810 -0.1323  0.2764
10406TIP3    H152633   3.095   5.144   0.837 -0.3931 -0.4294 -0.6946
10406TIP3    H252634   3.089   5.053   0.958 -0.7444  0.7682  0.2012
10407TIP3   OH252635   3.135   1.186  15.886  0.0412  0.0480  0.1019
10407TIP3    H152636   3.226   1.210  15.867 -0.4153 -0.0333 -2.5824
10407TIP3    H252637   3.084   1.257  15.850 -1.0076 -0.1951  1.0654
10408TIP3   OH252638   4.136   2.012   4.689  0.2116  0.6038 -0.0005
10408TIP3    H152639   4.103   1.930   4.651  1.9948  0.4995 -1.4772
10408TIP3    H252640   4.092   2.080   4.638 -0.1277  0.5442  0.2081
10409TIP3   OH252641   1.239   6.024  12.430  0.2829  0.5144  0.0307
10409TIP3    H152642   1.334   6.028  12.442  0.4915 -0.5199 -1.1071
10409TIP3    H252643   1.211   5.952  12.486  0.6694 -1.4164 -2.1098
10410TIP3   OH252644   5.634   5.108   5.642  0.1815  0.0087 -0.2848
10410TIP3    H152645   5.605   5.037   5.699 -0.2584 -0.8639 -1.5544
10410TIP3    H252646   5.599   5.086   5.556  1.2386  1.0288 -1.0105
10411TIP3   OH252647   6.533   2.569   5.340 -0.4789  0.6589  0.4018
10411TIP3    H152648   6.599   2.589   5.274 -2.0166 -0.5618 -1.6459
10411TIP3    H252649   6.502   2.655   5.370  0.2446  1.2538 -0.4972
10412TIP3   OH252650   1.210   2.082  12.821  0.6106  0.4574  0.6971
10412TIP3    H152651   1.216   2.177  12.823 -1.2232  0.7019 -1.2622
10412TIP3    H252652   1.126   2.062  12.861 -0.0707 -0.1008 -0.9104
10413TIP3   OH252653   4.829   4.129  14.523  0.2401 -0.0582 -0.1375
10413TIP3    H152654   4.791   4.116  14.610  0.0687 -0.7220 -0.3109
10413TIP3    H252655   4.910   4.078  14.524  1.2170  1.4133  0.2604
10414TIP3   OH252656   5.349   0.872   5.890 -0.2611 -0.7219  0.3892
10414TIP3    H152657   5.284   0.941   5.877  0.6998 -0.1077 -1.4449
10414TIP3    H252658   5.372   0.878   5.983  0.0263  1.6266  0.2180
10415TIP3   OH252659   2.324   5.763   4.208  0.1309  0.1646 -0.0539
10415TIP3    H152660   2.370   5.846   4.219  1.1122 -0.1036 -1.8089
10415TIP3    H252661   2.233   5.787   4.190  0.5053  0.8967 -1.0621
10416TIP3   OH252662   4.198   3.355  15.975 -0.1044 -0.2348 -0.2650
10416TIP3    H152663   4.169   3.266  15.993  0.0416 -0.2638 -0.1731
10416TIP3    H252664   4.254   3.348  15.898 -0.1940 -0.2041 -0.3337
10417TIP3   OH252665   0.962   4.642  11.211 -0.0540 -0.1514 -0.3894
10417TIP3    H152666   1.011   4.588  11.274  0.7478  1.9699  0.9245
10417TIP3    H252667   1.030   4.684  11.159 -0.6536 -0.0834 -1.1199
10418TIP3   OH252668   3.111   3.128  12.071 -0.3110  0.4969  0.1878
10418TIP3    H152669   3.032   3.134  12.017 -1.0279 -1.4498  0.9342
10418TIP3    H252670   3.079   3.117  12.160  0.8381  1.3399  0.7354
10419TIP3   OH252671   6.117   2.141  13.438 -0.3782 -0.2124 -0.4443
10419TIP3    H152672   6.210   2.135  13.416 -0.4043 -1.0308 -0.3600
10419TIP3    H252673   6.092   2.051  13.460 -1.5220 -0.2688 -1.8170
10420TIP3   OH252674   6.183   4.813  11.992 -0.6142  0.0562 -0.2268
10420TIP3    H152675   6.099   4.781  11.959 -0.9631  1.8017 -1.1606
10420TIP3    H252676   6.175   4.807  12.087 -1.6089 -0.2112 -0.3139
10421TIP3   OH252677   0.968   2.280  11.407 -0.1779  0.4584  0.5480
10421TIP3    H152678   1.053   2.237  11.417  0.2937  1.5139  1.2724
10421TIP3    H252679   0.987   2.373  11.419 -1.4029  0.7278  0.4858
10422TIP3   OH252680   2.351   0.910  15.079  0.1220  0.3874 -0.1629
10422TIP3    H152681   2.364   0.981  15.016  1.7100  0.2782 -0.0076
10422TIP3    H252682   2.305   0.951  15.153 -2.0084  0.4563 -1.4415
10423TIP3   OH252683   6.125   3.052   1.161 -0.1452 -0.0071  0.4560
10423TIP3    H152684   6.063   3.042   1.088 -0.3524 -2.4146  0.9109
10423TIP3    H252685   6.161   2.965   1.175 -1.4668 -0.1317  4.4174
10424TIP3   OH252686   2.311   6.513   3.876  0.2371 -0.3550  0.3318
10424TIP3    H152687   2.375   6.577   3.845 -0.7637 -0.0766 -1.3037
10424TIP3    H252688   2.361   6.433   3.890  1.1451  0.1984  0.3246
10425TIP3   OH252689   2.727   0.757  14.334 -0.0684 -0.4401  0.2085
10425TIP3    H152690   2.803   0.815  14.339 -1.7424  1.8319  1.8556
10425TIP3    H252691   2.707   0.751  14.241  1.9098 -0.8346 -0.2205
10426TIP3   OH252692   0.041   4.975  13.173  0.4547 -0.6623 -0.7417
10426TIP3    H152693  -0.047   4.997  13.142  0.6582  1.5228  0.0404
10426TIP3    H252694   0.027   4.905  13.237 -0.7060 -0.4799 -0.7767
10427TIP3   OH252695   6.283   6.394  16.533  0.3649  0.6142  0.3592
10427TIP3    H152696   6.335   6.470  16.557 -0.3521  0.8325  1.2747
10427TIP3    H252697   6.240   6.368  16.614 -1.4545  0.8260 -0.4934
10428TIP3   OH252698   2.710   1.419  12.998 -0.0506 -0.5287  0.3064
10428TIP3    H152699   2.674   1.474  12.928  0.8295 -1.7418 -1.1754
10428TIP3    H252700   2.667   1.335  12.986  1.0970 -1.1429  0.3518
10429TIP3   OH252701   4.899   6.464  12.407  0.5647 -0.1720  0.0406
10429TIP3    H152702   4.806   6.442  12.419 -0.0885  2.6313  0.9759
10429TIP3    H252703   4.904   6.494  12.316  0.4856 -0.0854  0.0642
10430TIP3   OH252704   6.168   1.251  12.677  0.0173  0.0122  0.3532
10430TIP3    H152705   6.242   1.210  12.633 -1.9150 -3.4414 -0.1342
10430TIP3    H252706   6.188   1.243  12.770  1.1304  1.1142  0.2381
10431TIP3   OH252707   3.592   1.945   3.009 -0.1992 -0.5514 -0.2763
10431TIP3    H152708   3.622   1.964   2.920  0.6520 -1.7240 -0.2611
10431TIP3    H252709   3.497   1.951   3.003 -0.1711 -0.8216 -1.3368
10432TIP3   OH252710   1.566   1.372  16.206 -0.7316  0.4453  0.2080
10432TIP3    H152711   1.623   1.313  16.255  0.5976  1.4823 -0.0436
10432TIP3    H252712   1.487   1.320  16.190  1.1784 -2.0975 -1.8889
10433TIP3   OH252713   0.342   2.510   4.908 -0.1846 -0.0414  0.1248
10433TIP3    H152714   0.389   2.471   4.982  0.7245  1.0088  0.1299
10433TIP3    H252715   0.382   2.470   4.830 -1.2962 -1.3179  0.1685
10434TIP3   OH252716   2.441   2.295   1.198 -0.1601 -0.2659  0.3008
10434TIP3    H152717   2.346   2.299   1.209 -0.2011 -1.8400  0.7412
10434TIP3    H252718   2.453   2.271   1.106 -0.1162  1.5693 -0.2076
10435TIP3   OH252719   6.069   5.217   4.128  0.2681 -0.0833  0.3031
10435TIP3    H152720   6.045   5.230   4.036 -1.8975 -0.5756  0.7379
10435TIP3    H252721   6.157   5.181   4.125  0.6453  0.8550 -1.5206
10436TIP3   OH252722   2.073   6.078   3.074  0.0824  0.2394 -0.0743
10436TIP3    H152723   2.062   6.054   3.167  1.1381 -0.1615 -0.0330
10436TIP3    H252724   2.015   6.153   3.061  0.9874  1.2139  1.2858
10437TIP3   OH252725   0.228   4.859   5.777  0.0110 -0.1648  0.2959
10437TIP3    H152726   0.219   4.927   5.710 -0.0679  0.5997  1.0600
10437TIP3    H252727   0.232   4.907   5.860  1.0710 -1.0204  0.7794
10438TIP3   OH252728   5.926   2.881   6.595 -0.4528 -0.3320 -0.5139
10438TIP3    H152729   5.907   2.957   6.650  1.4002 -1.5124  1.9699
10438TIP3    H252730   6.008   2.903   6.550  0.1340 -0.8361  0.2761
10439TIP3   OH252731   3.963   3.127   0.683  0.0638  0.2060 -0.1988
10439TIP3    H152732   4.004   3.110   0.768  0.1519 -0.4237 -0.3668
10439TIP3    H252733   3.876   3.089   0.691  0.4121 -0.7222 -0.7223
10440TIP3   OH252734   3.113   2.065  16.059 -0.5180 -0.1946 -0.4696
10440TIP3    H152735   3.121   2.141  16.003  0.5014 -0.2857 -0.4830
10440TIP3    H252736   3.198   2.020  16.050 -0.6884 -0.7185  0.3947
10441TIP3   OH252737   0.007   4.573   1.437  0.2262 -0.1470  0.8702
10441TIP3    H152738   0.039   4.498   1.488  0.0562  0.2619  1.5883
10441TIP3    H252739  -0.088   4.571   1.451  0.1465 -0.2002  0.3324
10442TIP3   OH252740   6.627   1.458  13.211 -0.4732 -0.1600  0.1376
10442TIP3    H152741   6.673   1.389  13.162 -1.2945 -0.4098 -0.2922
10442TIP3    H252742   6.696   1.520  13.235  0.0398 -0.3342 -0.8229
10443TIP3   OH252743   3.400   4.697   4.410  0.5092  1.0850 -0.3171
10443TIP3    H152744   3.441   4.631   4.465  0.4539 -0.0712 -1.5983
10443TIP3    H252745   3.464   4.768   4.405  1.4473  0.2427 -0.5369
10444TIP3   OH252746   3.634   4.986  12.601 -0.2772  0.2372  0.5103
10444TIP3    H152747   3.718   4.968  12.558 -1.4884 -0.3020 -1.8441
10444TIP3    H252748   3.606   4.900  12.634 -0.0090  0.3753  1.1005
10445TIP3   OH252749   2.354   5.150   5.911  0.2959  0.0561 -0.0346
10445TIP3    H152750   2.308   5.233   5.914 -0.5548 -0.3882 -0.4226
10445TIP3    H252751   2.285   5.084   5.924  0.8290 -0.6192 -0.5665
10446TIP3   OH252752   1.015   2.372  12.841  0.4697 -0.3374  0.0283
10446TIP3    H152753   1.050   2.417  12.917  2.3719 -0.2264 -0.8637
10446TIP3    H252754   0.983   2.288  12.875 -1.1484  0.7530  1.3409
10447TIP3   OH252755   2.122   3.677   4.927 -0.4095 -0.0788  0.1185
10447TIP3    H152756   2.091   3.767   4.917 -1.4174 -0.4324 -0.0543
10447TIP3    H252757   2.185   3.665   4.856 -1.3446  0.0460 -0.7541
10448TIP3   OH252758   4.047   2.704  12.574 -0.5826  0.1216  0.2163
10448TIP3    H152759   4.006   2.751  12.501 -1.7634  0.9846  1.3711
10448TIP3    H252760   3.987   2.631  12.591  0.1234 -0.5579 -0.2003
10449TIP3   OH252761   2.299   1.024   4.321  0.8878  0.3972  0.1898
10449TIP3    H152762   2.219   0.981   4.293  1.9950 -1.3454 -0.4842
10449TIP3    H252763   2.270   1.098   4.373 -1.1519  0.1970 -0.5968
10450TIP3   OH252764   6.198   3.226  12.054 -0.0738  0.1769 -0.4271
10450TIP3    H152765   6.186   3.173  12.132 -1.5179 -0.6299 -1.1564
10450TIP3    H252766   6.132   3.296  12.063 -0.4683 -0.1103 -1.0729
10451TIP3   OH252767   3.078   1.396  13.732 -0.3089 -0.0864 -0.0254
10451TIP3    H152768   3.018   1.347  13.788  2.5571 -2.3275  1.3193
10451TIP3    H252769   3.077   1.348  13.649 -0.3543 -0.1023 -0.0161
10452TIP3   OH252770   0.552   1.136   6.126 -0.3349 -0.2774 -0.3485
10452TIP3    H152771   0.536   1.225   6.158  0.8552 -0.6703  1.5546
10452TIP3    H252772   0.467   1.104   6.097 -1.2322  0.7171  1.0603
10453TIP3   OH252773   4.274   1.874  16.612  0.3048 -0.3146 -0.2722
10453TIP3    H152774   4.253   1.919  16.531 -0.0268 -0.9336 -0.5380
10453TIP3    H252775   4.234   1.928  16.681 -2.1762 -1.4141 -0.7496
10454TIP3   OH252776   4.108   1.005  12.959  0.3597 -0.6253 -0.0768
10454TIP3    H152777   4.146   0.948  12.891 -1.8832 -1.7268 -0.4999
10454TIP3    H252778   4.128   0.960  13.041  2.7395  0.5099  0.0461
10455TIP3   OH252779   4.425   1.170  16.504 -0.0356 -0.2936  0.4467
10455TIP3    H152780   4.485   1.225  16.554 -0.4229  0.7796 -0.2490
10455TIP3    H252781   4.347   1.163  16.559  0.0376 -0.2065  0.5612
10456TIP3   OH252782   0.573   2.372  12.441  0.1829  0.2314 -0.6160
10456TIP3    H152783   0.587   2.395  12.349 -1.6811  1.7121 -0.5745
10456TIP3    H252784   0.499   2.312  12.439  0.7360 -0.4831 -0.1315
10457TIP3   OH252785   6.732   0.656  16.240 -1.0591  0.0214 -0.5009
10457TIP3    H152786   6.806   0.686  16.293 -0.1473 -2.4516 -0.2658
10457TIP3    H252787   6.713   0.730  16.182  0.7700  1.1795  0.2962
10458TIP3   OH252788   3.650   5.706  17.085  0.0480  0.2353 -0.1245
10458TIP3    H152789   3.587   5.697  17.156 -0.4563 -1.1489 -0.7237
10458TIP3    H252790   3.736   5.698  17.128 -0.2403 -0.2734  0.3629
10459TIP3   OH252791   2.679   1.135   1.797  0.2959 -0.3871  0.2223
10459TIP3    H152792   2.729   1.141   1.715  1.5212 -1.5236  0.8340
10459TIP3    H252793   2.731   1.185   1.860 -0.4338  0.1454  0.4160
10460TIP3   OH252794   5.357   1.290  12.580 -0.1688  0.3700  0.2927
10460TIP3    H152795   5.337   1.297  12.673  2.1181  0.0965  0.8580
10460TIP3    H252796   5.374   1.380  12.552  1.1906  0.2604  0.6828
10461TIP3   OH252797   4.645   2.900  14.391  0.1016  0.5367  1.2297
10461TIP3    H152798   4.715   2.966  14.396 -0.3514  1.4390 -2.0730
10461TIP3    H252799   4.683   2.829  14.340 -1.1286  0.7623 -0.0613
10462TIP3   OH252800   2.065   4.993   6.231 -0.3420  0.1396 -0.1188
10462TIP3    H152801   2.106   5.016   6.148  0.0893  0.3186  0.1368
10462TIP3    H252802   1.978   5.032   6.228 -0.7209 -0.7145 -0.9041
10463TIP3   OH252803   2.856   6.625  14.164 -0.5024 -0.1488 -0.0414
10463TIP3    H152804   2.826   6.716  14.168 -0.1670  0.0583 -1.5089
10463TIP3    H252805   2.818   6.591  14.083  0.3615 -0.9392 -0.1273
10464TIP3   OH252806   6.491   5.452  14.644  0.2459 -0.7098 -0.3781
10464TIP3    H152807   6.543   5.401  14.581  0.8998  0.0967 -0.4985
10464TIP3    H252808   6.554   5.507  14.689 -0.5184  0.4790 -0.7051
10465TIP3   OH252809   0.247   5.474   6.035  0.2450 -0.7787 -0.2131
10465TIP3    H152810   0.209   5.560   6.051 -0.2441 -0.8888 -0.7325
10465TIP3    H252811   0.303   5.458   6.110 -0.4177 -0.4214  0.3725
10466TIP3   OH252812   3.628   3.560   3.217  0.5851  0.6803  0.1104
10466TIP3    H152813   3.592   3.475   3.242 -0.0685  0.5355 -1.2638
10466TIP3    H252814   3.559   3.602   3.167  1.0383  1.8923  0.4602
10467TIP3   OH252815   5.358   3.292  16.966 -0.0084 -0.4851  0.0240
10467TIP3    H152816   5.370   3.327  17.054 -0.4694 -1.0336  0.3191
10467TIP3    H252817   5.436   3.318  16.918  0.0072  0.2703  0.4455
10468TIP3   OH252818   1.839   0.078   0.072  0.4791  0.2028 -0.1053
10468TIP3    H152819   1.754   0.114   0.099  1.0452  0.5037  1.3219
10468TIP3    H252820   1.857   0.119  -0.013 -0.6351  0.3834 -0.2689
10469TIP3   OH252821   3.274   5.724   3.386 -0.0621  0.1592 -0.0509
10469TIP3    H152822   3.240   5.750   3.301  0.9136  4.5388  0.6562
10469TIP3    H252823   3.369   5.730   3.376  0.0684  0.6900  1.2973
10470TIP3   OH252824   6.325   4.944   1.994  0.6820  0.2758 -0.1420
10470TIP3    H152825   6.284   5.029   2.008  1.3622  0.5891 -0.0313
10470TIP3    H252826   6.370   4.925   2.076  2.6284  0.9866 -0.9814
10471TIP3   OH252827   0.842   6.555  16.103  0.3178  0.0912 -0.0533
10471TIP3    H152828   0.792   6.473  16.107  1.0929 -0.3423  1.4418
10471TIP3    H252829   0.933   6.529  16.115  0.6113  1.1553  0.1444
10472TIP3   OH252830   1.548   3.804  15.003  0.3562  0.0633 -0.1172
10472TIP3    H152831   1.492   3.751  15.060  1.4445 -0.9232  0.1028
10472TIP3    H252832   1.489   3.845  14.941 -0.9634  1.6478  2.0567
10473TIP3   OH252833   0.798   3.527   2.667 -0.4303  0.0188  0.1945
10473TIP3    H152834   0.722   3.470   2.678 -0.7380 -0.0808 -2.0096
10473TIP3    H252835   0.868   3.484   2.717 -1.0701 -1.4495 -0.1156
10474TIP3   OH252836   6.342   5.904   2.226 -0.4323  0.0345  0.3319
10474TIP3    H152837   6.382   5.963   2.290  0.9842 -0.0400 -0.4613
10474TIP3    H252838   6.271   5.956   2.188 -1.0861  0.1953  1.6923
10475TIP3   OH252839   4.208   6.522   2.496  0.2381  0.3668 -0.3853
10475TIP3    H152840   4.181   6.572   2.573 -2.2003 -0.2377 -0.7616
10475TIP3    H252841   4.294   6.557   2.474  0.7550  0.9730  2.2244
10476TIP3   OH252842   0.863   0.206  17.220 -0.4776  0.1130 -0.0096
10476TIP3    H152843   0.872   0.125  17.270 -2.2181 -0.2282 -0.1818
10476TIP3    H252844   0.910   0.271  17.272 -0.5500 -0.6451  1.0437
10477TIP3   OH252845   4.267   3.649  15.441  0.2859 -0.0962 -0.1289
10477TIP3    H152846   4.177   3.676  15.420  0.1938 -0.0182  0.3545
10477TIP3    H252847   4.260   3.605  15.526  0.8972  1.1150  0.5761
10478TIP3   OH252848   0.394   4.259   4.080  0.3821  0.2383  0.1964
10478TIP3    H152849   0.310   4.227   4.114 -0.4873  0.7341 -1.4104
10478TIP3    H252850   0.399   4.224   3.991  1.6253  0.7111  0.0597
10479TIP3   OH252851   0.279   6.280   4.782 -0.0588  0.3081 -0.0794
10479TIP3    H152852   0.276   6.283   4.878  1.8540  2.0492 -0.0017
10479TIP3    H252853   0.294   6.188   4.761  0.2630  0.0082  1.3356
10480TIP3   OH252854   4.431   0.047  10.315  0.1474 -0.2762 -0.0088
10480TIP3    H152855   4.362   0.099  10.355  1.0916  2.4139 -1.5353
10480TIP3    H252856   4.423   0.065  10.221  1.0746 -2.2885 -0.5244
10481TIP3   OH252857   1.664   2.444   1.141 -0.7243  0.1111  0.2637
10481TIP3    H152858   1.625   2.406   1.062 -1.0029  0.6164  0.1499
10481TIP3    H252859   1.713   2.372   1.181 -0.4228 -0.1005 -0.4665
10482TIP3   OH252860   2.030   3.032   6.068  0.7194  0.0733 -0.1322
10482TIP3    H152861   2.116   3.038   6.109  1.1732 -0.0627 -1.0425
10482TIP3    H252862   1.973   2.997   6.136  0.6928  2.9424  1.4743
10483TIP3   OH252863   5.281   2.828   4.730 -0.0448  0.0059  0.0797
10483TIP3    H152864   5.360   2.834   4.677  1.6438  0.1578  2.4420
10483TIP3    H252865   5.226   2.900   4.698  0.7134 -0.1231 -1.6396
10484TIP3   OH252866   0.781   2.391   5.607 -0.3026  0.3171  0.0597
10484TIP3    H152867   0.813   2.336   5.679  0.8706  0.9780  0.0565
10484TIP3    H252868   0.835   2.366   5.532 -1.1365  0.0425 -0.4604
10485TIP3   OH252869   5.173   1.776   2.054  0.1611 -0.1291 -0.4274
10485TIP3    H152870   5.268   1.791   2.045 -0.1090  0.8506 -1.8963
10485TIP3    H252871   5.139   1.860   2.084 -0.3561 -0.2606 -0.6512
10486TIP3   OH252872   2.744   6.715  17.034  0.0692  0.0415  0.1366
10486TIP3    H152873   2.668   6.667  17.066  1.4001 -2.9769 -0.8441
10486TIP3    H252874   2.707   6.785  16.980 -2.0034  0.8471  2.4131
10487TIP3   OH252875   2.985   4.339  16.004 -0.0118  0.1758  0.4167
10487TIP3    H152876   3.074   4.373  15.994  0.7517 -1.4726  1.0875
10487TIP3    H252877   2.997   4.244  16.015 -1.9218 -0.2151 -0.4037
10488TIP3   OH252878   6.248   2.624  13.999 -0.1475 -0.5034  0.6937
10488TIP3    H152879   6.318   2.636  14.064  1.3318 -0.7938 -0.7655
10488TIP3    H252880   6.206   2.542  14.024  0.0427 -0.3352  1.5961
10489TIP3   OH252881   1.159   1.412  10.536  0.1079 -0.0865 -0.1298
10489TIP3    H152882   1.160   1.389  10.443  0.8555 -0.8153  0.0384
10489TIP3    H252883   1.104   1.490  10.542 -1.8754 -1.3643 -0.8686
10490TIP3   OH252884   4.454   4.545   0.009  0.2946  0.1076  0.5186
10490TIP3    H152885   4.444   4.587  -0.076 -2.0964 -2.2908 -0.5078
10490TIP3    H252886   4.516   4.474  -0.006 -0.5260 -0.6422  0.6346
10491TIP3   OH252887   4.275   2.888  13.939  0.0217  0.2757 -0.5521
10491TIP3    H152888   4.261   2.979  13.914  1.2190  0.7213  0.2691
10491TIP3    H252889   4.318   2.894  14.025  0.1635 -1.0599 -0.5141
10492TIP3   OH252890   4.447   1.540   1.022  0.1836 -0.0042  0.5485
10492TIP3    H152891   4.475   1.482   0.951 -3.1677  0.1065 -1.0705
10492TIP3    H252892   4.489   1.624   1.003 -1.0148  0.1612 -1.7292
10493TIP3   OH252893   1.019   1.583   5.388 -0.4001 -0.1775 -0.1804
10493TIP3    H152894   1.005   1.533   5.308 -1.6818 -0.6113  0.2947
10493TIP3    H252895   0.984   1.670   5.369  1.4987  0.4729 -0.8834
10494TIP3   OH252896   4.505   4.973   1.913  0.0113 -0.6379  0.2846
10494TIP3    H152897   4.481   4.929   1.995 -0.5476 -3.8066 -1.4405
10494TIP3    H252898   4.423   4.980   1.865  0.5657 -0.1151 -0.6046
10495TIP3   OH252899   4.828   5.658   1.166  0.3970  0.2258 -0.0678
10495TIP3    H152900   4.810   5.721   1.237  3.2803 -0.3291  1.3170
10495TIP3    H252901   4.905   5.610   1.197 -1.1983 -3.5006 -1.4310
10496TIP3   OH252902   3.632   6.070   4.052  0.2187  0.2970  0.0416
10496TIP3    H152903   3.658   6.081   4.144 -1.3520  0.7854  0.4715
10496TIP3    H252904   3.605   5.979   4.046 -2.0938  0.8529  0.7985
10497TIP3   OH252905   3.957   3.337   1.426  0.2049  0.0772 -0.0708
10497TIP3    H152906   4.039   3.332   1.474 -1.1517  0.2687  2.3936
10497TIP3    H252907   3.935   3.430   1.426 -0.9328 -0.1736  0.9744
10498TIP3   OH252908   4.926   1.724  16.055  0.4628  0.3379 -0.3745
10498TIP3    H152909   4.838   1.761  16.055 -0.2299 -1.2003 -1.4212
10498TIP3    H252910   4.948   1.715  16.148 -1.3765 -1.2051 -0.0276
10499TIP3   OH252911   3.461   0.866   2.548  0.0381 -0.3259  0.6072
10499TIP3    H152912   3.475   0.912   2.631  1.9432 -1.0356  0.7159
10499TIP3    H252913   3.373   0.828   2.556  0.1685 -0.3423  2.2821
10500TIP3   OH252914   6.012   3.101   4.219  0.2261  0.1078 -0.1774
10500TIP3    H152915   5.925   3.062   4.226  0.1853  0.4429  1.8179
10500TIP3    H252916   6.072   3.030   4.244  0.7682 -0.7149 -3.3665
10501TIP3   OH252917   1.335   2.698  14.527 -0.5406  0.2612 -0.6751
10501TIP3    H152918   1.415   2.709  14.579 -0.0267 -0.4660 -1.2836
10501TIP3    H252919   1.329   2.778  14.475 -0.2893  0.3832 -0.5197
10502TIP3   OH252920   0.244   2.906   1.594 -0.6397  0.3168  0.0247
10502TIP3    H152921   0.241   2.944   1.682  0.6715  2.4210 -0.7620
10502TIP3    H252922   0.299   2.966   1.544  2.5838 -3.1582 -1.1322
10503TIP3   OH252923   3.005   0.960  13.189 -0.3527  0.5386  0.5128
10503TIP3    H152924   3.031   0.873  13.160 -0.2855  0.0875  1.8531
10503TIP3    H252925   2.934   0.985  13.131  0.6444  0.2521 -0.8720
10504TIP3   OH252926   6.140   6.252  16.991  0.0489 -0.1164  0.3461
10504TIP3    H152927   6.133   6.200  17.071 -0.8454 -1.7855 -0.7481
10504TIP3    H252928   6.082   6.207  16.929  1.1473  0.7871 -1.4018
10505TIP3   OH252929   3.708   3.560   4.755 -0.3515 -0.2054 -0.0268
10505TIP3    H152930   3.657   3.503   4.813 -0.8829  0.4976  0.2134
10505TIP3    H252931   3.650   3.635   4.738  0.9407  1.1098  1.0810
10506TIP3   OH252932   5.026   0.024  15.364  0.1952 -0.4235  0.0612
10506TIP3    H152933   5.071   0.068  15.293  0.3181 -2.3362 -1.1306
10506TIP3    H252934   5.093  -0.031  15.405 -0.3656 -1.0144  0.2076
10507TIP3   OH252935   5.391   6.235   1.383  0.2090  0.1970 -0.6990
10507TIP3    H152936   5.458   6.203   1.323  0.1935 -1.1473 -0.0543
10507TIP3    H252937   5.398   6.177   1.459 -1.4240  0.2662 -0.4566
10508TIP3   OH252938   2.544   4.774   3.869 -0.1229 -0.1132  0.3084
10508TIP3    H152939   2.620   4.718   3.852  0.2490 -0.0518  1.6747
10508TIP3    H252940   2.480   4.716   3.911  0.5046  0.5727  2.3166
10509TIP3   OH252941   3.077   3.114  11.558  0.2086 -0.9104 -0.1331
10509TIP3    H152942   3.110   3.091  11.472  0.5473 -0.5351 -0.1074
10509TIP3    H252943   3.055   3.207  11.551  2.1361 -0.3468  0.7582
10510TIP3   OH252944   2.677   4.348  15.154  0.5065  0.6741  0.0937
10510TIP3    H152945   2.612   4.299  15.105  1.3943 -0.4231 -0.0348
10510TIP3    H252946   2.638   4.363  15.240  0.3451 -0.5972  0.2603
10511TIP3   OH252947   5.119   1.241   4.347 -0.1755  0.2237  0.6797
10511TIP3    H152948   5.212   1.231   4.325 -0.2016  0.7183  0.3287
10511TIP3    H252949   5.118   1.306   4.417 -0.1452 -0.8954  1.7734
10512TIP3   OH252950   3.638   3.361   4.254  0.1266  0.3082  0.2657
10512TIP3    H152951   3.588   3.310   4.191 -0.4674  0.8628  0.2776
10512TIP3    H252952   3.729   3.335   4.240 -0.1604 -0.7550  0.2777
10513TIP3   OH252953   5.419   1.167   1.294 -0.2460  0.0489  0.4384
10513TIP3    H152954   5.501   1.129   1.327  1.0244  0.9017 -1.5820
10513TIP3    H252955   5.402   1.121   1.212 -0.0402  2.0166 -0.7730
10514TIP3   OH252956   0.341   3.106   2.328  0.2484 -0.0053  0.6389
10514TIP3    H152957   0.263   3.138   2.374  0.6488  2.1373 -0.0676
10514TIP3    H252958   0.325   3.127   2.236  0.8369 -1.3551  0.2027
10515TIP3   OH252959   2.589   0.685  16.751  0.2854  0.6891 -0.0796
10515TIP3    H152960   2.669   0.677  16.805 -0.6039 -1.2790  1.0709
10515TIP3    H252961   2.615   0.652  16.665  0.3989 -1.4964  0.7197
10516TIP3   OH252962   6.036   5.979   3.405  0.1164  0.3646 -0.6490
10516TIP3    H152963   6.052   5.951   3.495 -1.9202  3.2023  0.7532
10516TIP3    H252964   6.119   6.019   3.378  1.0615 -1.3706 -0.4745
10517TIP3   OH252965   1.023   5.525  11.460  0.1088 -0.3948  0.2851
10517TIP3    H152966   1.106   5.536  11.413 -0.3493 -0.8609 -0.6637
10517TIP3    H252967   1.048   5.485  11.543  0.9365  0.4262  0.4497
10518TIP3   OH252968   3.852   4.558   0.999  0.3975 -0.1016  0.3036
10518TIP3    H152969   3.817   4.594   1.080  0.1205  2.0164 -0.6908
10518TIP3    H252970   3.776   4.546   0.943  0.6934 -0.5745 -0.0100
10519TIP3   OH252971   1.264   0.233  12.909  0.2637  0.6873 -0.2157
10519TIP3    H152972   1.279   0.302  12.845  0.8542  1.0437  0.2938
10519TIP3    H252973   1.199   0.176  12.868  0.9238  0.6844 -1.2927
10520TIP3   OH252974   5.927   1.823   4.148 -0.5881  0.0892 -0.3808
10520TIP3    H152975   5.974   1.907   4.152 -0.0738 -0.2252  0.4135
10520TIP3    H252976   5.863   1.835   4.078  0.6299  0.5546 -1.4623
10521TIP3   OH252977   5.713   6.574   4.550  0.3180 -0.2918 -0.0119
10521TIP3    H152978   5.806   6.583   4.568  0.3179  0.6028 -0.4525
10521TIP3    H252979   5.702   6.604   4.460 -0.5658  0.7318  0.4152
10522TIP3   OH252980   2.799   4.562   1.634  0.1383  0.5600 -0.3085
10522TIP3    H152981   2.746   4.523   1.704  0.8118  0.6725  0.2805
10522TIP3    H252982   2.790   4.657   1.647  0.2306  0.5817 -0.4001
10523TIP3   OH252983   2.148   2.647   4.910 -0.1526  0.0762 -0.0462
10523TIP3    H152984   2.055   2.662   4.926 -0.0613  1.8042 -0.9253
10523TIP3    H252985   2.152   2.556   4.880 -1.4136 -0.3386  0.9545
10524TIP3   OH252986   1.181   2.574   2.813  0.4116  0.0423  0.2879
10524TIP3    H152987   1.162   2.577   2.906 -0.1518 -0.5804  0.1979
10524TIP3    H252988   1.097   2.551   2.772  0.5471  0.7222 -0.4073
10525TIP3   OH252989   5.324   2.925   1.017  0.0796  0.2810 -0.6552
10525TIP3    H152990   5.322   2.859   0.948  0.2798  1.2124 -1.5710
10525TIP3    H252991   5.329   3.009   0.971  0.6263  0.9093  0.4868
10526TIP3   OH252992   5.327   3.778   5.610 -0.3573 -0.2566  0.3391
10526TIP3    H152993   5.247   3.731   5.636 -1.0155 -0.2524 -1.5051
10526TIP3    H252994   5.295   3.848   5.553  0.8389  0.8822  1.0404
10527TIP3   OH252995   1.254   3.300  11.462 -0.7248 -0.1742  0.2571
10527TIP3    H152996   1.246   3.230  11.398 -0.3320 -1.0697  1.1688
10527TIP3    H252997   1.306   3.367  11.418 -2.2935  0.1891 -1.1372
10528TIP3   OH252998   2.980   2.413   2.559  0.2944 -0.3197 -0.3143
10528TIP3    H152999   3.012   2.369   2.637  0.1373 -1.7457 -1.0166
10528TIP3    H253000   2.933   2.345   2.511 -0.1794  0.6901 -1.3288
10529TIP3   OH253001   4.172   3.268   5.080 -0.2756  0.0103  0.2091
10529TIP3    H153002   4.221   3.187   5.063 -0.2770  0.2192 -0.8156
10529TIP3    H253003   4.207   3.299   5.164  2.2686  0.8208 -1.0809
10530TIP3   OH253004   5.577   0.269   1.833 -0.2305  0.3632 -0.4324
10530TIP3    H153005   5.571   0.363   1.817  0.7969  1.0182  2.5045
10530TIP3    H253006   5.653   0.259   1.890 -1.1718 -2.0888  0.5172
10531TIP3   OH253007   2.114   3.305  10.718 -0.6463  0.5188 -0.0847
10531TIP3    H153008   2.099   3.241  10.648  2.2774 -0.1346 -0.2409
10531TIP3    H253009   2.031   3.353  10.725 -2.3956 -2.1376 -1.1137
10532TIP3   OH253010   5.021   6.619  11.833 -0.3724  0.3221 -0.1214
10532TIP3    H153011   4.991   6.680  11.900  1.4629  2.0142 -0.7412
10532TIP3    H253012   5.013   6.667  11.751 -0.3637 -0.8551 -0.8336
10533TIP3   OH253013   2.355   4.878   0.797 -0.7972  0.3236  0.1809
10533TIP3    H153014   2.389   4.814   0.860  1.2033  2.5357  1.5190
10533TIP3    H253015   2.415   4.872   0.722  1.8955  3.1007  1.8812
10534TIP3   OH253016   3.118   0.843   1.122 -0.4056 -0.1977  0.2650
10534TIP3    H153017   3.172   0.783   1.070  0.6686 -0.3630  1.5070
10534TIP3    H253018   3.142   0.930   1.091  0.5927 -0.2716  0.7959
10535TIP3   OH253019   3.049   3.427  12.499 -0.2897  0.6958  0.9310
10535TIP3    H153020   3.055   3.338  12.465 -0.0997  1.5864 -1.5752
10535TIP3    H253021   2.957   3.438  12.520 -0.8349  0.6820 -1.2135
10536TIP3   OH253022   5.993   4.111  11.640  0.2740  0.4247  0.5183
10536TIP3    H153023   5.986   4.137  11.548  1.2448 -1.0206 -0.0167
10536TIP3    H253024   6.038   4.026  11.637 -3.7649 -2.0579  1.9718
10537TIP3   OH253025   2.897   4.536  12.493 -0.5679  0.1285  0.2118
10537TIP3    H153026   2.894   4.562  12.585 -0.6752 -0.3049  0.3352
10537TIP3    H253027   2.986   4.503  12.480 -0.2800  0.9968 -0.0713
10538TIP3   OH253028   6.346   2.715  16.660 -0.0655  0.2128  0.5581
10538TIP3    H153029   6.313   2.633  16.696 -0.7070 -0.1324 -0.7281
10538TIP3    H253030   6.274   2.777  16.670 -0.7466 -0.2245 -1.1826
10539TIP3   OH253031   0.046   3.905  11.894 -1.0431  0.0815 -0.5706
10539TIP3    H153032   0.035   3.837  11.961 -1.2401 -0.9570 -1.6341
10539TIP3    H253033  -0.006   3.979  11.927  2.0831  1.1866  2.4464
10540TIP3   OH253034   1.555   5.980  16.736 -0.3871 -0.1007  0.0761
10540TIP3    H153035   1.479   5.992  16.793 -1.9211  0.8614 -2.0067
10540TIP3    H253036   1.520   5.934  16.660  0.3668  2.7698 -2.2126
10541TIP3   OH253037   6.651   2.572  14.574 -0.0323 -0.5953  0.1035
10541TIP3    H153038   6.689   2.510  14.512  2.5473 -0.1740  1.1470
10541TIP3    H253039   6.667   2.658  14.535  0.3338 -0.4006  0.6699
10542TIP3   OH253040   2.229   4.466   0.873  0.1181  0.2707  0.8916
10542TIP3    H153041   2.305   4.520   0.894 -0.1118  1.6693 -1.5361
10542TIP3    H253042   2.265   4.395   0.819 -0.2973  1.0905 -0.4936
10543TIP3   OH253043   6.145   5.250  11.827  0.5441 -0.3737  0.1789
10543TIP3    H153044   6.078   5.302  11.783  0.0673 -2.3575 -1.5833
10543TIP3    H253045   6.226   5.273  11.783  0.5936  0.0085  0.4639
10544TIP3   OH253046   1.331   4.726  13.897 -0.7208  0.0956  0.3467
10544TIP3    H153047   1.282   4.765  13.825 -0.7819  0.5879  0.6512
10544TIP3    H253048   1.266   4.677  13.947 -1.0177  1.1606  1.0383
10545TIP3   OH253049   0.802   6.543  13.920  0.0894 -0.8258  0.2420
10545TIP3    H153050   0.855   6.508  13.848 -1.1283  0.5707 -1.4354
10545TIP3    H253051   0.727   6.584  13.876 -0.0485  1.2471  2.2363
10546TIP3   OH253052   1.698   5.195   4.577 -0.6894 -0.1922  0.3808
10546TIP3    H153053   1.661   5.119   4.622 -0.5168 -0.5960 -0.1554
10546TIP3    H253054   1.786   5.204   4.613 -0.3156 -0.9121 -0.3471
10547TIP3   OH253055   0.759   4.393  12.124  0.0706  0.1456  0.6442
10547TIP3    H153056   0.781   4.399  12.217 -2.2702  1.1682  1.2248
10547TIP3    H253057   0.666   4.417  12.120 -0.2378 -1.1208 -1.8158
10548TIP3   OH253058   0.392   5.547   5.552 -0.2176  0.7829 -0.0098
10548TIP3    H153059   0.475   5.554   5.505 -0.2557 -0.9813 -0.3968
10548TIP3    H253060   0.400   5.610   5.623  0.7757  1.8389 -1.0024
10549TIP3   OH253061   1.294   1.500   5.401  0.2005  0.7688 -0.4907
10549TIP3    H153062   1.216   1.548   5.428  0.1080  1.3107 -1.6662
10549TIP3    H253063   1.260   1.420   5.361  0.1348  1.7262 -2.4523
10550TIP3   OH253064   6.237   2.916   0.440  0.5204 -0.2543 -0.3651
10550TIP3    H153065   6.234   2.821   0.452 -0.0364 -0.0813  0.9778
10550TIP3    H253066   6.184   2.931   0.362  0.4500 -1.0252 -0.4789
10551TIP3   OH253067   1.431   3.799   0.597 -0.3264  0.2306  0.1961
10551TIP3    H153068   1.429   3.704   0.613  2.0412  0.1876  0.6187
10551TIP3    H253069   1.482   3.835   0.670 -1.2819  1.8677  0.1003
10552TIP3   OH253070   3.788   2.926   5.045  0.6958  0.3140  0.2335
10552TIP3    H153071   3.788   2.830   5.046  2.2955  0.2324 -1.7449
10552TIP3    H253072   3.700   2.950   5.017 -0.0235 -0.5064  1.6817
10553TIP3   OH253073   0.574   1.899   1.364  0.0290 -0.4676  0.2796
10553TIP3    H153074   0.664   1.922   1.387 -0.7119  1.2764  1.7636
10553TIP3    H253075   0.523   1.974   1.395 -2.1024 -2.1132  0.9193
10554TIP3   OH253076   4.362   2.257  12.682 -0.3341  0.0068  0.1723
10554TIP3    H153077   4.272   2.269  12.711  0.2233  1.5050  1.4239
10554TIP3    H253078   4.365   2.301  12.597 -0.6247  0.5415  0.4334
10555TIP3   OH253079   0.731   0.716   5.369 -0.2672  0.9634  0.3027
10555TIP3    H153080   0.742   0.779   5.298 -3.3191  1.6337  0.2945
10555TIP3    H253081   0.649   0.671   5.349  2.1391 -3.8944 -0.2208
10556TIP3   OH253082   3.196   0.228   5.510  0.3528  0.1759 -0.3669
10556TIP3    H153083   3.129   0.188   5.564  1.2241 -0.5713  0.1915
10556TIP3    H253084   3.178   0.322   5.514 -0.5690 -0.0061 -0.1250
10557TIP3   OH253085   2.548   2.087  16.124 -0.0742 -0.3370  0.2830
10557TIP3    H153086   2.565   2.108  16.216  0.3697 -1.2085  0.4087
10557TIP3    H253087   2.634   2.068  16.087 -0.3836 -1.4569  0.0725
10558TIP3   OH253088   5.999   3.765   1.436 -0.0231 -0.8085 -0.0809
10558TIP3    H153089   5.960   3.852   1.434 -0.3692 -0.9808 -1.0482
10558TIP3    H253090   6.037   3.758   1.524  2.2951  1.2849 -0.8173
10559TIP3   OH253091   5.694   6.710  14.399  0.2828  0.1038 -0.3856
10559TIP3    H153092   5.652   6.793  14.376 -0.7927  0.1168  1.3738
10559TIP3    H253093   5.647   6.644  14.348  0.0336  0.4158 -0.5637
10560TIP3   OH253094   5.807   0.831   0.380  0.5550  0.3676 -0.9402
10560TIP3    H153095   5.728   0.866   0.421  0.4832  0.1459 -0.8840
10560TIP3    H253096   5.851   0.907   0.342  1.3223  0.8082  0.7231
10561TIP3   OH253097   0.397   1.303  16.074  0.1421 -0.2644  0.1820
10561TIP3    H153098   0.315   1.324  16.118  1.0472  0.2780  1.7071
10561TIP3    H253099   0.406   1.208  16.082 -0.3972 -0.3453 -0.1409
10562TIP3   OH253100   2.111   5.971  14.060  0.1298 -0.0525 -0.4085
10562TIP3    H153101   2.190   5.924  14.034  0.3512 -0.7494  1.3701
10562TIP3    H253102   2.058   5.976  13.980  0.6853 -2.1681 -0.9747
10563TIP3   OH253103   3.668   1.934  15.511  0.4441 -0.0820  0.1070
10563TIP3    H153104   3.605   1.868  15.541  1.1263 -0.7747  0.0168
10563TIP3    H253105   3.683   1.913  15.419 -0.2189  0.9178 -0.2557
10564TIP3   OH253106   3.576   4.913   4.410 -0.2223  0.4275 -0.5414
10564TIP3    H153107   3.630   4.887   4.335  1.9885  2.0679  0.3588
10564TIP3    H253108   3.565   5.007   4.400 -3.4958  0.1195 -0.9356
10565TIP3   OH253109   3.808   6.497   2.806 -0.2269 -0.1516 -0.8935
10565TIP3    H153110   3.824   6.407   2.777  1.4241  0.0467 -0.7043
10565TIP3    H253111   3.895   6.536   2.811 -0.7190  0.7869  1.2167
10566TIP3   OH253112   1.573   3.005   0.213  0.1092  0.1223  0.4477
10566TIP3    H153113   1.545   3.080   0.265  0.2898  1.3747 -1.1686
10566TIP3    H253114   1.580   3.039   0.124 -0.5033 -1.9985 -0.4861
10567TIP3   OH253115   0.592   2.563   5.493 -0.3210 -0.1452 -0.2607
10567TIP3    H153116   0.644   2.497   5.539 -1.4047 -0.1931  0.9516
10567TIP3    H253117   0.654   2.605   5.434  0.4933 -1.9538 -0.7685
10568TIP3   OH253118   1.123   5.758   1.884 -0.3633  0.0231  0.2450
10568TIP3    H153119   1.031   5.747   1.910 -0.7321  3.5431  0.9790
10568TIP3    H253120   1.131   5.852   1.867  3.0509 -0.2303 -0.1572
10569TIP3   OH253121   5.890   3.524  14.719  0.0070 -0.0682  0.3529
10569TIP3    H153122   5.804   3.483  14.705 -0.8229  2.2115 -1.8454
10569TIP3    H253123   5.910   3.505  14.811 -2.2746 -1.6944  0.6022
10570TIP3   OH253124   0.710   5.761   4.465 -0.0519 -0.0479  0.2196
10570TIP3    H153125   0.756   5.749   4.548 -0.8374  0.0756  0.6801
10570TIP3    H253126   0.652   5.685   4.458 -0.7784  0.4872  0.3159
10571TIP3   OH253127   2.778   2.968  14.248  0.7486 -0.1854  0.1521
10571TIP3    H153128   2.828   2.951  14.328  1.4044  0.1809 -0.1640
10571TIP3    H253129   2.709   2.902  14.248  0.3243  0.2439  1.3589
10572TIP3   OH253130   6.192   0.259  14.990  0.4636 -0.1735 -0.4151
10572TIP3    H153131   6.254   0.204  15.038 -0.7113 -1.3281 -0.1947
10572TIP3    H253132   6.191   0.223  14.901 -1.4581 -1.5465  0.1118
10573TIP3   OH253133   0.961   4.657   5.072  0.0176  0.3652 -0.3010
10573TIP3    H153134   1.024   4.643   5.002  1.1493 -0.0860  0.7578
10573TIP3    H253135   1.015   4.668   5.151 -1.2448 -0.6803  0.7630
10574TIP3   OH253136   3.972   4.457  10.964 -0.1466  0.4573 -0.4852
10574TIP3    H153137   4.060   4.487  10.942 -0.8089  2.5514 -0.5698
10574TIP3    H253138   3.977   4.435  11.057  0.0586  2.4353  0.0119
10575TIP3   OH253139   2.820   0.494   4.713 -0.6830  0.2161  0.0417
10575TIP3    H153140   2.789   0.412   4.753  0.1333  0.3807  1.0323
10575TIP3    H253141   2.884   0.529   4.775  0.1276  0.8266 -1.1037
10576TIP3   OH253142   0.372   3.485   2.046 -0.2012 -0.1126  0.5801
10576TIP3    H153143   0.387   3.530   2.129  2.0566 -1.1795  0.8273
10576TIP3    H253144   0.455   3.494   1.999 -0.3341 -2.3209 -0.1575
10577TIP3   OH253145   3.963   0.287  15.676  0.4385 -0.8008  0.4480
10577TIP3    H153146   4.031   0.227  15.644  0.9614  1.4390 -3.2085
10577TIP3    H253147   4.011   0.367  15.699 -0.6976  0.2825 -0.7463
10578TIP3   OH253148   0.405   3.574  16.149  0.3536  0.0054  0.1437
10578TIP3    H153149   0.434   3.538  16.233  2.6797 -0.5673 -0.8072
10578TIP3    H253150   0.314   3.600  16.163  0.2367 -1.4091  2.3953
10579TIP3   OH253151   4.228   3.325   1.547  0.4376 -0.0345 -0.5301
10579TIP3    H153152   4.235   3.385   1.473  0.2342  0.3114 -0.2700
10579TIP3    H253153   4.246   3.379   1.624 -1.5755  0.1375 -0.1253
10580TIP3   OH253154   5.440   1.748  12.355 -0.0116 -0.6867 -0.0379
10580TIP3    H153155   5.501   1.799  12.302 -0.0705 -0.0965  0.4484
10580TIP3    H253156   5.460   1.773  12.445  1.2786 -2.9365  0.3938
10581TIP3   OH253157   4.634   1.621  15.754 -0.3566 -0.4379  0.0163
10581TIP3    H153158   4.618   1.659  15.668 -0.6761 -1.5381 -0.4365
10581TIP3    H253159   4.729   1.607  15.757 -0.2735  0.1354  0.0800
10582TIP3   OH253160   1.697   5.003  11.047 -0.0714 -0.4752 -0.7845
10582TIP3    H153161   1.617   5.051  11.023 -1.3136 -1.6419  0.7437
10582TIP3    H253162   1.666   4.914  11.067  1.7288 -1.1369 -0.7512
10583TIP3   OH253163   3.126   0.979  16.241 -0.0748  0.2462  0.4340
10583TIP3    H153164   3.058   0.945  16.183 -0.3645  1.7080 -0.1096
10583TIP3    H253165   3.207   0.938  16.210 -0.2231  1.0274 -1.0433
10584TIP3   OH253166   5.259   3.547  14.841 -0.5150 -0.7185  1.2656
10584TIP3    H153167   5.211   3.590  14.911  0.0589 -1.7026  2.2802
10584TIP3    H253168   5.231   3.455  14.844 -1.8441 -0.4746 -0.9689
10585TIP3   OH253169   6.637   1.161  14.833  0.1991  0.0443 -0.5985
10585TIP3    H153170   6.689   1.241  14.835  1.9800 -1.0337  1.5658
10585TIP3    H253171   6.581   1.167  14.911  0.9490 -1.1112  0.0693
10586TIP3   OH253172   1.391   0.779  10.995 -0.3731 -0.0377  0.0521
10586TIP3    H153173   1.443   0.718  11.048  0.8127  0.6791 -0.2473
10586TIP3    H253174   1.396   0.743  10.906  0.1601  0.3840 -0.0901
10587TIP3   OH253175   4.718   0.256  16.840 -0.2526  0.0675  0.0370
10587TIP3    H153176   4.652   0.313  16.879 -1.5667 -0.7189 -0.9142
10587TIP3    H253177   4.719   0.280  16.747 -2.2860 -2.6209 -0.8350
10588TIP3   OH253178   6.026   4.724   4.867 -0.0505 -0.0531 -0.0756
10588TIP3    H153179   5.975   4.643   4.859  0.8935 -0.6085 -0.5684
10588TIP3    H253180   6.081   4.726   4.789  0.2948  0.8262  0.1756
10589TIP3   OH253181   5.068   4.639   3.050  0.1970  0.2331 -0.3557
10589TIP3    H153182   5.018   4.576   3.102  0.9741  0.9106  1.3110
10589TIP3    H253183   5.100   4.703   3.115 -0.2226  2.1264 -1.9079
10590TIP3   OH253184   3.784   0.149   2.451  0.3502 -0.0232  0.4851
10590TIP3    H153185   3.738   0.201   2.518 -2.6003  0.4714 -1.7424
10590TIP3    H253186   3.840   0.213   2.406 -0.1556  0.3634  0.3918
10591TIP3   OH253187   0.342   2.336  14.971  0.1592  0.5156  0.2621
10591TIP3    H153188   0.384   2.370  14.893  1.1276  2.3081  1.4965
10591TIP3    H253189   0.391   2.257  14.993 -0.8485 -0.6712 -1.5238
10592TIP3   OH253190   0.654   1.460  17.122  0.2092 -0.2064 -0.1519
10592TIP3    H153191   0.565   1.492  17.110  0.0262 -0.5971  0.1217
10592TIP3    H253192   0.699   1.484  17.042 -0.3611 -0.7092 -0.6397
10593TIP3   OH253193   1.201   2.875  14.822 -0.1884 -0.1696 -0.3837
10593TIP3    H153194   1.133   2.901  14.760 -1.0331 -0.1492  0.5242
10593TIP3    H253195   1.211   2.781  14.809  0.3163 -0.0111 -1.1946
10594TIP3   OH253196   5.488   2.629   0.259  0.2734 -0.2043  0.1503
10594TIP3    H153197   5.525   2.542   0.251 -1.2354 -0.7217 -2.3982
10594TIP3    H253198   5.395   2.618   0.237  0.4462  2.2814 -2.4138
10595TIP3   OH253199   1.036   5.047   0.364 -0.4458 -0.1422 -0.2305
10595TIP3    H153200   0.991   5.104   0.302 -1.1990 -0.7990 -0.3094
10595TIP3    H253201   1.021   4.959   0.330  1.4187 -0.3591 -0.5890
10596TIP3   OH253202   4.032   5.971   0.230 -0.4131 -0.4239  0.1782
10596TIP3    H153203   3.952   5.930   0.197  0.6445 -1.3966 -1.2830
10596TIP3    H253204   4.031   5.953   0.324 -0.7735 -2.4507 -0.1701
10597TIP3   OH253205   3.154   4.457   0.871  0.7302  0.3706 -0.2859
10597TIP3    H153206   3.132   4.533   0.924  2.3778 -0.3977  1.6340
10597TIP3    H253207   3.073   4.434   0.827 -0.6390  1.3215  1.5978
10598TIP3   OH253208   2.266   4.717  15.077  0.0923  0.4486  0.0678
10598TIP3    H153209   2.238   4.660  15.149  1.5810 -0.3057  0.0776
10598TIP3    H253210   2.270   4.804  15.116 -0.4845  0.2805  0.5180
10599TIP3   OH253211   4.836   2.742  14.265  0.1697 -0.2267  0.4667
10599TIP3    H153212   4.890   2.788  14.200 -0.2799 -1.3370 -0.7319
10599TIP3    H253213   4.885   2.662  14.284 -0.4631 -0.6623  0.2924
10600TIP3   OH253214   4.807   3.638  17.026  0.0460 -0.2716 -0.5259
10600TIP3    H153215   4.896   3.640  17.061 -0.6364 -1.1918  1.3963
10600TIP3    H253216   4.751   3.629  17.104 -1.9423  3.0610 -1.3836
10601TIP3   OH253217   6.190   1.179   4.397  0.6738 -0.1774 -0.7597
10601TIP3    H153218   6.263   1.216   4.346 -1.0341  3.0109 -1.0975
10601TIP3    H253219   6.125   1.155   4.331 -0.1860  0.8069 -0.2861
10602TIP3   OH253220   1.068   6.573   0.527 -0.0610  0.5142  0.4134
10602TIP3    H153221   1.116   6.575   0.610  1.6514 -0.4173 -0.4974
10602TIP3    H253222   1.080   6.483   0.494 -1.4002  0.6274 -0.4534
10603TIP3   OH253223   2.481   4.208  16.413 -0.7796 -0.0438 -0.1753
10603TIP3    H153224   2.481   4.290  16.463  2.6399  0.9261 -1.5556
10603TIP3    H253225   2.463   4.140  16.479  1.6689  1.3456  2.0854
10604TIP3   OH253226   4.375   1.689  13.766  0.0750 -0.2631 -0.4245
10604TIP3    H153227   4.323   1.712  13.689  0.7091 -1.6616 -1.3135
10604TIP3    H253228   4.314   1.642  13.823 -0.4095  0.8258 -0.0186
10605TIP3   OH253229   3.499   3.339  14.265  0.6793 -0.3503 -0.5752
10605TIP3    H153230   3.435   3.271  14.246 -1.3438  1.1717  0.3326
10605TIP3    H253231   3.555   3.343  14.188 -0.7013 -1.3772 -1.6638
10606TIP3   OH253232   4.327   5.444  12.233 -0.1899  0.4381  0.4467
10606TIP3    H153233   4.355   5.479  12.318  2.5722 -0.1009 -0.1229
10606TIP3    H253234   4.355   5.352  12.234 -2.3873 -0.2920 -0.1434
10607TIP3   OH253235   0.904   2.357  17.178  0.0653  0.6478  0.0646
10607TIP3    H153236   0.908   2.315  17.092 -0.0199  0.3840  0.1891
10607TIP3    H253237   0.987   2.333  17.220  0.5552  1.5928 -0.3114
10608TIP3   OH253238   0.999   6.257   5.290  0.4681  0.4552 -0.1963
10608TIP3    H153239   1.078   6.291   5.247  1.6531 -0.0341  1.4949
10608TIP3    H253240   0.971   6.184   5.234  2.3549 -0.5821  0.1378
10609TIP3   OH253241   4.131   5.666   0.756  0.6621  0.1925 -0.4625
10609TIP3    H153242   4.149   5.758   0.777 -1.1228  0.4323  0.2005
10609TIP3    H253243   4.112   5.666   0.662  0.4946  0.5518 -0.4329
10610TIP3   OH253244   2.717   2.710  15.886 -0.0297  0.2005 -0.7537
10610TIP3    H153245   2.657   2.643  15.920  0.3484  0.0670 -0.3377
10610TIP3    H253246   2.804   2.677  15.907  0.2551 -0.1592 -2.3815
10611TIP3   OH253247   0.291   1.858  17.105 -0.4736 -0.1020 -0.2836
10611TIP3    H153248   0.365   1.838  17.162 -0.3414  0.7851 -0.1349
10611TIP3    H253249   0.330   1.895  17.027 -0.8130  3.0723  0.8991
10612TIP3   OH253250   6.756   0.054   3.147 -0.2351 -0.5749  0.4410
10612TIP3    H153251   6.794   0.020   3.066 -1.2577 -0.0707 -0.2706
10612TIP3    H253252   6.774   0.148   3.145  1.2583 -0.7938  1.6699
10613TIP3   OH253253   6.291   4.284   3.340  0.0600  0.4071 -0.1137
10613TIP3    H153254   6.281   4.267   3.247  0.2714  1.7790 -0.4099
10613TIP3    H253255   6.232   4.222   3.383 -1.5883  1.1479 -1.2625
10614TIP3   OH253256   2.310   2.538  11.972 -0.6420  0.0819  0.0899
10614TIP3    H153257   2.295   2.627  11.941 -0.9435 -0.7566 -2.3560
10614TIP3    H253258   2.222   2.502  11.985 -0.5470  0.4844  2.4069
10615TIP3   OH253259   6.403   6.054   1.235 -0.1564 -0.2403  0.0725
10615TIP3    H153260   6.481   6.031   1.285 -0.9156  1.5276  2.2830
10615TIP3    H253261   6.331   6.011   1.282 -0.6406 -1.1102 -1.3998
10616TIP3   OH253262   3.793   6.271  11.349 -0.1230  0.2243  0.2903
10616TIP3    H153263   3.840   6.194  11.320  0.7875  0.9202 -0.1210
10616TIP3    H253264   3.829   6.291  11.435 -0.3930  0.1664  0.4197
10617TIP3   OH253265   4.490   0.871  14.678 -0.1432  0.3228 -0.8653
10617TIP3    H153266   4.536   0.926  14.616 -0.1795  2.0458  0.5668
10617TIP3    H253267   4.436   0.814  14.624 -0.0300  1.6203 -2.4075
10618TIP3   OH253268   1.460   0.363  16.948 -0.6220  0.3453 -0.6031
10618TIP3    H153269   1.515   0.357  16.870 -0.0019  1.4716 -0.2695
10618TIP3    H253270   1.440   0.272  16.971  1.4197 -0.1221 -0.5169
10619TIP3   OH253271   4.328   3.461   1.795  0.3743  0.2050 -0.5513
10619TIP3    H153272   4.386   3.535   1.776 -0.2457  0.4338 -1.6387
10619TIP3    H253273   4.257   3.499   1.847  0.2186  0.3161 -0.8427
10620TIP3   OH253274   3.129   4.079   3.233 -0.1695 -0.3860 -0.5007
10620TIP3    H153275   3.123   4.144   3.303  0.6369 -0.3913 -0.4119
10620TIP3    H253276   3.183   4.121   3.166  1.1041 -1.2669 -0.0659
10621TIP3   OH253277   6.123   2.874   4.353  0.6551  0.1478  0.2677
10621TIP3    H153278   6.158   2.925   4.427  2.5317 -0.4774 -0.1329
10621TIP3    H253279   6.073   2.804   4.395  1.9419 -0.3758  1.0077
10622TIP3   OH253280   4.824   2.512  13.494 -0.3605  0.3035  0.2495
10622TIP3    H153281   4.738   2.539  13.460  0.4866  1.9127 -0.7438
10622TIP3    H253282   4.875   2.494  13.415  0.6040  0.6659  0.7862
10623TIP3   OH253283   4.310   2.342   5.303  0.0371 -0.2809  0.5045
10623TIP3    H153284   4.246   2.406   5.272  0.9461  1.7352  2.5605
10623TIP3    H253285   4.271   2.305   5.382  0.3869 -0.8450  0.4214
10624TIP3   OH253286   3.900   1.515  14.230  0.3220  0.4289  0.6140
10624TIP3    H153287   3.881   1.529  14.137  0.4318  1.9419  0.7840
10624TIP3    H253288   3.957   1.589  14.254  1.3976 -0.6636  1.5765
10625TIP3   OH253289   0.882   5.308   5.964  0.4427  0.2839 -0.1179
10625TIP3    H153290   0.841   5.269   6.041  1.6446 -2.6238 -0.8176
10625TIP3    H253291   0.939   5.376   5.998 -1.7017  1.5223  1.2045
10626TIP3   OH253292   0.490   3.741  11.133 -0.2769  0.1424  0.3492
10626TIP3    H153293   0.512   3.834  11.136  2.3358 -0.3718 -0.6632
10626TIP3    H253294   0.477   3.717  11.224  0.2430  1.2441  0.7353
10627TIP3   OH253295   3.582   0.889  14.024  0.3263 -0.0274 -0.5089
10627TIP3    H153296   3.507   0.942  14.050  1.4619  0.4614  2.0250
10627TIP3    H253297   3.646   0.953  13.993  1.2084  0.0371  1.3145
10628TIP3   OH253298   2.845   1.343  16.057 -0.4936  0.0286 -0.1652
10628TIP3    H153299   2.934   1.315  16.033 -1.0169 -0.8680 -1.1281
10628TIP3    H253300   2.857   1.396  16.136  0.6958 -1.8671  1.0096
10629TIP3   OH253301   6.435   0.918  14.731 -0.0347  0.3445 -0.3161
10629TIP3    H153302   6.381   0.871  14.795 -1.2417 -0.1081 -1.6165
10629TIP3    H253303   6.372   0.961  14.674  0.9594 -0.1951 -1.8847
10630TIP3   OH253304   5.924   0.266  14.923  0.3284  0.0027  0.8871
10630TIP3    H153305   6.017   0.244  14.923 -0.1207 -2.3764 -0.9889
10630TIP3    H253306   5.895   0.253  15.013  1.3680 -1.6110  1.0260
10631TIP3   OH253307   3.017   2.891  16.822 -0.0354  0.3150  0.2147
10631TIP3    H153308   3.061   2.943  16.755 -1.3478 -0.8168 -1.6024
10631TIP3    H253309   3.042   2.800  16.803  0.9842  0.0796  2.3805
10632TIP3   OH253310   1.853   1.560   3.584 -0.2930  0.1890 -0.0230
10632TIP3    H153311   1.917   1.600   3.643 -0.6289  0.0629  0.4294
10632TIP3    H253312   1.884   1.582   3.496 -1.0835  2.5085  0.1911
10633TIP3   OH253313   2.924   4.741  10.619 -0.3622  0.7001  0.5471
10633TIP3    H153314   2.841   4.755  10.573  0.2634  1.8315 -0.2898
10633TIP3    H253315   2.912   4.786  10.702 -1.0345 -0.2481  0.9866
10634TIP3   OH253316   6.021   0.132  10.506 -0.5424  0.1133  0.5604
10634TIP3    H153317   5.959   0.164  10.441  0.3198 -1.3835 -1.0594
10634TIP3    H253318   5.969   0.075  10.563 -0.8678 -0.3895 -0.2193
10635TIP3   OH253319   4.703   1.294   1.235  0.1559 -0.2234  0.1318
10635TIP3    H153320   4.739   1.364   1.180 -1.3567  0.8014  0.3766
10635TIP3    H253321   4.672   1.228   1.172  0.2210  0.0302 -0.1686
10636TIP3   OH253322   0.623   4.491   4.828 -0.0597 -0.0946 -0.2420
10636TIP3    H153323   0.677   4.483   4.907  0.0783  0.7255 -0.2470
10636TIP3    H253324   0.611   4.586   4.817 -2.1252 -0.2451  0.2068
10637TIP3   OH253325   1.286   3.107   4.544  0.6550 -0.5086  0.2174
10637TIP3    H153326   1.246   3.142   4.624  0.8670 -0.1010  0.1503
10637TIP3    H253327   1.349   3.174   4.518 -1.2733  0.6827 -1.7938
10638TIP3   OH253328   1.893   4.620  10.651 -0.1841 -0.2028 -0.2792
10638TIP3    H153329   1.866   4.671  10.727 -0.5238 -1.1800  0.2710
10638TIP3    H253330   1.811   4.596  10.608 -0.1333 -1.5501  0.3196
10639TIP3   OH253331   3.858   1.929   3.976  0.5739  0.0829  0.0864
10639TIP3    H153332   3.804   2.008   3.974 -0.4870 -0.6458 -0.2650
10639TIP3    H253333   3.936   1.952   3.925  1.3008  1.6072  1.7531
10640TIP3   OH253334   0.741   0.204   2.091 -0.4512  0.3671  0.0425
10640TIP3    H153335   0.712   0.139   2.156 -1.1623  0.5586 -0.0686
10640TIP3    H253336   0.741   0.286   2.139 -1.4415  0.5892 -0.2988
10641TIP3   OH253337   5.799   1.905   2.841  0.2035  0.4248  0.2478
10641TIP3    H153338   5.723   1.962   2.824 -0.7677 -0.6249  0.8981
10641TIP3    H253339   5.793   1.837   2.775 -1.4367 -1.5675  2.2861
10642TIP3   OH253340   3.017   6.245   5.170 -0.1661 -0.0836 -0.1314
10642TIP3    H153341   2.978   6.300   5.102  1.0357  0.7931 -0.1469
10642TIP3    H253342   2.947   6.231   5.233 -1.0596 -0.2073 -1.1114
10643TIP3   OH253343   0.587   0.168   5.303  0.2147 -0.3627 -0.3491
10643TIP3    H153344   0.652   0.238   5.292 -0.4565  0.2788 -0.3128
10643TIP3    H253345   0.503   0.213   5.296 -0.2346 -1.2843 -1.0149
10644TIP3   OH253346   5.297   1.553   3.469 -0.1941 -0.2113  0.3857
10644TIP3    H153347   5.273   1.602   3.547 -1.1920  1.1877 -0.7529
10644TIP3    H253348   5.364   1.606   3.426  1.3844 -1.6476  0.9530
10645TIP3   OH253349   0.184   4.478  13.259  0.0173 -0.0144  0.7028
10645TIP3    H153350   0.252   4.544  13.246 -2.0197  1.8641 -1.3486
10645TIP3    H253351   0.193   4.452  13.351  2.6025  1.1079  0.8549
10646TIP3   OH253352   4.300   2.969   2.511 -0.1866  0.9539 -0.1901
10646TIP3    H153353   4.311   3.022   2.590 -2.6203  1.7118 -0.2769
10646TIP3    H253354   4.282   2.880   2.544 -0.8049  1.1899  0.1346
10647TIP3   OH253355   1.949   1.364  11.441  0.3768 -0.1570  0.0883
10647TIP3    H153356   1.885   1.346  11.372  0.4610 -0.0963 -0.0063
10647TIP3    H253357   1.986   1.449  11.416  0.9555 -0.4905 -0.2061
10648TIP3   OH253358   6.358   6.771  16.299  0.5812  0.1622  0.1406
10648TIP3    H153359   6.264   6.789  16.293  1.1289  3.1833 -0.6351
10648TIP3    H253360   6.383   6.748  16.210  1.1137  2.6850 -0.4150
10649TIP3   OH253361   5.154   6.543   0.757  0.3048 -0.1105 -0.6117
10649TIP3    H153362   5.227   6.505   0.805  1.3768  0.5585 -1.6559
10649TIP3    H253363   5.100   6.586   0.823  0.5372 -1.0946  0.2343
10650TIP3   OH253364   2.450   2.418   0.286 -0.2563  0.1872 -0.2500
10650TIP3    H153365   2.466   2.345   0.345  1.3207  1.6612  1.2824
10650TIP3    H253366   2.355   2.421   0.275 -0.4213 -1.4018  0.5035
10651TIP3   OH253367   2.106   5.026  16.734  0.0211  0.5049  0.0233
10651TIP3    H153368   2.068   5.031  16.821  0.7696 -0.3783  0.4126
10651TIP3    H253369   2.200   5.035  16.748  0.1353  0.5441 -0.7154
10652TIP3   OH253370   5.992   1.448   2.959 -0.1968 -0.3060 -0.2076
10652TIP3    H153371   6.066   1.407   3.005  0.0415 -0.4415 -0.7000
10652TIP3    H253372   6.032   1.518   2.907 -0.1119 -1.6188 -2.0040
10653TIP3   OH253373   2.095   3.702  17.154  0.0499 -1.4148 -0.0108
10653TIP3    H153374   2.037   3.677  17.083 -0.9747 -3.8357  1.5445
10653TIP3    H253375   2.169   3.642  17.147  1.8516  0.8133 -1.2104
10654TIP3   OH253376   5.636   5.601  12.396 -0.2745  0.4929 -0.4125
10654TIP3    H153377   5.577   5.612  12.471  1.1174 -1.9136  1.1904
10654TIP3    H253378   5.694   5.676  12.400 -1.7622  1.7185 -0.6620
10655TIP3   OH253379   3.271   5.808   0.625 -0.1070 -0.5915 -0.4286
10655TIP3    H153380   3.246   5.716   0.619 -2.6068 -0.0228  0.0608
10655TIP3    H253381   3.241   5.847   0.543 -2.6085  0.4515  0.8646
10656TIP3   OH253382   0.067   4.205  11.777  0.0385 -0.0788  0.3876
10656TIP3    H153383   0.002   4.243  11.717 -0.1869 -1.3142 -0.1791
10656TIP3    H253384   0.016   4.181  11.855 -0.2170 -1.0461 -0.0562
10657TIP3   OH253385   4.875   4.638   0.329  0.5313  0.0600 -0.5584
10657TIP3    H153386   4.948   4.579   0.311  1.7930  1.5679 -0.5796
10657TIP3    H253387   4.826   4.640   0.247  1.3286  0.1918 -1.0442
10658TIP3   OH253388   6.587   3.030  14.769 -0.4819 -0.0349  0.0089
10658TIP3    H153389   6.613   2.938  14.777 -1.3820 -0.3525 -0.5720
10658TIP3    H253390   6.627   3.059  14.688 -0.3713  0.0286  0.0861
10659TIP3   OH253391   0.965   1.203  14.279  0.3645  0.1229 -0.0718
10659TIP3    H153392   1.052   1.221  14.315 -0.3443 -0.4292  2.0638
10659TIP3    H253393   0.908   1.193  14.356 -1.2503 -1.2336 -1.3446
10660TIP3   OH253394   0.573   0.224  12.743  0.0775  0.0100  0.2018
10660TIP3    H153395   0.506   0.179  12.792 -0.3483  0.5453  0.1237
10660TIP3    H253396   0.548   0.317  12.747 -0.4633 -0.0067 -1.7488
10661TIP3   OH253397   5.415   2.048   3.992 -0.3732 -0.1319  0.1562
10661TIP3    H153398   5.361   1.973   4.014 -1.0178  0.3702  0.3074
10661TIP3    H253399   5.375   2.121   4.039  1.3725 -0.0250  1.6386
10662TIP3   OH253400   5.825   4.790   3.639  0.0944  0.0508  0.3255
10662TIP3    H153401   5.850   4.825   3.554 -0.8640  1.3384  0.5351
10662TIP3    H253402   5.787   4.705   3.621 -1.5199  0.9429 -0.7514
10663TIP3   OH253403   6.265   6.217  14.245 -0.4539  0.0000 -0.4047
10663TIP3    H153404   6.299   6.244  14.160 -2.3221 -2.7647 -2.2252
10663TIP3    H253405   6.171   6.205  14.231 -1.1028  0.7949  2.5029
10664TIP3   OH253406   6.673   2.108   5.084 -0.0328  0.0902  0.1373
10664TIP3    H153407   6.710   2.179   5.137  1.8955 -0.1016 -0.8641
10664TIP3    H253408   6.654   2.039   5.147  0.0764  0.6905  0.8456
10665TIP3   OH253409   5.580   4.279  17.190 -0.1807  0.0612  0.1032
10665TIP3    H153410   5.569   4.188  17.162  1.3307 -0.0453 -0.2557
10665TIP3    H253411   5.614   4.323  17.112  0.0032  0.7155  0.5508
10666TIP3   OH253412   3.422   4.997  12.323 -0.1565 -0.0442 -0.3946
10666TIP3    H153413   3.353   4.931  12.310  0.5190 -0.5122 -1.8973
10666TIP3    H253414   3.502   4.945  12.336 -0.3281  0.4258  3.6936
10667TIP3   OH253415   3.740   2.669  11.611  0.3724 -0.1451  0.3028
10667TIP3    H153416   3.734   2.616  11.532  0.3773 -1.8587  1.3798
10667TIP3    H253417   3.654   2.661  11.652  0.2681  0.9824  0.3406
10668TIP3   OH253418   3.346   0.155  15.972  0.1212  0.0648  0.1986
10668TIP3    H153419   3.441   0.144  15.970  0.2833  1.4204 -0.7976
10668TIP3    H253420   3.316   0.119  15.888 -0.2742 -0.4493  0.5514
10669TIP3   OH253421   0.168   2.777  17.217  0.6651  0.3744 -0.3486
10669TIP3    H153422   0.227   2.813  17.283 -0.7725 -0.0103  1.2088
10669TIP3    H253423   0.188   2.683  17.216 -0.9038 -0.0243  1.3126
10670TIP3   OH253424   0.603   2.943  14.804 -0.1787  0.5077  0.1443
10670TIP3    H153425   0.515   2.908  14.812  0.0073  0.3287  1.7336
10670TIP3    H253426   0.656   2.870  14.772 -0.4124  0.3091  0.2155
10671TIP3   OH253427   1.557   4.353  16.111 -0.3020 -0.3880  0.2246
10671TIP3    H153428   1.509   4.327  16.033 -1.6371  0.2749  0.7996
10671TIP3    H253429   1.648   4.330  16.091 -0.6537 -0.5359 -1.3778
10672TIP3   OH253430   3.089   2.409   0.477  0.2310  0.1173  0.2150
10672TIP3    H153431   3.113   2.318   0.497  2.2180  0.9943  2.2326
10672TIP3    H253432   3.126   2.425   0.390  0.2797 -0.8622  0.0411
10673TIP3   OH253433   4.204   5.542  11.095  0.6160  0.1388 -0.1008
10673TIP3    H153434   4.151   5.617  11.068 -0.3618 -0.5526 -0.1178
10673TIP3    H253435   4.280   5.545  11.036  0.9443  1.5011  0.3387
10674TIP3   OH253436   4.479   1.967   0.595 -0.2034 -0.2977 -0.3555
10674TIP3    H153437   4.502   2.036   0.657 -0.5503 -1.8048  1.5392
10674TIP3    H253438   4.499   1.886   0.641 -0.8233 -1.4958 -2.1004
10675TIP3   OH253439   3.004   1.385   1.679  0.2261 -0.0343  0.5139
10675TIP3    H153440   3.027   1.462   1.627 -0.6076 -0.3478 -0.3368
10675TIP3    H253441   2.953   1.421   1.752 -0.5453  0.1817 -0.1247
10676TIP3   OH253442   3.538   5.035  11.322  0.2623  0.4328 -0.0289
10676TIP3    H153443   3.484   5.075  11.390  1.9636 -0.3517  1.9034
10676TIP3    H253444   3.476   4.992  11.263 -1.2739  0.7901  1.2785
10677TIP3   OH253445   5.898   1.823   3.453  0.3647 -0.3839  0.2693
10677TIP3    H153446   5.940   1.740   3.433  1.8536  0.7262 -1.4828
10677TIP3    H253447   5.892   1.824   3.549 -0.2702 -2.7340  0.3084
10678TIP3   OH253448   3.691   4.461  14.031  0.5578 -0.1213 -0.3239
10678TIP3    H153449   3.606   4.487  14.066  0.7500 -0.5496  0.4751
10678TIP3    H253450   3.679   4.370  14.004  0.6774 -0.0839 -0.5078
10679TIP3   OH253451   0.438   0.045   6.076 -0.1681 -0.3124 -0.3239
10679TIP3    H153452   0.380   0.068   6.149  0.2890 -0.9212  0.2462
10679TIP3    H253453   0.379   0.033   6.001 -0.8627 -1.5542  0.3906
10680TIP3   OH253454   6.666   6.712  14.891  0.0209 -0.3862 -0.0155
10680TIP3    H153455   6.728   6.782  14.870  0.8588 -1.2168 -0.4225
10680TIP3    H253456   6.625   6.690  14.808  0.7465 -1.2645 -0.1665
10681TIP3   OH253457   5.962   1.033   1.214  0.9655  0.1261 -0.1730
10681TIP3    H153458   5.944   1.011   1.123 -1.9641 -0.1747  0.4016
10681TIP3    H253459   5.911   1.112   1.231  0.4965 -0.4867  1.4926
10682TIP3   OH253460   0.244   4.905  16.410 -0.4742  0.5267 -0.0863
10682TIP3    H153461   0.178   4.904  16.480 -0.7474  0.9343 -0.3377
10682TIP3    H253462   0.237   4.818  16.370 -0.0563  0.1452  0.6274
10683TIP3   OH253463   2.640   6.443   2.431 -0.3836 -0.7819  0.3638
10683TIP3    H153464   2.708   6.385   2.466  0.0200  0.2565  1.3697
10683TIP3    H253465   2.639   6.517   2.491  0.2873  1.0742 -1.7812
10684TIP3   OH253466   3.513   2.583  14.658 -0.5513 -0.3742 -0.1099
10684TIP3    H153467   3.546   2.673  14.665 -1.2305 -0.1902  1.0499
10684TIP3    H253468   3.554   2.537  14.731 -0.9172 -0.7584 -0.1433
10685TIP3   OH253469   4.212   0.030   1.942 -0.0570 -0.1989  0.0849
10685TIP3    H153470   4.262  -0.051   1.942 -1.2188 -0.9696  1.0716
10685TIP3    H253471   4.175   0.035   2.031 -2.0123  0.0922 -0.6798
10686TIP3   OH253472   0.308   1.023   6.075 -0.1496 -0.1322 -0.2785
10686TIP3    H153473   0.259   0.951   6.115  0.0032  0.7734  1.6224
10686TIP3    H253474   0.257   1.101   6.094  1.7058  0.7714  1.2884
10687TIP3   OH253475   2.073   0.992  13.516 -0.0093  0.1650  0.3691
10687TIP3    H153476   2.094   1.083  13.496 -2.0732  0.0238 -3.4643
10687TIP3    H253477   1.982   0.994  13.545 -0.4519 -0.7293 -0.8866
10688TIP3   OH253478   1.652   3.077   0.580 -0.6911  0.6276  0.2375
10688TIP3    H153479   1.664   3.078   0.675 -1.8277 -1.0762  0.4315
10688TIP3    H253480   1.571   3.028   0.566 -0.2849  0.4231 -1.6441
10689TIP3   OH253481   1.292   1.249  16.463  0.1670  0.9883 -0.4406
10689TIP3    H153482   1.352   1.175  16.463 -2.0506 -0.9005 -1.0400
10689TIP3    H253483   1.228   1.228  16.531 -0.6248  2.2759 -0.7525
10690TIP3   OH253484   3.046   2.870  12.726  0.1053 -0.0409  0.0003
10690TIP3    H153485   3.031   2.789  12.678 -2.0641  0.2740  0.0652
10690TIP3    H253486   3.140   2.885  12.719  0.4422 -2.1768 -0.6065
10691TIP3   OH253487   3.101   4.301  12.904 -0.3038  0.2118  0.2363
10691TIP3    H153488   3.034   4.368  12.902 -0.0914  0.4271  0.3294
10691TIP3    H253489   3.157   4.324  12.979 -0.8030 -0.6255  0.8812
10692TIP3   OH253490   2.309   0.433  11.773 -0.8045 -0.2710  0.2828
10692TIP3    H153491   2.386   0.483  11.799 -1.7611  1.3834  0.0979
10692TIP3    H253492   2.335   0.390  11.691 -0.3400  0.9948 -0.2604
10693TIP3   OH253493   0.650   1.369  11.087  0.4661 -0.5774 -0.6505
10693TIP3    H153494   0.688   1.322  11.013  1.7377 -1.3526  0.4510
10693TIP3    H253495   0.560   1.338  11.092  1.3588 -3.2392  0.2540
10694TIP3   OH253496   4.385   1.697   0.265 -0.0718  0.7266  0.2566
10694TIP3    H153497   4.452   1.651   0.316 -1.1804  0.5871  1.6626
10694TIP3    H253498   4.370   1.640   0.189  2.3380  1.4411 -0.8603
10695TIP3   OH253499   0.697   2.945   6.174  0.0192 -0.3968 -0.2091
10695TIP3    H153500   0.763   2.960   6.241 -0.0061 -1.8247  0.1596
10695TIP3    H253501   0.618   2.921   6.223 -0.0621 -1.2223 -0.7249
10696TIP3   OH253502   5.461   1.999  10.552  0.2096  0.2470  0.1777
10696TIP3    H153503   5.498   1.911  10.561 -3.6595 -1.4338  2.1241
10696TIP3    H253504   5.381   1.986  10.502 -0.2441  2.7700  0.1290
10697TIP3   OH253505   0.496   0.743  14.969 -0.3669 -0.5041  0.4784
10697TIP3    H153506   0.524   0.751  14.878 -0.9453  0.7994  0.3884
10697TIP3    H253507   0.511   0.830  15.006 -3.8740  0.2417  0.4970
10698TIP3   OH253508   1.650   1.674   4.996  0.6211  0.7506  0.0151
10698TIP3    H153509   1.662   1.579   4.992 -0.2317  0.5989  0.8732
10698TIP3    H253510   1.740   1.709   4.995  0.9441  0.0584 -2.1932
10699TIP3   OH253511   4.269   5.522   3.806  0.6918 -0.3919  0.5442
10699TIP3    H153512   4.307   5.435   3.813 -1.1564 -1.4688 -1.4214
10699TIP3    H253513   4.175   5.506   3.795 -0.0446  1.9877  2.5451
10700TIP3   OH253514   2.648   6.203   1.633 -0.2707  0.7489  0.2897
10700TIP3    H153515   2.581   6.139   1.610  0.9488  0.2472 -2.2454
10700TIP3    H253516   2.729   6.166   1.598  1.2308  1.7335  2.4987
10701TIP3   OH253517   1.665   0.535   3.243 -0.0021  0.0908  0.1252
10701TIP3    H153518   1.759   0.555   3.249 -0.2015  0.8365  1.0216
10701TIP3    H253519   1.640   0.565   3.155  0.5135  0.2686  0.0329
10702TIP3   OH253520   5.734   5.577  12.860  0.4152  0.6099 -0.1865
10702TIP3    H153521   5.823   5.572  12.897 -0.4852 -2.5159  1.9774
10702TIP3    H253522   5.740   5.530  12.777  0.7414  0.1208  0.1084
10703TIP3   OH253523   5.906   6.646   6.208  0.6194 -0.7053 -0.1014
10703TIP3    H153524   5.890   6.735   6.240 -1.3079 -1.1397  0.2539
10703TIP3    H253525   5.967   6.608   6.272  0.8630  0.1024  0.1637
10704TIP3   OH253526   1.357   4.587   4.497 -0.8538  0.0405  0.2126
10704TIP3    H153527   1.399   4.587   4.411 -0.9754 -0.0024  0.1518
10704TIP3    H253528   1.292   4.657   4.491  0.4412  1.3583  0.9203
10705TIP3   OH253529   6.435   6.543   4.346  0.5300 -0.1219 -0.5462
10705TIP3    H153530   6.418   6.617   4.405 -2.3626 -0.4024 -0.8962
10705TIP3    H253531   6.473   6.584   4.268  0.9898  0.7126  0.0908
10706TIP3   OH253532   5.886   2.905  13.041 -0.0254 -0.3451 -0.5236
10706TIP3    H153533   5.824   2.887  12.971 -0.2632  1.0262 -0.7010
10706TIP3    H253534   5.880   3.000  13.055 -0.0506 -0.5903  1.4187
10707TIP3   OH253535   3.006   1.384   5.624 -0.2538  0.0814  0.5073
10707TIP3    H153536   3.022   1.407   5.715  1.5884 -0.1200  0.2783
10707TIP3    H253537   2.940   1.447   5.594  0.1038  1.0026  1.6026
10708TIP3   OH253538   0.926   1.674  16.465  0.0405 -0.4914 -0.0722
10708TIP3    H153539   0.980   1.602  16.431 -1.2081 -1.0210 -1.0225
10708TIP3    H253540   0.912   1.652  16.557 -0.1474 -1.3631 -0.3001
10709TIP3   OH253541   1.352   0.346   4.039 -0.2789  0.1047  0.2865
10709TIP3    H153542   1.265   0.387   4.035 -0.0474  0.6351  0.6405
10709TIP3    H253543   1.407   0.403   3.986 -0.2979 -0.6418 -0.5626
10710TIP3   OH253544   3.547   5.990   2.830 -0.0878 -0.3120 -0.1804
10710TIP3    H153545   3.459   6.026   2.824 -0.0922 -0.2835  0.0712
10710TIP3    H253546   3.598   6.057   2.874 -0.6868 -1.6676  2.8080
10711TIP3   OH253547   0.554   0.726  11.497  0.3067 -0.2307  0.1728
10711TIP3    H153548   0.535   0.814  11.532  0.9092  0.2811 -0.7416
10711TIP3    H253549   0.468   0.684  11.493  0.1392 -0.0982  1.6609
10712TIP3   OH253550   5.653   2.905  10.808  0.0838 -0.4991  0.1997
10712TIP3    H153551   5.646   2.812  10.831 -1.4964 -0.3589  0.4234
10712TIP3    H253552   5.631   2.907  10.714  0.1860 -0.3612  0.1790
10713TIP3   OH253553   2.960   3.785   2.662  0.4564  0.0982  0.7760
10713TIP3    H153554   3.017   3.862   2.658  1.2232 -0.3660  2.2977
10713TIP3    H253555   3.020   3.711   2.673 -0.3259 -0.6366  0.2293
10714TIP3   OH253556   5.782   6.247  11.415  0.1530  0.4258 -0.3257
10714TIP3    H153557   5.820   6.193  11.345 -1.8306  0.5592 -1.6008
10714TIP3    H253558   5.746   6.323  11.369 -2.0709  0.0444  0.6588
10715TIP3   OH253559   4.124   1.598  13.912  0.1173 -0.3219  0.0226
10715TIP3    H153560   4.058   1.662  13.941  0.1036 -0.1167 -0.4464
10715TIP3    H253561   4.116   1.598  13.816  0.4881 -0.6329 -0.0088
10716TIP3   OH253562   6.172   2.236   5.584  0.0140 -0.0790  0.1459
10716TIP3    H153563   6.084   2.270   5.595 -0.8837 -1.7396 -1.4063
10716TIP3    H253564   6.178   2.163   5.645  1.0106  1.1354  1.5734
10717TIP3   OH253565   1.469   4.319   4.293  0.2056 -0.3006  0.1432
10717TIP3    H153566   1.530   4.390   4.311  1.3553 -1.2599  0.1969
10717TIP3    H253567   1.409   4.354   4.227 -0.0914  1.1308  1.1424
10718TIP3   OH253568   5.274   3.615   2.082  0.5206  0.1840  0.7343
10718TIP3    H153569   5.366   3.628   2.057  0.3665  0.4251  0.2761
10718TIP3    H253570   5.258   3.522   2.066 -0.2656  0.7528 -2.5626
10719TIP3   OH253571   6.706   1.866   0.322 -0.0067  0.1686 -0.2391
10719TIP3    H153572   6.669   1.792   0.370 -0.7961 -1.2401 -2.8176
10719TIP3    H253573   6.793   1.878   0.361 -0.4803 -1.0620  1.3154
10720TIP3   OH253574   4.612   5.909   0.346  0.2904 -0.1599  0.6558
10720TIP3    H153575   4.522   5.876   0.352  0.7805 -1.3199  3.1502
10720TIP3    H253576   4.640   5.918   0.437  2.6770  0.3166 -0.0504
10721TIP3   OH253577   0.933   5.667  17.050  0.1873  0.5707 -0.3035
10721TIP3    H153578   0.901   5.745  17.007  0.2113  0.7320 -0.0298
10721TIP3    H253579   0.889   5.665  17.135  1.1386  0.9813  0.2173
10722TIP3   OH253580   6.722   1.157  17.002 -0.3394  0.2323  0.3395
10722TIP3    H153581   6.646   1.215  16.989 -0.9497 -0.6088  0.0815
10722TIP3    H253582   6.759   1.146  16.914 -0.0788  0.4197  0.4249
10723TIP3   OH253583   3.714   4.356  11.768 -0.4563 -0.7557 -0.4201
10723TIP3    H153584   3.729   4.409  11.690  0.0826 -1.1288 -0.5697
10723TIP3    H253585   3.796   4.361  11.817 -0.2727 -1.7326 -0.6062
10724TIP3   OH253586   1.663   4.400  15.297  0.1983  0.0172 -0.0251
10724TIP3    H153587   1.741   4.354  15.327  0.4682  0.3054 -0.2861
10724TIP3    H253588   1.606   4.331  15.263  0.0131 -0.2840  0.8603
10725TIP3   OH253589   0.786   1.055   2.415  0.0333  0.0379 -0.3615
10725TIP3    H153590   0.717   0.989   2.422  0.6883 -0.5458  0.8660
10725TIP3    H253591   0.747   1.134   2.452  0.0271 -0.3008  0.3672
10726TIP3   OH253592   0.737   0.090  14.196 -0.1092 -0.3104 -0.3172
10726TIP3    H153593   0.809   0.108  14.135 -0.2993  0.5899 -0.2981
10726TIP3    H253594   0.667   0.057  14.140  0.3358 -1.2461 -0.3266
10727TIP3   OH253595   2.090   4.460   3.792 -0.1832  0.1450  0.4614
10727TIP3    H153596   2.102   4.429   3.702  0.2581  1.2892  0.1132
10727TIP3    H253597   2.125   4.389   3.846  0.0349 -0.3305 -0.2886
10728TIP3   OH253598   3.432   4.929  11.057 -0.5436 -0.1343 -0.3981
10728TIP3    H153599   3.351   4.934  11.007 -0.2369  1.1091 -0.7982
10728TIP3    H253600   3.483   5.005  11.029  1.0773 -1.2718 -0.6770
10729TIP3   OH253601   6.457   6.253  10.625  0.2408 -0.4585  0.1638
10729TIP3    H153602   6.539   6.251  10.673  0.0828  1.5656  0.6222
10729TIP3    H253603   6.452   6.342  10.590 -2.0170 -0.3138  0.6636
10730TIP3   OH253604   4.559   3.791  16.758 -0.1227  0.4083 -0.0505
10730TIP3    H153605   4.478   3.831  16.789 -1.3887 -1.2520 -0.9966
10730TIP3    H253606   4.530   3.720  16.701  1.9847 -1.0364  0.5401
10731TIP3   OH253607   3.408   1.159  10.447 -0.2465 -0.1126  0.3036
10731TIP3    H153608   3.445   1.165  10.535  0.6276 -0.3052 -0.0465
10731TIP3    H253609   3.439   1.238  10.402  0.3116 -0.6059 -0.1975
10732TIP3   OH253610   3.064   2.551  13.923 -1.0180 -0.5876 -0.1363
10732TIP3    H153611   2.981   2.527  13.884 -0.8865 -1.3553  0.0457
10732TIP3    H253612   3.088   2.633  13.880 -2.6071  0.4681  0.8900
10733TIP3   OH253613   3.127   4.100  15.114  0.0494 -0.2203  0.0675
10733TIP3    H153614   3.185   4.154  15.060  0.3021 -0.5808 -0.0213
10733TIP3    H253615   3.040   4.114  15.077  0.3579 -1.3397 -1.1648
10734TIP3   OH253616   4.792   2.914   4.480 -0.4920 -0.0276 -0.2682
10734TIP3    H153617   4.805   2.828   4.438 -0.0356 -1.0365  1.7989
10734TIP3    H253618   4.822   2.977   4.415 -1.5971 -1.3582 -2.1839
10735TIP3   OH253619   3.579   1.728  10.936  0.4658 -0.4177 -0.5084
10735TIP3    H153620   3.620   1.647  10.906 -0.6559 -1.8933  1.7206
10735TIP3    H253621   3.486   1.707  10.943  0.3058  0.7135  1.1590
10736TIP3   OH253622   5.178   0.919   1.744 -0.3062  0.6919 -0.5557
10736TIP3    H153623   5.206   0.928   1.653 -1.7621  0.5396 -1.0585
10736TIP3    H253624   5.110   0.986   1.755 -1.4411 -0.4759 -0.1595
10737TIP3   OH253625   2.726   5.687  13.513 -0.6698 -0.4214  0.3089
10737TIP3    H153626   2.764   5.766  13.552 -0.8701 -0.0833 -0.1661
10737TIP3    H253627   2.677   5.646  13.584 -0.6413 -0.0652  0.5387
10738TIP3   OH253628   0.377   2.154   5.863  0.0270 -0.3218 -0.1044
10738TIP3    H153629   0.341   2.092   5.928 -0.9262 -0.6933 -0.9601
10738TIP3    H253630   0.400   2.231   5.914  1.5840 -1.4988  1.0588
10739TIP3   OH253631   0.748   5.761  12.432 -0.4420  0.1963  0.1418
10739TIP3    H153632   0.720   5.674  12.404  3.7015 -0.8453 -1.4900
10739TIP3    H253633   0.729   5.818  12.357  2.5043 -0.7565 -1.4818
10740TIP3   OH253634   5.757   6.759   3.729 -0.8256  0.3345 -0.5693
10740TIP3    H153635   5.725   6.848   3.748 -2.4503 -0.2622 -0.3207
10740TIP3    H253636   5.678   6.704   3.733  0.0240 -1.0077 -1.4789
10741TIP3   OH253637   3.018   1.953   2.811  0.0924  0.4793  0.5826
10741TIP3    H153638   3.068   1.897   2.752 -2.5617 -2.1330  0.5716
10741TIP3    H253639   3.012   1.902   2.892 -1.8713  1.0087  0.8056
10742TIP3   OH253640   1.593   6.731  16.585  0.9806 -0.2053  0.3976
10742TIP3    H153641   1.652   6.778  16.526  1.2800  0.2860  1.0868
10742TIP3    H253642   1.507   6.770  16.568  0.4656 -2.0960 -1.8781
10743TIP3   OH253643   3.026   1.122  15.561  0.4712 -0.1302 -0.0030
10743TIP3    H153644   3.015   1.180  15.637 -2.2426 -1.0986  0.4426
10743TIP3    H253645   3.069   1.045  15.596  2.7047  0.9016 -0.2953
10744TIP3   OH253646   4.307   4.949  15.008 -0.2453  0.6620  0.2913
10744TIP3    H153647   4.239   4.881  15.016  0.3566 -0.3675 -2.2254
10744TIP3    H253648   4.295   4.983  14.919  2.6039  0.3060 -0.3218
10745TIP3   OH253649   4.629   0.595  15.967 -0.1492  0.5168  0.5685
10745TIP3    H153650   4.587   0.637  16.042 -0.5287  0.2354  0.5103
10745TIP3    H253651   4.596   0.506  15.967 -2.7054  1.3423 -1.8306
10746TIP3   OH253652   1.604   2.060  16.517  0.2908 -0.1844 -0.5403
10746TIP3    H153653   1.560   2.138  16.550  0.6780 -0.4959  0.7648
10746TIP3    H253654   1.655   2.092  16.442 -2.8336  0.0124 -2.7817
10747TIP3   OH253655   4.450   1.702   5.669 -0.3601 -0.5854 -0.1957
10747TIP3    H153656   4.374   1.652   5.700  1.4089 -2.8627  0.7635
10747TIP3    H253657   4.466   1.767   5.738 -1.1572 -0.3714 -0.1993
10748TIP3   OH253658   5.498   6.715   3.514 -0.1679  0.0553  0.2655
10748TIP3    H153659   5.475   6.636   3.466 -0.2448  1.0260 -1.3582
10748TIP3    H253660   5.593   6.717   3.513 -0.1778  0.3164 -0.2654
10749TIP3   OH253661   1.208   0.468  16.783 -0.5478 -0.1123  0.2206
10749TIP3    H153662   1.189   0.559  16.761  3.4897  0.8946  0.1148
10749TIP3    H253663   1.252   0.473  16.868 -0.1915 -1.9897  0.1839
10750TIP3   OH253664   5.931   2.677  14.239  0.0728 -0.1706  0.6831
10750TIP3    H153665   5.885   2.743  14.187 -0.4730 -0.3811  0.8913
10750TIP3    H253666   5.990   2.728  14.295 -0.7082  0.1858  1.2089
10751TIP3   OH253667   0.023   3.105   3.435  0.6300  0.7247  0.0975
10751TIP3    H153668  -0.048   3.048   3.404  1.5266 -0.1860 -0.3591
10751TIP3    H253669   0.081   3.046   3.483  0.4897  1.6823  1.4808
10752TIP3   OH253670   2.910   3.428   4.837  0.1599  0.2937 -0.0883
10752TIP3    H153671   3.004   3.434   4.824  0.5121 -1.1356  1.3614
10752TIP3    H253672   2.900   3.415   4.932 -1.3036 -1.7306 -0.4410
10753TIP3   OH253673   0.943   1.200  16.425 -0.3430  0.2443  0.0168
10753TIP3    H153674   1.024   1.149  16.416 -0.6534 -0.1451 -0.6494
10753TIP3    H253675   0.879   1.153  16.371 -0.8532  0.8903  0.0482
10754TIP3   OH253676   6.089   4.241  17.110  0.5228 -0.4356 -0.6762
10754TIP3    H153677   6.085   4.330  17.075 -0.8343 -0.8670 -1.7121
10754TIP3    H253678   6.135   4.191  17.042  1.4240 -0.5046 -0.0258
10755TIP3   OH253679   3.951   3.516  11.561  0.6108  0.4499 -0.0763
10755TIP3    H153680   3.965   3.516  11.656  1.4174 -0.5925 -0.1751
10755TIP3    H253681   3.981   3.602  11.532  2.5948 -0.0341  0.3436
10756TIP3   OH253682   4.136   2.645   5.882 -0.1177 -0.0966 -0.6630
10756TIP3    H153683   4.193   2.599   5.943 -0.4458  0.1265 -0.1827
10756TIP3    H253684   4.114   2.727   5.926 -2.4674 -1.0482  0.0917
10757TIP3   OH253685   3.923   4.501   2.865  0.0836 -0.1055  0.1903
10757TIP3    H153686   3.981   4.556   2.918 -0.3059 -0.9437  1.5370
10757TIP3    H253687   3.854   4.473   2.926  0.6640 -2.6909 -0.2229
10758TIP3   OH253688   4.013   4.135  15.761 -0.3290 -0.5863 -0.1266
10758TIP3    H153689   4.101   4.166  15.784 -1.9823  3.8739  1.4278
10758TIP3    H253690   4.012   4.133  15.666  1.4982 -0.8719 -0.1641
10759TIP3   OH253691   2.951   0.555  15.643  0.5337 -0.1516 -0.1921
10759TIP3    H153692   2.899   0.619  15.594  0.1360 -1.6205 -1.7845
10759TIP3    H253693   2.892   0.481  15.656  1.2683 -0.5773  0.8127
10760TIP3   OH253694   0.778   0.495  13.088  0.1730 -0.6996 -0.3438
10760TIP3    H153695   0.743   0.542  13.012  1.5646 -1.3303 -1.4066
10760TIP3    H253696   0.728   0.530  13.162 -0.1920  1.0119 -1.3423
10761TIP3   OH253697   3.031   2.903  14.056 -0.5634  0.0653 -0.1522
10761TIP3    H153698   3.123   2.880  14.042 -0.5490 -0.8867  1.2814
10761TIP3    H253699   2.982   2.836  14.007 -0.5128  0.8198 -1.2637
10762TIP3   OH253700   1.894   2.462  14.916  0.2322  0.0547 -0.5686
10762TIP3    H153701   1.946   2.523  14.864 -0.8027  0.6281 -0.9760
10762TIP3    H253702   1.844   2.517  14.976 -0.4229 -0.4098 -0.6652
10763TIP3   OH253703   1.545   5.775  12.519 -0.1659  0.4934  0.6612
10763TIP3    H153704   1.560   5.870  12.522 -0.7829  0.5933  0.5975
10763TIP3    H253705   1.592   5.741  12.595  0.7992  0.7434  0.2030
10764TIP3   OH253706   3.290   3.501  14.385  0.0455 -0.2413 -0.7646
10764TIP3    H153707   3.204   3.464  14.366  0.5620  0.0422 -4.5399
10764TIP3    H253708   3.349   3.426  14.381  0.2593 -0.0661 -0.8855
10765TIP3   OH253709   1.551   0.879   0.770 -0.4586 -0.2939  0.4953
10765TIP3    H153710   1.563   0.797   0.721  0.2732 -0.0644  0.2728
10765TIP3    H253711   1.630   0.929   0.751 -1.5587  1.1002 -0.6069
10766TIP3   OH253712   1.386   3.790   4.903  0.4282 -0.7123 -0.0223
10766TIP3    H153713   1.418   3.872   4.866 -0.9664 -1.7381 -4.1178
10766TIP3    H253714   1.435   3.722   4.856  1.1022 -2.3264  2.7972
10767TIP3   OH253715   0.208   2.680  14.196 -0.1671  0.0068 -0.7830
10767TIP3    H153716   0.196   2.589  14.170 -0.3629 -0.3148  0.3866
10767TIP3    H253717   0.283   2.710  14.145  0.8212 -1.2449 -0.1354
10768TIP3   OH253718   0.879   4.445  16.512  0.0624  0.1873  0.2466
10768TIP3    H153719   0.900   4.393  16.589 -0.9611  0.2154  0.5557
10768TIP3    H253720   0.900   4.387  16.438 -0.3157 -0.3858  0.5754
10769TIP3   OH253721   2.914   4.039  12.417 -0.6177 -0.3654 -0.1615
10769TIP3    H153722   2.824   4.007  12.429 -0.0771 -1.5826  0.8676
10769TIP3    H253723   2.918   4.119  12.469 -1.2215 -0.0732 -0.5507
10770TIP3   OH253724   5.008   2.739  13.577  0.3086 -0.6357 -0.0143
10770TIP3    H153725   4.973   2.827  13.591  0.9896 -0.4313  0.4820
10770TIP3    H253726   4.931   2.684  13.564 -0.0995  0.2236 -1.5475
10771TIP3   OH253727   1.175   1.014  14.183  0.0034  0.6913  0.5322
10771TIP3    H153728   1.186   1.107  14.200  2.7075  0.6779 -0.7095
10771TIP3    H253729   1.142   0.979  14.266 -2.4983  2.8853  0.5942
10772TIP3   OH253730   6.460   2.496   1.862 -0.0391  0.1147  0.2239
10772TIP3    H153731   6.486   2.502   1.770  0.5934  1.8899  0.4602
10772TIP3    H253732   6.431   2.585   1.884 -0.6305 -0.3911  1.6143
10773TIP3   OH253733   3.768   1.112  11.999  0.2715 -0.1911  0.1325
10773TIP3    H153734   3.812   1.063  11.930  0.0861  0.1614 -0.2442
10773TIP3    H253735   3.676   1.086  11.992  0.2405 -0.1005  0.1989
10774TIP3   OH253736   5.021   0.601   1.360 -0.3091 -0.1362  0.4192
10774TIP3    H153737   5.015   0.519   1.409 -0.1759 -0.2543  0.2422
10774TIP3    H253738   4.986   0.668   1.419 -2.1645 -0.5818 -0.1209
10775TIP3   OH253739   5.047   6.468  15.916  0.1141 -0.2375 -0.0635
10775TIP3    H153740   5.001   6.535  15.866 -1.1419 -0.3151  0.9706
10775TIP3    H253741   5.111   6.432  15.853  0.0519  1.1328 -0.9573
10776TIP3   OH253742   2.101   3.920   1.919 -0.1587 -0.4863 -0.1997
10776TIP3    H153743   2.129   3.871   1.842 -1.2161 -1.8193  0.2230
10776TIP3    H253744   2.151   3.881   1.991  0.9142  0.8297 -0.1846
10777TIP3   OH253745   3.853   5.276  15.966  0.5317 -0.2778  0.0074
10777TIP3    H153746   3.858   5.255  15.873  0.5769 -0.1237 -0.0263
10777TIP3    H253747   3.944   5.281  15.995  0.5116 -1.0066  0.2201
10778TIP3   OH253748   6.353   0.413   3.766  0.0692 -0.3143 -0.2228
10778TIP3    H153749   6.371   0.484   3.704 -0.0724 -0.5126 -0.4879
10778TIP3    H253750   6.378   0.333   3.720  0.2675 -0.4362  0.0926
10779TIP3   OH253751   3.621   1.922   6.443  0.7651  0.6496 -0.0767
10779TIP3    H153752   3.652   1.847   6.391  0.3860 -1.2904  2.3213
10779TIP3    H253753   3.527   1.924   6.427  0.8582  1.0595 -0.6273
10780TIP3   OH253754   0.405   3.386   4.379  0.0811  0.4922 -0.1228
10780TIP3    H153755   0.443   3.473   4.391 -0.2944  0.6435 -0.0212
10780TIP3    H253756   0.331   3.399   4.319  0.3855  0.1453 -0.5825
10781TIP3   OH253757   6.220   5.011  17.055  0.2547 -0.6799 -0.2550
10781TIP3    H153758   6.206   4.972  16.969  0.0343 -1.0017 -0.0763
10781TIP3    H253759   6.170   4.955  17.115 -0.3928  0.1047 -0.0417
10782TIP3   OH253760   1.467   3.079  13.018  0.1248  0.1660 -0.4449
10782TIP3    H153761   1.448   2.988  13.040  0.2262  0.5925  1.5402
10782TIP3    H253762   1.391   3.107  12.966 -1.1177 -0.3653  0.9990
10783TIP3   OH253763   1.210   3.841  11.483 -0.4621 -0.1283 -0.0852
10783TIP3    H153764   1.117   3.831  11.505 -0.6851  3.4449  1.3639
10783TIP3    H253765   1.255   3.835  11.567  0.3312  0.3555 -0.4601
10784TIP3   OH253766   2.251   0.938   0.388 -0.2484  0.6948 -0.1384
10784TIP3    H153767   2.318   0.899   0.332  1.2897  1.5867  1.0143
10784TIP3    H253768   2.222   1.015   0.339  0.9156  1.3390  0.1663
10785TIP3   OH253769   5.737   1.556  16.018 -0.1750 -0.1823  0.1728
10785TIP3    H153770   5.751   1.461  16.022 -1.4337 -0.3692  0.5908
10785TIP3    H253771   5.774   1.589  16.099  0.0686 -0.3354  0.1267
10786TIP3   OH253772   2.377   0.917  16.417 -0.5108 -0.0640 -0.2931
10786TIP3    H153773   2.417   0.961  16.492 -1.8610 -0.0321  0.4318
10786TIP3    H253774   2.324   0.847  16.456 -0.2818 -0.8131 -1.2915
10787TIP3   OH253775   3.286   2.863  14.125 -0.0583  0.2165 -0.0163
10787TIP3    H153776   3.301   2.784  14.178 -1.1402  0.8312  1.2466
10787TIP3    H253777   3.355   2.860  14.059  2.1446  0.0859  2.1725
10788TIP3   OH253778   2.220   2.143   4.926 -0.8609 -0.2844  0.1418
10788TIP3    H153779   2.203   2.066   4.871 -1.0224 -0.4810  0.4668
10788TIP3    H253780   2.297   2.118   4.977 -1.1703 -0.3924  0.5556
10789TIP3   OH253781   4.695   4.731   2.717  0.5540 -0.1361  1.0643
10789TIP3    H153782   4.742   4.763   2.640 -0.4895 -2.0343 -0.4569
10789TIP3    H253783   4.663   4.810   2.761  1.1382  0.9972 -0.4740
10790TIP3   OH253784   0.644   0.400  14.534 -0.3141  0.2176 -0.2164
10790TIP3    H153785   0.739   0.395  14.547 -0.1817  0.3238 -1.1198
10790TIP3    H253786   0.627   0.493  14.519 -0.7486  0.4035  1.2684
10791TIP3   OH253787   0.288   0.224  16.515 -0.8062  0.5691  0.2701
10791TIP3    H153788   0.374   0.235  16.474 -1.1868 -0.3717 -0.8531
10791TIP3    H253789   0.265   0.133  16.496 -1.4945  0.4174  1.6826
10792TIP3   OH253790   3.181   2.173  14.326  0.0410 -0.4653  0.4134
10792TIP3    H153791   3.090   2.185  14.301  0.4006  1.8797 -0.0197
10792TIP3    H253792   3.195   2.233  14.399  1.2168 -0.8482  0.5289
10793TIP3   OH253793   4.371   3.410   6.820 -0.7701 -0.3853 -0.2059
10793TIP3    H153794   4.406   3.344   6.880 -2.2541 -1.0502 -0.0360
10793TIP3    H253795   4.343   3.482   6.876 -1.1028 -0.5173 -0.2024
10794TIP3   OH253796   5.915   2.400   3.667  0.1052 -0.1186  0.5301
10794TIP3    H153797   5.923   2.318   3.715  0.4664 -0.2582  0.2307
10794TIP3    H253798   5.822   2.424   3.675  0.2386  0.0697  1.6377
10795TIP3   OH253799   4.244   4.601  15.903  0.5288  0.4129  0.0789
10795TIP3    H153800   4.262   4.518  15.858  0.8404  0.9131 -0.7354
10795TIP3    H253801   4.152   4.619  15.883  0.4735  0.2973  0.2195
10796TIP3   OH253802   3.300   3.198   6.796  0.1517  0.3270  0.0938
10796TIP3    H153803   3.359   3.143   6.849  0.2388 -0.0710 -0.4070
10796TIP3    H253804   3.358   3.263   6.757  0.4258 -0.5915 -1.0970
10797TIP3   OH253805   6.706   6.690   3.813  0.4400  0.5695  0.4239
10797TIP3    H153806   6.623   6.654   3.780 -0.6147  1.5223  1.8950
10797TIP3    H253807   6.774   6.642   3.766 -0.9311 -0.9652 -0.0824
10798TIP3   OH253808   0.499   1.836  11.654 -0.2881 -0.1583 -0.1340
10798TIP3    H153809   0.415   1.881  11.641  0.0080  0.4610  0.0594
10798TIP3    H253810   0.516   1.792  11.571 -0.3202  0.5384 -0.5190
10799TIP3   OH253811   5.933   2.647  15.476 -0.0698 -0.3246 -0.0602
10799TIP3    H153812   5.988   2.569  15.469 -0.2364 -0.3468 -1.3565
10799TIP3    H253813   5.892   2.640  15.562  1.3808 -0.6741  0.6395
10800TIP3   OH253814   5.073   1.051   0.312  0.2093 -0.1600  0.8044
10800TIP3    H153815   5.167   1.060   0.296  0.0898  2.9292  1.1964
10800TIP3    H253816   5.036   1.026   0.227  1.2542 -0.3050  0.3832
10801TIP3   OH253817   5.080   3.067  16.058 -0.1457 -1.3111 -0.1468
10801TIP3    H153818   5.129   3.051  16.138  0.2373  0.4383  0.0015
10801TIP3    H253819   5.022   3.140  16.079  1.9178  1.1044 -2.1890
10802TIP3   OH253820   4.092   1.083   0.644  0.0668 -0.6375 -0.1985
10802TIP3    H153821   4.129   1.000   0.674 -0.3835 -0.3506  1.2642
10802TIP3    H253822   4.148   1.149   0.684 -0.2543 -0.2313 -0.4160
10803TIP3   OH253823   3.870   5.099  14.826  0.0644 -0.2086  0.0272
10803TIP3    H153824   3.935   5.158  14.865  0.2484 -0.9343  0.8579
10803TIP3    H253825   3.857   5.031  14.892 -0.2613 -1.0128 -0.8452
10804TIP3   OH253826   2.152   3.515   1.007  0.1256  0.4402  0.2567
10804TIP3    H153827   2.223   3.561   1.052  1.0813 -1.0895  0.4013
10804TIP3    H253828   2.189   3.494   0.921  0.4851 -1.7214  0.8700
10805TIP3   OH253829   3.636   5.963   0.928 -0.0937 -0.7557  0.0504
10805TIP3    H153830   3.726   5.955   0.897  0.4585 -0.4090  1.4952
10805TIP3    H253831   3.586   5.904   0.872  1.1785 -1.6129 -0.2106
10806TIP3   OH253832   5.026   0.408  10.580 -0.5122 -0.0302 -0.0220
10806TIP3    H153833   5.069   0.390  10.496 -0.7850  0.7559 -0.3413
10806TIP3    H253834   4.988   0.324  10.606 -1.2950 -0.0605 -1.1939
10807TIP3   OH253835   5.913   2.660   5.075 -0.1246 -0.2281  0.2293
10807TIP3    H153836   5.941   2.608   5.000 -1.2191  1.3548 -1.3425
10807TIP3    H253837   5.844   2.607   5.116 -0.5496 -0.4694 -0.7646
10808TIP3   OH253838   2.993   0.929  13.607  0.1643 -0.3474 -0.1038
10808TIP3    H153839   2.947   0.854  13.643 -0.3392 -0.6745 -1.3789
10808TIP3    H253840   3.050   0.959  13.679  0.0765 -1.6843  0.5561
10809TIP3   OH253841   4.634   0.796   0.056 -0.3791 -0.1413 -0.1222
10809TIP3    H153842   4.599   0.793  -0.032 -0.2419  1.8575 -0.2999
10809TIP3    H253843   4.557   0.803   0.113 -0.4536 -1.1217 -0.0900
10810TIP3   OH253844   6.742   0.825  14.015  0.5150 -0.1306 -0.2350
10810TIP3    H153845   6.715   0.913  14.042 -0.8591 -0.9654  1.2688
10810TIP3    H253846   6.683   0.803  13.944  0.8082  0.0994 -0.5585
10811TIP3   OH253847   3.967   0.655  13.979 -0.0512 -0.2199  0.2776
10811TIP3    H153848   3.929   0.567  13.973  1.1889 -0.7598  0.1967
10811TIP3    H253849   3.920   0.695  14.053 -0.6039 -0.9542  0.3442
10812TIP3   OH253850   1.985   2.985   4.908  0.4110  0.4908  0.0740
10812TIP3    H153851   1.948   2.897   4.909  0.0319  0.6177 -1.1253
10812TIP3    H253852   2.067   2.977   4.958  0.6321 -0.6605 -0.4437
10813TIP3   OH253853   4.199   3.231  10.965 -0.4689 -0.5325 -0.1165
10813TIP3    H153854   4.181   3.278  11.047 -0.3674  0.7864 -0.8204
10813TIP3    H253855   4.217   3.300  10.902  0.8100 -1.5663 -0.9429
10814TIP3   OH253856   6.711   4.251  16.248 -0.0222 -0.1824  0.1157
10814TIP3    H153857   6.765   4.229  16.172 -0.1967 -0.1787 -0.0111
10814TIP3    H253858   6.622   4.231  16.220 -0.0293 -0.7589  0.5288
10815TIP3   OH253859   3.351   6.282   0.921 -0.0877  0.5090 -0.5249
10815TIP3    H153860   3.276   6.332   0.887  0.0596  2.0921  1.3255
10815TIP3    H253861   3.336   6.278   1.015  1.6738  0.0297 -0.2372
10816TIP3   OH253862   1.596   0.704  15.032 -0.2164 -0.1127 -0.0111
10816TIP3    H153863   1.566   0.793  15.013  0.1961 -0.4946 -2.9635
10816TIP3    H253864   1.585   0.657  14.949 -0.8947 -2.9898  1.5583
10817TIP3   OH253865   5.938   1.555   2.692 -0.0210  0.5348  0.1881
10817TIP3    H153866   5.957   1.592   2.606 -1.2127 -0.6768 -0.6405
10817TIP3    H253867   5.976   1.617   2.754  3.9256 -0.1816 -1.2019
10818TIP3   OH253868   2.312   6.487  12.336 -0.1611  0.1691  0.2032
10818TIP3    H153869   2.217   6.488  12.352 -0.6004 -2.6864 -1.5836
10818TIP3    H253870   2.345   6.415  12.390  0.6798 -0.0769 -0.6221
10819TIP3   OH253871   6.012   3.596   6.491  0.1615  0.0780 -0.2179
10819TIP3    H153872   6.100   3.559   6.504 -0.3770 -1.3968 -0.5492
10819TIP3    H253873   5.995   3.585   6.398 -0.5843 -0.1651 -0.0585
10820TIP3   OH253874   6.370   1.659   4.998 -0.0739 -0.1202  0.7283
10820TIP3    H153875   6.379   1.672   5.093  1.5071  0.5331  0.5273
10820TIP3    H253876   6.394   1.567   4.985 -0.8210 -0.3601  1.0132
10821TIP3   OH253877   4.367   0.713   0.057 -0.1926  0.0243  0.1290
10821TIP3    H153878   4.292   0.737   0.110 -1.2880 -2.2822 -0.2436
10821TIP3    H253879   4.340   0.730  -0.034 -1.1298 -2.6981 -0.1698
10822TIP3   OH253880   2.065   2.215  13.258 -0.1272 -0.7366  0.1320
10822TIP3    H153881   2.032   2.291  13.209  0.4867 -1.3854 -1.3681
10822TIP3    H253882   2.080   2.149  13.191  1.7802 -1.3247  1.0608
10823TIP3   OH253883   3.351   1.518  11.498  0.3030 -0.4712  0.0557
10823TIP3    H153884   3.302   1.438  11.520 -0.8514  0.0665 -0.4841
10823TIP3    H253885   3.296   1.563  11.434  0.3826  1.3403  1.1972
10824TIP3   OH253886   3.161   3.628   4.462 -0.3783 -0.0593  0.0247
10824TIP3    H153887   3.132   3.538   4.450  0.8950 -0.5169  0.1972
10824TIP3    H253888   3.257   3.623   4.463 -0.1665  1.5739 -2.3746
10825TIP3   OH253889   1.001   0.587  11.293 -0.2890  0.1450 -0.5353
10825TIP3    H153890   1.014   0.673  11.332  0.6041 -0.5971  0.8967
10825TIP3    H253891   0.906   0.576  11.289 -0.4085  1.0442 -0.4023
10826TIP3   OH253892   4.732   5.806  16.583  0.0478  0.1905  0.3853
10826TIP3    H153893   4.688   5.733  16.627  0.2650 -0.5095 -0.5028
10826TIP3    H253894   4.670   5.833  16.515 -0.1792  1.0825  0.9383
10827TIP3   OH253895   1.727   5.061  12.544 -0.1279  0.3837  0.1654
10827TIP3    H153896   1.745   5.024  12.630 -2.3156 -0.3821  0.3591
10827TIP3    H253897   1.800   5.032  12.489 -0.5255 -2.2524  0.8954
10828TIP3   OH253898   2.929   2.544   3.139 -0.5400 -0.0192  0.4958
10828TIP3    H153899   2.863   2.583   3.196  0.2592  1.3242  0.5381
10828TIP3    H253900   3.010   2.590   3.161 -0.4273  1.5801 -2.6212
10829TIP3   OH253901   3.755   4.387  17.199  0.5214  0.4680 -0.5362
10829TIP3    H153902   3.738   4.371  17.291 -1.0312 -0.9309 -1.0216
10829TIP3    H253903   3.670   4.412  17.163  1.1071  1.0254 -1.5918
10830TIP3   OH253904   5.348   4.014  15.319 -0.0734 -0.4229  0.3912
10830TIP3    H153905   5.358   4.107  15.341  3.2018 -0.6272  0.2609
10830TIP3    H253906   5.258   4.006  15.289 -0.6254  2.5981  0.9130
10831TIP3   OH253907   2.361   5.952  16.832  0.3327 -0.2768  0.2974
10831TIP3    H153908   2.331   5.897  16.904 -0.2187  0.2582  0.4869
10831TIP3    H253909   2.438   5.997  16.866  0.4706 -0.5306  0.3212
10832TIP3   OH253910   1.198   3.048   3.332  0.6757  0.4389  0.1086
10832TIP3    H153911   1.276   3.005   3.367 -0.3037 -1.3270  0.2310
10832TIP3    H253912   1.157   3.088   3.409 -0.1390 -1.2772  0.6037
10833TIP3   OH253913   1.506   1.341  13.482 -0.2683 -0.0299 -0.4301
10833TIP3    H153914   1.490   1.436  13.486  1.5491  0.3115 -0.5131
10833TIP3    H253915   1.517   1.315  13.573 -2.1282 -0.4501 -0.2943
10834TIP3   OH253916   1.726   1.741   1.508  0.0452 -0.4337 -0.3839
10834TIP3    H153917   1.727   1.683   1.432  1.9615  0.1256 -0.8362
10834TIP3    H253918   1.752   1.686   1.581 -1.6290 -0.9302 -0.1083
10835TIP3   OH253919   3.637   1.441   2.416 -0.1383 -0.0575 -0.1248
10835TIP3    H153920   3.554   1.419   2.373 -0.8591  1.7169  0.3159
10835TIP3    H253921   3.626   1.409   2.506 -0.1510 -0.2310 -0.1857
10836TIP3   OH253922   6.506   5.620  11.465  0.1610 -0.3283  0.1408
10836TIP3    H153923   6.466   5.619  11.378 -2.1613  0.1016  1.1371
10836TIP3    H253924   6.548   5.706  11.471  1.8480 -0.9999 -1.1280
10837TIP3   OH253925   5.327   3.448   3.315 -0.1660 -0.0471 -0.1124
10837TIP3    H153926   5.308   3.512   3.247  1.3548 -0.1310 -0.6435
10837TIP3    H253927   5.282   3.481   3.392 -2.1609 -0.0941 -1.1856
10838TIP3   OH253928   3.827   1.318   0.622 -0.5406  0.3581 -0.2928
10838TIP3    H153929   3.818   1.244   0.681 -1.6162  1.6800  1.3165
10838TIP3    H253930   3.738   1.333   0.588 -0.0664  0.0414 -1.7588
10839TIP3   OH253931   2.972   6.566  13.157  0.1087  0.3243 -0.2405
10839TIP3    H153932   3.050   6.535  13.204 -0.6954  0.4593  1.2429
10839TIP3    H253933   2.998   6.565  13.065  1.0771 -1.9228 -0.0113
10840TIP3   OH253934   1.267   4.274   3.244 -0.3164 -0.5395 -0.2395
10840TIP3    H153935   1.223   4.345   3.197  5.4470  2.2976 -2.2368
10840TIP3    H253936   1.261   4.300   3.336 -0.7847  0.9595 -0.6555
10841TIP3   OH253937   4.762   3.897   5.487 -0.2399 -0.3465 -0.7057
10841TIP3    H153938   4.671   3.927   5.494  0.1958  0.7272  0.8730
10841TIP3    H253939   4.763   3.816   5.537 -0.2112 -0.0612 -0.2398
10842TIP3   OH253940   6.254   5.662  13.658  0.6887 -0.2828  0.1023
10842TIP3    H153941   6.344   5.682  13.631  0.4892  0.2837 -0.1603
10842TIP3    H253942   6.263   5.586  13.716  1.1533 -1.5206 -1.5002
10843TIP3   OH253943   5.718   2.857  17.124 -0.2752 -0.1546 -0.1797
10843TIP3    H153944   5.775   2.848  17.200  0.3986  0.5674 -0.5800
10843TIP3    H253945   5.631   2.837  17.157  0.1717 -1.0528  0.4990
10844TIP3   OH253946   4.379   2.988  12.102  0.0824  0.0358 -0.5329
10844TIP3    H153947   4.376   3.065  12.045  0.9313  0.2017 -0.3600
10844TIP3    H253948   4.466   2.951  12.089 -0.2101 -0.7283 -0.3869
10845TIP3   OH253949   5.490   1.928   5.081 -0.1997 -0.3789 -0.2039
10845TIP3    H153950   5.577   1.967   5.083 -0.1112 -0.5887  1.3583
10845TIP3    H253951   5.453   1.948   5.167 -2.1977  0.7807 -1.2684
10846TIP3   OH253952   0.831   2.452   3.623  0.4607  0.7580 -0.2346
10846TIP3    H153953   0.811   2.524   3.683  0.4371 -0.1797  0.9074
10846TIP3    H253954   0.776   2.470   3.546  1.0308  2.3693 -0.3100
10847TIP3   OH253955   5.458   5.815  16.531 -0.1799  0.0471 -0.2684
10847TIP3    H153956   5.440   5.908  16.517  1.5428  0.3013 -1.1333
10847TIP3    H253957   5.517   5.814  16.607  0.5692 -0.2323 -0.8395
10848TIP3   OH253958   3.140   2.034  16.802  0.0803 -0.0003  0.0912
10848TIP3    H153959   3.094   2.110  16.767  0.8822  0.6351  0.3950
10848TIP3    H253960   3.187   1.997  16.727  1.0537  0.8152  0.2781
10849TIP3   OH253961   6.241   1.512   0.701  0.1044 -0.2455 -0.1290
10849TIP3    H153962   6.189   1.447   0.653 -2.1198  2.9886 -2.4553
10849TIP3    H253963   6.216   1.498   0.793 -0.8180 -2.2059 -0.6108
10850TIP3   OH253964   5.120   5.062  14.968  0.0998 -0.2170  0.1609
10850TIP3    H153965   5.186   5.055  14.899 -0.9012 -0.9244 -0.7577
10850TIP3    H253966   5.045   5.103  14.926  0.1036  1.0784  1.3308
10851TIP3   OH253967   1.753   3.013  13.023  0.0553 -0.2972 -0.0384
10851TIP3    H153968   1.760   2.926  13.062 -0.9686 -0.7076 -0.7250
10851TIP3    H253969   1.659   3.026  13.010  0.2883  0.2122 -1.4613
10852TIP3   OH253970   4.942   5.211  16.169  0.7776 -0.4643 -0.8348
10852TIP3    H153971   4.878   5.282  16.171  0.5795 -0.6431 -0.8607
10852TIP3    H253972   4.890   5.132  16.159  0.9198 -0.7329  0.4501
10853TIP3   OH253973   4.378   5.865  14.650 -0.4144 -0.1000 -0.2785
10853TIP3    H153974   4.313   5.885  14.717 -0.6384 -0.0283 -0.5187
10853TIP3    H253975   4.358   5.925  14.578  0.3616  0.4308 -0.0657
10854TIP3   OH253976   5.424   1.852   2.981  0.3264 -0.1924 -0.5594
10854TIP3    H153977   5.484   1.918   3.016  0.5450 -0.2974 -0.7282
10854TIP3    H253978   5.476   1.805   2.915  0.6154 -1.4247  0.5079
10855TIP3   OH253979   0.134   0.027  12.948  0.4517  0.2769  0.6502
10855TIP3    H153980   0.084  -0.033  13.003  1.8349 -1.3535  0.2537
10855TIP3    H253981   0.074   0.051  12.877 -0.2133 -0.4794  0.9438
10856TIP3   OH253982   5.530   1.460   0.129  0.1991  0.7013  0.3545
10856TIP3    H153983   5.493   1.420   0.050  0.1535  1.6652 -0.1280
10856TIP3    H253984   5.550   1.550   0.103  1.4518  0.6533  1.0543
10857TIP3   OH253985   4.218   1.771   0.878  0.1693 -0.0032  0.3587
10857TIP3    H153986   4.292   1.716   0.852  1.3305  1.8390 -0.3673
10857TIP3    H253987   4.218   1.843   0.815 -2.8474 -0.4016 -0.2691
10858TIP3   OH253988   0.838   6.658  12.435  0.5555  0.0430 -0.3603
10858TIP3    H153989   0.869   6.610  12.358  3.1377  0.4852  0.2856
10858TIP3    H253990   0.892   6.737  12.437 -0.7260  0.9265  0.8978
10859TIP3   OH253991   0.335   2.398  13.526 -0.2840  0.3362 -0.1757
10859TIP3    H153992   0.419   2.426  13.562  0.2972 -0.1607 -1.1012
10859TIP3    H253993   0.307   2.326  13.583  0.3452 -0.0696 -0.3712
10860TIP3   OH253994   5.183   1.054   0.589 -0.0620 -0.4615 -0.0588
10860TIP3    H153995   5.181   1.091   0.501  0.8883 -1.1645 -0.3947
10860TIP3    H253996   5.170   0.960   0.576 -1.4672 -0.3928  0.6956
10861TIP3   OH253997   0.032   3.347  15.442  0.1993 -0.1326  0.3151
10861TIP3    H153998  -0.040   3.365  15.381  1.6893  1.2197 -1.1421
10861TIP3    H253999   0.065   3.261  15.415  1.6199  0.9582 -1.7023
10862TIP3   OH254000   4.455   3.535  11.761  0.1097 -0.6633  0.0147
10862TIP3    H154001   4.429   3.562  11.673  1.1776  0.8161  0.1156
10862TIP3    H254002   4.477   3.442  11.752 -0.4443 -0.7032 -1.1248
10863TIP3   OH254003   0.746   5.512   5.066  0.4746  0.4615 -0.1167
10863TIP3    H154004   0.816   5.577   5.062  0.6352  0.3416  0.5322
10863TIP3    H254005   0.681   5.552   5.125  0.2424  0.3396 -0.2885
10864TIP3   OH254006   0.669   3.568   3.516  0.4339  0.2989  0.0257
10864TIP3    H154007   0.702   3.494   3.566 -2.0140 -0.5213  0.5842
10864TIP3    H254008   0.587   3.593   3.560  0.1745  2.0730 -1.3058
10865TIP3   OH254009   1.699   2.972   1.812 -0.1824 -0.0210  0.1986
10865TIP3    H154010   1.610   2.997   1.837  0.7143  2.1732  1.4294
10865TIP3    H254011   1.719   3.027   1.737  0.5661  0.4595  0.7318
10866TIP3   OH254012   4.394   3.101  15.472 -0.4194  0.1386 -0.6054
10866TIP3    H154013   4.402   3.144  15.386  1.6099  1.3144  0.0952
10866TIP3    H254014   4.357   3.168  15.529 -1.8035 -0.6542 -0.5259
10867TIP3   OH254015   6.646   4.828   2.586 -0.0581  0.3386  0.3972
10867TIP3    H154016   6.726   4.809   2.537 -0.0054  0.8396  0.2882
10867TIP3    H254017   6.624   4.744   2.628  0.5837  0.2230  0.5205
10868TIP3   OH254018   3.356   4.426   2.564  0.0346 -0.0660  0.1674
10868TIP3    H154019   3.409   4.434   2.643  0.5491  1.9786 -0.3161
10868TIP3    H254020   3.309   4.509   2.558 -1.2712 -0.8322 -0.8016
10869TIP3   OH254021   0.289   6.090   4.355 -0.2972 -0.2286  0.3731
10869TIP3    H154022   0.367   6.055   4.400  1.2965  0.1157 -1.9672
10869TIP3    H254023   0.278   6.177   4.392  1.2369  0.2110 -0.1007
10870TIP3   OH254024   6.677   1.354  13.488  0.4264 -0.1985 -0.3434
10870TIP3    H154025   6.764   1.385  13.511  0.2186 -0.0328  0.2658
10870TIP3    H254026   6.628   1.434  13.468  1.1027 -0.4401 -3.3227
10871TIP3   OH254027   1.360   4.436  15.159 -0.4519 -0.0615 -0.3100
10871TIP3    H154028   1.440   4.484  15.136  0.8511 -1.4214  1.0750
10871TIP3    H254029   1.313   4.495  15.218  1.6666 -0.7397  2.2688
10872TIP3   OH254030   6.077   4.844  17.215 -0.4138 -0.0189  0.0758
10872TIP3    H154031   6.062   4.820  17.306  0.9263  0.6258  0.4929
10872TIP3    H254032   6.068   4.762  17.166 -1.8291 -0.2521  0.6691
10873TIP3   OH254033   6.348   2.934  17.200 -0.4552 -0.3170 -0.6718
10873TIP3    H154034   6.388   2.854  17.164  0.7933  0.1237 -0.3299
10873TIP3    H254035   6.311   2.906  17.284 -0.8276 -0.7231 -0.9640
10874TIP3   OH254036   1.790   5.843   3.993  0.3054 -0.0494 -0.3238
10874TIP3    H154037   1.795   5.752   3.964  0.2937  0.3294 -1.5993
10874TIP3    H254038   1.706   5.849   4.039  0.2505 -0.6633 -0.3408
10875TIP3   OH254039   5.802   3.618  14.482  0.3714  0.7744 -0.1462
10875TIP3    H154040   5.834   3.587  14.567  0.1796  0.8788 -0.0347
10875TIP3    H254041   5.855   3.696  14.463  0.8061  0.4181 -0.3939
10876TIP3   OH254042   2.985   1.451   1.354  0.0251  0.0196  0.0444
10876TIP3    H154043   3.025   1.507   1.287 -0.7042 -0.6309 -0.9764
10876TIP3    H254044   3.052   1.384   1.372  0.2230  0.1903 -0.0486
10877TIP3   OH254045   1.081   0.958  15.073 -0.2541 -0.0382 -0.3749
10877TIP3    H154046   1.139   0.882  15.075 -0.6932 -0.3572  0.5332
10877TIP3    H254047   0.994   0.923  15.090 -0.4226  0.6918  0.3128
10878TIP3   OH254048   6.120   5.989   0.108 -0.3442 -0.3566  0.8768
10878TIP3    H154049   6.134   6.013   0.200  1.3223  0.7728  0.3724
10878TIP3    H254050   6.197   5.938   0.085 -1.1712 -1.3993  0.3034
10879TIP3   OH254051   4.182   5.632  16.208 -0.2616  0.1503 -0.9213
10879TIP3    H154052   4.157   5.725  16.202 -0.6286  0.0069 -1.9784
10879TIP3    H254053   4.272   5.633  16.239  0.0937  0.9194 -1.9122
10880TIP3   OH254054   0.108   2.617   2.004 -0.1570  0.3978 -0.1842
10880TIP3    H154055   0.045   2.682   2.035  1.5351  1.9735  0.1469
10880TIP3    H254056   0.183   2.626   2.063  1.2716  0.1776 -1.8770
10881TIP3   OH254057   3.926   1.834   1.512 -0.0772 -0.4667 -0.2267
10881TIP3    H154058   3.873   1.797   1.583 -0.8040  1.5291  0.3551
10881TIP3    H254059   3.980   1.762   1.482 -2.7387 -2.5214 -0.4844
10882TIP3   OH254060   4.501   5.802  15.019  0.0499 -0.3425 -0.2112
10882TIP3    H154061   4.517   5.835  15.107 -2.4828 -1.1286  0.6178
10882TIP3    H254062   4.435   5.733  15.031 -0.4862 -0.3547 -2.7375
10883TIP3   OH254063   4.694   6.640  11.708  0.3831  0.2545  0.3290
10883TIP3    H154064   4.770   6.685  11.670 -0.9694  1.4491 -1.1289
10883TIP3    H254065   4.629   6.710  11.719 -1.3246 -1.0935 -0.7159
10884TIP3   OH254066   3.648   0.543  12.250 -0.4949 -0.1548  0.0350
10884TIP3    H154067   3.712   0.476  12.224 -0.4663 -0.6675  1.3300
10884TIP3    H254068   3.599   0.502  12.321 -0.0371  1.4343  1.3200
10885TIP3   OH254069   4.120   3.098  16.017 -0.0408  0.6456  0.0764
10885TIP3    H154070   4.129   3.004  16.002 -1.7336  0.4167  0.3534
10885TIP3    H254071   4.026   3.115  16.014  0.1120  2.0621  1.5674
10886TIP3   OH254072   5.477   5.849   3.064  0.7913 -0.0955  0.3916
10886TIP3    H154073   5.401   5.877   3.115  0.0869  0.1182 -0.7174
10886TIP3    H254074   5.552   5.863   3.121  0.1250  1.0048  1.0259
10887TIP3   OH254075   6.665   2.222   0.593  0.5567  0.2473  0.0876
10887TIP3    H154076   6.681   2.315   0.606  0.3919  0.2506  0.2873
10887TIP3    H254077   6.635   2.215   0.502  0.2387  0.4345  0.1770
10888TIP3   OH254078   3.574   6.570  15.525 -0.3605 -0.0489  0.5484
10888TIP3    H154079   3.651   6.617  15.558 -1.1177  1.8015 -0.1875
10888TIP3    H254080   3.542   6.520  15.600  1.9330 -1.4563  0.6908
10889TIP3   OH254081   6.412   2.686  13.764 -0.4883 -0.2397  0.5739
10889TIP3    H154082   6.380   2.617  13.705 -0.4221 -0.2715  0.5747
10889TIP3    H254083   6.369   2.668  13.847  0.9309 -1.4013  1.1089
10890TIP3   OH254084   6.540   4.609  15.315  0.4748 -0.0206 -0.1616
10890TIP3    H154085   6.515   4.517  15.321  2.7900 -0.9210 -2.2236
10890TIP3    H254086   6.636   4.607  15.321  0.6168  2.1732 -0.9509
10891TIP3   OH254087   3.834   5.625   5.091 -0.2172 -0.3798  0.4933
10891TIP3    H154088   3.856   5.532   5.095  0.2629 -0.2445  1.3879
10891TIP3    H254089   3.821   5.650   5.183  1.2700  0.7909  0.4260
10892TIP3   OH254090   4.928   4.571   4.562 -0.0403  0.5102  0.5817
10892TIP3    H154091   4.957   4.480   4.553 -1.4064  0.0945  0.1879
10892TIP3    H254092   4.913   4.582   4.656 -1.5770 -0.2318  0.4397
10893TIP3   OH254093   4.415   4.537   4.009  0.5392 -0.3935  0.3781
10893TIP3    H154094   4.331   4.572   4.039  0.7056 -0.3227  0.7612
10893TIP3    H254095   4.412   4.445   4.035  0.9825 -0.1660  1.2660
10894TIP3   OH254096   2.957   5.686   3.724 -0.0128 -0.4213  0.2075
10894TIP3    H154097   3.052   5.700   3.731  0.5100 -2.9571 -0.5366
10894TIP3    H254098   2.927   5.752   3.663  1.4984 -0.2752 -0.4213
10895TIP3   OH254099   1.620   0.875   4.453  0.0907  0.3853 -0.1954
10895TIP3    H154100   1.547   0.819   4.481  0.3762 -0.0534 -0.3098
10895TIP3    H254101   1.594   0.908   4.367 -0.9942  2.1088  0.7368
10896TIP3   OH254102   3.563   4.019  16.855 -0.0084 -0.2807 -0.5695
10896TIP3    H154103   3.592   4.062  16.774  1.2261  2.5205  1.1643
10896TIP3    H254104   3.645   3.991  16.897 -0.6113 -1.5038 -0.1731
10897TIP3   OH254105   3.298   1.078   3.040  0.9061 -0.2091 -0.3195
10897TIP3    H154106   3.321   0.997   3.086  0.7930 -0.8010 -1.2807
10897TIP3    H254107   3.205   1.091   3.058  1.1472  0.2666  0.6580
10898TIP3   OH254108   1.400   0.120   5.272 -0.0695  0.1321 -0.0648
10898TIP3    H154109   1.357   0.136   5.188  0.0726 -0.0567 -0.1745
10898TIP3    H254110   1.445   0.036   5.260  0.3540  0.3435  0.0400
10899TIP3   OH254111   6.604   1.185   2.502  0.0914 -0.2540 -0.3602
10899TIP3    H154112   6.608   1.092   2.479 -1.6119 -0.3215 -0.4968
10899TIP3    H254113   6.515   1.212   2.479 -0.1519  0.8699  1.6575
10900TIP3   OH254114   1.234   3.564   2.161  0.4559  0.5354 -0.0893
10900TIP3    H154115   1.262   3.474   2.178 -1.2586  0.0125  0.1136
10900TIP3    H254116   1.223   3.568   2.066 -2.3810 -0.4442  0.1041
10901TIP3   OH254117   1.089   5.138  16.725 -0.0644 -0.0839  0.6942
10901TIP3    H154118   1.091   5.042  16.721  0.7491 -0.0210 -1.1206
10901TIP3    H254119   1.157   5.166  16.664 -3.7415  1.6716 -3.0898
10902TIP3   OH254120   5.875   5.620   4.094 -0.2456  0.4706  0.2106
10902TIP3    H154121   5.956   5.570   4.103  0.8478  2.1252  0.1151
10902TIP3    H254122   5.807   5.554   4.086  1.2217 -1.0065 -0.9960
10903TIP3   OH254123   0.881   5.187   2.811 -0.1061 -0.1181  0.3758
10903TIP3    H154124   0.828   5.145   2.878  0.1660 -0.9264  0.0933
10903TIP3    H254125   0.955   5.225   2.859 -0.2157 -0.1850  0.5982
10904TIP3   OH254126   5.709   0.104  16.928 -0.7827  0.8783  0.6640
10904TIP3    H154127   5.781   0.119  16.989 -0.7176  0.5229  0.6766
10904TIP3    H254128   5.670   0.191  16.916  0.4352  1.3356 -0.3351
10905TIP3   OH254129   2.552   4.502  11.870  0.2937  0.2647 -0.1321
10905TIP3    H154130   2.558   4.407  11.860 -1.5487  0.0400  0.4757
10905TIP3    H254131   2.466   4.516  11.910 -0.0742  2.2850 -1.4821
10906TIP3   OH254132   0.136   5.229  12.143 -0.1242 -0.1099 -0.4258
10906TIP3    H154133   0.130   5.281  12.224 -2.0448 -1.9198  0.6873
10906TIP3    H254134   0.125   5.139  12.172  0.5642 -0.9453 -2.5910
10907TIP3   OH254135   5.615   5.677   4.482 -0.2120  0.5494  0.5019
10907TIP3    H154136   5.542   5.622   4.455  0.1379  0.4633 -0.2980
10907TIP3    H254137   5.590   5.766   4.456 -0.4046  0.6488  1.0161
10908TIP3   OH254138   3.551   1.523   3.195  0.2205 -0.1239  0.2295
10908TIP3    H154139   3.595   1.607   3.203 -2.3833  1.4519 -0.5838
10908TIP3    H254140   3.538   1.494   3.286  2.2129 -0.3462  0.4916
10909TIP3   OH254141   1.085   2.522   1.790 -0.2163  0.4717 -0.2742
10909TIP3    H154142   1.043   2.488   1.711 -1.7096 -0.5712  0.9078
10909TIP3    H254143   1.015   2.526   1.855  1.3857 -0.8749  1.6618
10910TIP3   OH254144   0.548   3.466  11.150  0.6909  0.0205 -0.1127
10910TIP3    H154145   0.548   3.561  11.140  1.4941 -0.0701 -1.1333
10910TIP3    H254146   0.575   3.453  11.241 -1.5503  0.7809  0.7105
10911TIP3   OH254147   2.628   3.232  12.715  0.1755  0.1340  0.3735
10911TIP3    H154148   2.710   3.234  12.764  0.0518  0.4914  0.5676
10911TIP3    H254149   2.580   3.158  12.752 -0.4163  1.1022  1.6099
10912TIP3   OH254150   6.462   6.512  15.829  0.3119 -0.7236  0.4951
10912TIP3    H154151   6.541   6.470  15.796  1.2401  0.0658  1.6134
10912TIP3    H254152   6.390   6.464  15.789  1.3294 -0.2088 -2.1689
10913TIP3   OH254153   0.077   5.882   0.635 -0.3864 -0.2902  0.1474
10913TIP3    H154154   0.001   5.925   0.595  0.9938  1.9162 -0.2911
10913TIP3    H254155   0.104   5.816   0.571 -2.0450 -1.2913  0.4306
10914TIP3   OH254156   5.349   4.661   5.875 -0.1416  0.0983  0.3261
10914TIP3    H154157   5.339   4.647   5.969 -1.1139  1.4820  0.4621
10914TIP3    H254158   5.277   4.720   5.851  0.8894  0.9017 -1.0179
10915TIP3   OH254159   5.277   2.972   1.998 -0.1766  0.0114 -0.4032
10915TIP3    H154160   5.259   3.035   1.928 -1.6755 -0.0497 -0.1149
10915TIP3    H254161   5.371   2.980   2.015 -0.3006  2.0128 -0.5165
10916TIP3   OH254162   6.553   6.063   4.005 -0.0947  0.1876  0.2661
10916TIP3    H154163   6.532   6.069   4.098  1.5577  1.0956  0.6288
10916TIP3    H254164   6.468   6.065   3.961 -0.8623  1.2703  1.6914
10917TIP3   OH254165   6.540   1.203   5.504  0.0417  0.2051 -0.2230
10917TIP3    H154166   6.570   1.217   5.594  0.3336  0.9760 -0.4318
10917TIP3    H254167   6.612   1.232   5.449 -0.1374 -0.2488 -0.7159
10918TIP3   OH254168   1.557   1.108  12.809 -0.4538  0.6645  0.3897
10918TIP3    H154169   1.544   1.179  12.872  1.2374  0.6700  0.7742
10918TIP3    H254170   1.635   1.134  12.759 -1.5862  0.5196 -1.5429
10919TIP3   OH254171   4.824   1.938  12.375  0.2931  0.0062 -0.1671
10919TIP3    H154172   4.910   1.897  12.368  0.8119  0.9691  0.2297
10919TIP3    H254173   4.843   2.030  12.394 -0.8179  0.4466 -1.0441
10920TIP3   OH254174   1.974   2.452   6.110  0.2989  0.3732  0.5091
10920TIP3    H154175   1.925   2.369   6.114  0.7196  0.0265 -1.0838
10920TIP3    H254176   1.947   2.492   6.028  0.7193  1.4511  0.8784
10921TIP3   OH254177   4.471   3.942  12.828  0.2223 -0.1593 -0.3009
10921TIP3    H154178   4.379   3.921  12.813  0.2020 -0.5010  0.3034
10921TIP3    H254179   4.502   3.976  12.743 -0.5338  0.2503 -0.4159
10922TIP3   OH254180   4.168   0.695  10.344  0.4141  0.1955 -0.4938
10922TIP3    H154181   4.209   0.742  10.271  0.3002 -1.0138 -1.3537
10922TIP3    H254182   4.118   0.763  10.390  0.4814  0.9816 -1.5325
10923TIP3   OH254183   5.983   5.573   4.503  0.4616 -0.0905  0.4802
10923TIP3    H154184   5.970   5.653   4.452  1.7029  0.4269  0.9475
10923TIP3    H254185   6.061   5.533   4.464 -1.6947 -2.6385 -1.6653
10924TIP3   OH254186   4.893   4.589  15.250 -0.2402  0.7300 -0.5145
10924TIP3    H154187   4.825   4.647  15.284 -0.0910  0.3744  0.4342
10924TIP3    H254188   4.940   4.560  15.328 -0.1166 -0.4147 -0.9954
10925TIP3   OH254189   2.155   2.353   2.008  0.2855  0.1633 -0.7260
10925TIP3    H154190   2.210   2.330   1.933 -0.1025  0.8523 -1.2335
10925TIP3    H254191   2.217   2.373   2.078  0.6787  0.7237 -1.2296
10926TIP3   OH254192   1.159   5.351  16.334 -0.1001  0.1869  0.2840
10926TIP3    H154193   1.073   5.366  16.296 -0.0120 -0.5398 -0.2340
10926TIP3    H254194   1.198   5.438  16.341 -0.9552  0.5390  0.7273
10927TIP3   OH254195   1.564   0.559  11.174  0.1386  0.1839  0.8344
10927TIP3    H154196   1.645   0.595  11.137  0.6862  0.7837  2.5223
10927TIP3    H254197   1.587   0.539  11.265 -1.8434  1.1550  1.5943
10928TIP3   OH254198   4.233   2.568   5.644  0.5539 -0.0309  0.3866
10928TIP3    H154199   4.313   2.519   5.666  1.9239  1.4865 -0.9031
10928TIP3    H254200   4.198   2.596   5.729  1.7725 -0.1792  0.9660
10929TIP3   OH254201   4.513   5.496  17.061  0.1745  0.1312 -0.1446
10929TIP3    H154202   4.533   5.590  17.058 -1.8891  0.6030 -1.9181
10929TIP3    H254203   4.585   5.454  17.015 -1.0078  1.4051 -3.4674
10930TIP3   OH254204   2.907   0.714  13.783  0.2726  0.1718 -0.0370
10930TIP3    H154205   2.904   0.621  13.806 -1.1419  0.0272 -0.7309
10930TIP3    H254206   2.917   0.759  13.867  1.1175 -0.5938  0.2927
10931TIP3   OH254207   4.513   4.935   6.223 -0.0931  0.0376 -0.4043
10931TIP3    H154208   4.571   4.952   6.297 -0.1834  0.4382 -0.4234
10931TIP3    H254209   4.514   4.840   6.213  0.3249  0.0221 -0.2176
10932TIP3   OH254210   0.116   0.856  13.061  0.1771 -0.1990  0.2381
10932TIP3    H154211   0.106   0.792  13.131  0.5103  0.0696  0.5325
10932TIP3    H254212   0.191   0.824  13.010  0.5026  0.0859  0.5313
10933TIP3   OH254213   0.491   2.887  13.023 -0.0478 -0.5274  0.5117
10933TIP3    H154214   0.552   2.883  12.949 -0.5222 -1.0545  0.1414
10933TIP3    H254215   0.500   2.802  13.066  0.0657 -0.3036  0.9426
10934TIP3   OH254216   1.036   0.480   1.732 -0.0603 -0.4680  0.1920
10934TIP3    H154217   1.026   0.448   1.642  0.4879  1.9342 -0.7971
10934TIP3    H254218   1.128   0.505   1.739 -0.8874  3.1646 -0.0300
10935TIP3   OH254219   3.201   0.016  15.030  0.5124  0.2670  0.7094
10935TIP3    H154220   3.263   0.049  14.965 -0.0799  1.2579  0.6260
10935TIP3    H254221   3.170   0.094  15.076 -0.6684 -0.2009  0.7536
10936TIP3   OH254222   1.632   2.398   4.330  0.3842  0.0168  0.3116
10936TIP3    H154223   1.721   2.405   4.297 -0.1686  2.1357 -0.9297
10936TIP3    H254224   1.577   2.415   4.254 -1.1565 -2.2437  0.8327
10937TIP3   OH254225   5.513   2.832   5.839  0.2232 -0.4792 -0.1552
10937TIP3    H154226   5.569   2.879   5.776  1.1956 -0.1817  0.9019
10937TIP3    H254227   5.441   2.893   5.856  1.0306  0.3038  0.5597
10938TIP3   OH254228   4.049   6.018   4.519 -0.0200 -0.3776 -0.1688
10938TIP3    H154229   4.062   6.068   4.600 -1.2177 -2.8006  1.6624
10938TIP3    H254230   4.131   6.028   4.471  0.5710  1.4918  1.1154
10939TIP3   OH254231   2.772   2.541   4.310  0.1078  0.3456 -0.0135
10939TIP3    H154232   2.856   2.503   4.336 -1.1050 -1.6335  1.2719
10939TIP3    H254233   2.764   2.620   4.364  0.2689 -0.5439  1.3535
10940TIP3   OH254234   6.327   3.437   2.026  0.3216 -0.1209  0.1565
10940TIP3    H154235   6.368   3.514   2.065  2.7330 -1.4107  0.3415
10940TIP3    H254236   6.254   3.473   1.975  0.4218  2.1160  1.4239
10941TIP3   OH254237   0.550   0.947  11.180  0.0750  0.1352  0.1764
10941TIP3    H154238   0.581   0.885  11.114  0.6217  0.1466  0.4128
10941TIP3    H254239   0.458   0.924  11.193 -0.5632  1.2944 -1.8899
10942TIP3   OH254240   6.651   5.324  14.145 -0.0249  0.3774  0.9322
10942TIP3    H154241   6.621   5.240  14.177  0.4459  0.0383  0.5072
10942TIP3    H254242   6.586   5.351  14.081  0.8114 -0.6070 -0.3821
10943TIP3   OH254243   5.413   0.655   3.577  0.3166  0.2871  0.1490
10943TIP3    H154244   5.368   0.575   3.551 -1.4884  1.6951 -1.2448
10943TIP3    H254245   5.409   0.712   3.500 -0.1207  2.4287  1.6646
10944TIP3   OH254246   3.193   0.472  12.751  0.0320 -0.1290  0.1920
10944TIP3    H154247   3.244   0.536  12.801 -0.2134  1.4819 -1.5025
10944TIP3    H254248   3.235   0.388  12.769  0.8515  0.5989  1.8903
10945TIP3   OH254249   6.652   6.384   2.986  0.4543  0.5211  0.0682
10945TIP3    H154250   6.642   6.472   3.022  2.0062  0.9669 -0.5069
10945TIP3    H254251   6.576   6.335   3.020  0.1782  1.7559  1.3171
10946TIP3   OH254252   6.074   0.447  15.516  0.5754 -0.6674 -0.5835
10946TIP3    H154253   6.114   0.429  15.431  0.2512 -0.8930 -0.6919
10946TIP3    H254254   6.028   0.366  15.538  0.7513 -0.6498 -0.1390
10947TIP3   OH254255   5.482   3.029   6.052  0.2018 -0.1307 -0.1356
10947TIP3    H154256   5.461   3.041   6.145 -1.1569 -0.0628 -0.4361
10947TIP3    H254257   5.563   3.079   6.039  1.3274 -1.4398  1.3552
10948TIP3   OH254258   5.344   1.606   4.276 -0.2828 -0.4422  0.0197
10948TIP3    H154259   5.292   1.557   4.339  0.1977 -1.6301 -0.4820
10948TIP3    H254260   5.428   1.621   4.320 -0.2275 -0.5765 -0.0395
10949TIP3   OH254261   2.102   6.247  16.584 -0.5913  0.2103  0.3923
10949TIP3    H154262   2.118   6.329  16.631 -2.8558  1.3133 -0.6248
10949TIP3    H254263   2.013   6.255  16.551 -1.5078 -3.3527  1.5582
10950TIP3   OH254264   5.745   4.743   5.899 -0.4672 -0.0467  0.6993
10950TIP3    H154265   5.823   4.783   5.861 -1.8388  2.0837 -0.0715
10950TIP3    H254266   5.763   4.739   5.993 -0.5197  3.3600  0.9857
10951TIP3   OH254267   3.723   5.986  15.444  0.1577 -0.3429 -0.1684
10951TIP3    H154268   3.715   5.925  15.517 -0.6026 -0.0111  0.0344
10951TIP3    H254269   3.673   5.945  15.373 -1.3931  0.5845  0.3398
10952TIP3   OH254270   2.122   2.792  15.041  0.3129 -0.0703 -0.4961
10952TIP3    H154271   2.181   2.808  15.114  0.8870 -1.2854 -0.6681
10952TIP3    H254272   2.043   2.841  15.063  1.2823  1.4138 -0.1588
10953TIP3   OH254273   5.598   6.774   2.406 -0.2726  0.1574 -0.0730
10953TIP3    H154274   5.663   6.706   2.389  0.4847  0.9474 -0.4312
10953TIP3    H254275   5.643   6.855   2.382 -1.0477  0.8091  0.6570
10954TIP3   OH254276   3.490   0.432  12.446  0.6599  0.4515  0.0374
10954TIP3    H154277   3.461   0.349  12.485 -0.0770 -0.7807 -2.8256
10954TIP3    H254278   3.409   0.478  12.425  1.0658  1.9299  1.5089
10955TIP3   OH254279   5.810   6.130  13.894  0.1253 -0.6648 -0.0372
10955TIP3    H154280   5.784   6.068  13.826  0.3164  1.1301 -1.8618
10955TIP3    H254281   5.733   6.140  13.949 -1.1552  0.1512 -1.8746
10956TIP3   OH254282   2.657   3.322  13.073  0.0066  0.3697  0.1924
10956TIP3    H154283   2.586   3.270  13.110 -0.9311  0.7958 -0.9470
10956TIP3    H254284   2.689   3.270  13.000  1.8832 -0.4949  1.5474
10957TIP3   OH254285   3.298   6.279   5.160 -0.2931  0.0698  0.7684
10957TIP3    H154286   3.203   6.274   5.163 -0.2749  0.1296  1.7487
10957TIP3    H254287   3.317   6.373   5.162 -0.2281  0.0923 -0.3897
10958TIP3   OH254288   5.016   6.268   4.228 -0.6073  0.2332 -0.4151
10958TIP3    H154289   5.066   6.220   4.162 -0.2019  1.6367 -1.1668
10958TIP3    H254290   5.068   6.347   4.245 -1.5327  0.6967  0.3565
10959TIP3   OH254291   6.345   5.017  14.141 -0.0983  0.5200  0.3954
10959TIP3    H154292   6.345   5.013  14.046  1.0606  2.2558  0.2860
10959TIP3    H254293   6.266   4.969  14.167 -1.0804  1.0232 -1.4803
10960TIP3   OH254294   5.345   1.237  11.163  0.3785 -0.6668 -0.4093
10960TIP3    H154295   5.309   1.220  11.076  0.4796 -0.5667 -0.4716
10960TIP3    H254296   5.313   1.325  11.185 -0.4578 -1.0857  0.0724
10961TIP3   OH254297   1.400   6.668   1.221 -0.9355  0.3395  0.7559
10961TIP3    H154298   1.477   6.613   1.206 -0.9163  0.5653 -0.0068
10961TIP3    H254299   1.395   6.676   1.316 -0.1760  0.0982  0.8237
10962TIP3   OH254300   2.264   4.872  14.373 -0.0783  0.0378  0.1862
10962TIP3    H154301   2.325   4.945  14.367 -1.4872  1.1905 -0.9130
10962TIP3    H254302   2.264   4.848  14.466 -0.1905  1.9943  0.7276
10963TIP3   OH254303   1.960   5.461   0.384  0.3053  0.2165  0.0936
10963TIP3    H154304   1.868   5.433   0.382  0.0288  1.0919  0.0137
10963TIP3    H254305   2.010   5.380   0.397 -0.3815 -0.4550 -1.3018
10964TIP3   OH254306   5.855   4.874   4.624 -0.5726  0.3203 -0.0008
10964TIP3    H154307   5.784   4.914   4.574 -1.8930 -1.2465  0.5354
10964TIP3    H254308   5.815   4.846   4.706  0.5997 -0.7765  0.2405
10965TIP3   OH254309   3.765   3.470  14.870 -0.1450  0.6382  0.4576
10965TIP3    H154310   3.782   3.377  14.856 -1.8118  0.2929  0.5392
10965TIP3    H254311   3.764   3.507  14.782  0.0854  0.5051  0.3962
10966TIP3   OH254312   3.521   2.066   4.121 -0.3016  0.1079  0.2103
10966TIP3    H154313   3.437   2.058   4.074  0.2999 -1.5454 -0.6681
10966TIP3    H254314   3.535   1.979   4.159  0.8199  0.4849  0.6900
10967TIP3   OH254315   6.238   2.388   1.451  0.4361 -0.1490  0.4396
10967TIP3    H154316   6.310   2.328   1.470  1.7875  1.0150 -0.6970
10967TIP3    H254317   6.166   2.358   1.506  2.1292 -0.7143  2.4978
10968TIP3   OH254318   4.306   1.996   4.955 -0.5101 -0.0004  0.6432
10968TIP3    H154319   4.315   1.976   4.862 -1.0013  0.5559  0.4685
10968TIP3    H254320   4.389   1.969   4.994 -0.5824 -0.9460  0.1711
10969TIP3   OH254321   1.066   1.316  14.601 -0.5000 -0.2213 -0.1081
10969TIP3    H154322   1.049   1.321  14.695 -1.0687 -0.2224 -0.2089
10969TIP3    H254323   1.024   1.235  14.574 -0.1435 -0.3358 -0.3287
10970TIP3   OH254324   1.289   6.475  14.251 -0.0472 -0.2286  0.1528
10970TIP3    H154325   1.234   6.506  14.179  0.0726  2.1491  0.9792
10970TIP3    H254326   1.241   6.402  14.289 -0.8128 -0.5737 -1.4107
10971TIP3   OH254327   2.132   2.698  14.447 -0.4116  0.4865  0.5934
10971TIP3    H154328   2.198   2.647  14.400 -0.4013  0.2548  0.8583
10971TIP3    H254329   2.079   2.633  14.493  0.5659  0.7722  2.2163
10972TIP3   OH254330   4.518   0.658  16.709 -0.3199  0.1679  0.3874
10972TIP3    H154331   4.504   0.571  16.748 -0.0182  0.0815  0.3049
10972TIP3    H254332   4.462   0.716  16.760  0.7023  0.1995  1.5165
10973TIP3   OH254333   0.669   5.429  16.639  0.2481  0.3485 -0.1842
10973TIP3    H154334   0.579   5.443  16.612  0.4676  1.4076 -0.4196
10973TIP3    H254335   0.663   5.394  16.728 -0.3873  0.7290 -0.0756
10974TIP3   OH254336   2.657   6.457   6.185 -0.2265  0.0232  0.2050
10974TIP3    H154337   2.613   6.396   6.126 -0.5123 -0.3939  0.8251
10974TIP3    H254338   2.646   6.417   6.272  0.2017  0.6045  0.5342
10975TIP3   OH254339   1.392   0.005  13.749  0.0818  0.4479 -0.6323
10975TIP3    H154340   1.343   0.059  13.810 -1.6242  0.8596 -2.2708
10975TIP3    H254341   1.398   0.058  13.669  0.4659 -0.8393 -1.4921
10976TIP3   OH254342   1.639   0.328   1.397  0.0472 -0.4967 -0.1699
10976TIP3    H154343   1.717   0.380   1.420  1.3244 -1.9431 -1.0279
10976TIP3    H254344   1.608   0.366   1.315  0.0718 -0.1584 -0.0248
10977TIP3   OH254345   1.399   1.451  11.836  0.5850  0.0021  0.4031
10977TIP3    H154346   1.408   1.376  11.895  0.4210 -1.3816 -1.2698
10977TIP3    H254347   1.310   1.444  11.802  0.6169  0.8948  0.1191
10978TIP3   OH254348   5.059   3.383   4.671  0.3805  0.4159  0.5381
10978TIP3    H154349   5.128   3.441   4.640 -1.5822  2.6178 -0.0162
10978TIP3    H254350   4.990   3.442   4.702 -1.3491 -1.6508  0.8926
10979TIP3   OH254351   1.729   0.389   0.236 -0.6160 -0.5185 -0.1389
10979TIP3    H154352   1.822   0.380   0.216 -0.9544 -1.1188 -1.5558
10979TIP3    H254353   1.714   0.328   0.308  0.0528 -0.5278  0.0015
10980TIP3   OH254354   0.625   5.214   3.774 -1.0089 -0.9301 -0.0049
10980TIP3    H154355   0.573   5.240   3.698 -1.5812  0.8157  0.9226
10980TIP3    H254356   0.568   5.232   3.849  0.2813 -0.6877  0.9514
10981TIP3   OH254357   5.513   0.295  11.164  0.5854 -0.0626  0.6992
10981TIP3    H154358   5.507   0.266  11.256  0.0216  1.5162  1.1920
10981TIP3    H254359   5.570   0.372  11.167 -0.3561  0.6847 -0.0998
10982TIP3   OH254360   4.084   1.363   0.257 -0.0189  0.7221 -0.0736
10982TIP3    H154361   4.030   1.441   0.244 -0.0409  1.0205  1.5748
10982TIP3    H254362   4.124   1.375   0.343  1.5951 -0.1487 -0.6449
10983TIP3   OH254363   4.268   4.097   5.809  0.0990  0.9012 -0.3688
10983TIP3    H154364   4.249   4.039   5.736 -0.8849  2.6531 -1.5790
10983TIP3    H254365   4.187   4.099   5.860  0.6060  0.1140  0.5083
10984TIP3   OH254366   2.757   3.954  17.132 -0.6149 -0.0829 -0.4424
10984TIP3    H154367   2.678   3.948  17.079 -1.7233 -0.6514  1.2160
10984TIP3    H254368   2.735   4.016  17.202  0.9569  0.9933 -0.8204
10985TIP3   OH254369   3.541   3.177   6.994  0.1271  0.1630  0.2308
10985TIP3    H154370   3.542   3.082   6.984 -1.6489  0.3339 -2.9167
10985TIP3    H254371   3.628   3.199   7.027  0.3789 -2.5535  1.6343
10986TIP3   OH254372   0.133   3.316  15.097  0.3250 -0.3869 -0.0026
10986TIP3    H154373   0.076   3.254  15.142  0.7119 -0.4617  0.3861
10986TIP3    H254374   0.083   3.398  15.097 -1.0683 -1.1468 -2.3001
10987TIP3   OH254375   1.613   6.328   4.499 -0.3867  0.5118  0.5436
10987TIP3    H154376   1.678   6.277   4.450  0.2569  2.5831 -0.8588
10987TIP3    H254377   1.540   6.340   4.439 -1.0837  0.1883  1.3078
10988TIP3   OH254378   5.261   6.240   6.018  0.3802  0.0969 -0.0081
10988TIP3    H154379   5.223   6.244   6.106  1.1282  0.6611  0.3004
10988TIP3    H254380   5.229   6.319   5.975 -0.4460 -0.4603 -0.4532
10989TIP3   OH254381   0.147   1.368   0.461 -0.0637  0.1717 -0.1872
10989TIP3    H154382   0.190   1.294   0.505 -1.4119 -0.5596 -0.0400
10989TIP3    H254383   0.106   1.329   0.384  0.3331  1.0335 -0.8442
10990TIP3   OH254384   3.290   6.079   2.878  0.6699 -0.2051 -0.4611
10990TIP3    H154385   3.218   6.036   2.924  1.0207 -0.0961  0.2087
10990TIP3    H254386   3.262   6.171   2.872  0.3189 -0.3472 -1.0907
10991TIP3   OH254387   3.639   5.894  16.448 -0.8772  0.3138  0.1653
10991TIP3    H154388   3.692   5.827  16.403  0.9632  1.5834  0.3512
10991TIP3    H254389   3.627   5.962  16.383  1.4783  1.9935  1.3272
10992TIP3   OH254390   5.545   0.639  13.285  0.4924 -0.0265 -0.1546
10992TIP3    H154391   5.540   0.723  13.239  3.2579  0.2297 -0.1441
10992TIP3    H254392   5.552   0.574  13.215  1.6547  0.0940 -0.1759
10993TIP3   OH254393   3.695   3.462  16.864  0.0933 -0.0779  0.5918
10993TIP3    H154394   3.765   3.440  16.802  0.3777  1.7925  0.1940
10993TIP3    H254395   3.619   3.477  16.808  0.9443  4.1742  0.2688
10994TIP3   OH254396   4.310   2.511   6.309  0.0852 -0.2129  0.2565
10994TIP3    H154397   4.218   2.534   6.324 -0.6427 -2.0154 -1.1443
10994TIP3    H254398   4.357   2.555   6.380 -1.8484  0.7110  1.0421
10995TIP3   OH254399   6.458   0.204  16.149  0.4838 -0.1560  1.1382
10995TIP3    H154400   6.488   0.158  16.227  0.4831 -0.1558  1.1390
10995TIP3    H254401   6.364   0.219  16.164  0.3101 -0.8653  0.7911
10996TIP3   OH254402   1.317   3.698   5.156  0.4226 -0.4099 -0.4039
10996TIP3    H154403   1.350   3.750   5.083  0.5570  0.6887  0.4201
10996TIP3    H254404   1.322   3.608   5.125 -1.9120  0.1357 -2.7164
10997TIP3   OH254405   6.036   2.105  12.910  0.5432  0.1168  0.0182
10997TIP3    H154406   6.050   2.188  12.954 -1.2108 -0.6774  2.2507
10997TIP3    H254407   5.944   2.084  12.925  0.3307 -1.1889 -2.4377
10998TIP3   OH254408   3.544   4.776   1.401  0.0789  0.6107  0.3885
10998TIP3    H154409   3.537   4.708   1.468 -0.9672  2.1530  1.8990
10998TIP3    H254410   3.618   4.829   1.429  1.6015 -0.4206 -1.3719
10999TIP3   OH254411   6.607   1.134  13.289  0.3918 -0.0462 -0.0643
10999TIP3    H154412   6.605   1.207  13.352 -0.5401 -0.3456  0.2638
10999TIP3    H254413   6.640   1.060  13.339 -1.4279 -0.5800  0.4234
11000TIP3   OH254414   0.244   5.153  13.253 -0.6698  0.4474  0.4544
11000TIP3    H154415   0.175   5.099  13.213 -0.1030  2.0648 -3.0072
11000TIP3    H254416   0.323   5.101  13.245 -0.6303  0.6042 -0.2250
11001TIP3   OH254417   0.387   6.108   0.531  0.6422  0.3538 -0.0456
11001TIP3    H154418   0.456   6.174   0.529  1.6955 -0.5890  1.9547
11001TIP3    H254419   0.352   6.113   0.620 -0.7454 -0.3363 -0.5230
11002TIP3   OH254420   5.203   2.281  10.894 -0.3485 -0.6146 -0.2874
11002TIP3    H154421   5.184   2.359  10.842  1.1262 -0.0470 -0.0277
11002TIP3    H254422   5.254   2.225  10.835 -1.4192 -1.4150 -0.4816
11003TIP3   OH254423   1.033   1.634   3.521  0.2499  0.2109  0.0355
11003TIP3    H154424   1.091   1.694   3.569  0.5608 -0.0947  0.0514
11003TIP3    H254425   0.956   1.626   3.577  0.3049  0.4170  0.1435
11004TIP3   OH254426   5.410   2.027   0.734 -0.5695  0.3517 -0.0815
11004TIP3    H154427   5.442   2.090   0.798 -0.4060  1.1714 -0.9439
11004TIP3    H254428   5.473   1.955   0.736  0.4871  1.2351 -0.6409
11005TIP3   OH254429   1.429   0.824  12.889  0.3042  0.4537  0.0122
11005TIP3    H154430   1.482   0.746  12.872  0.7920  0.6645  0.5190
11005TIP3    H254431   1.465   0.891  12.831  1.6342  1.0291  1.4069
11006TIP3   OH254432   6.768   3.869   1.448 -0.4215 -0.1180 -0.3541
11006TIP3    H154433   6.809   3.783   1.448  0.1897  0.1672  0.3773
11006TIP3    H254434   6.674   3.850   1.447 -0.3130 -0.8214  0.9219
11007TIP3   OH254435   4.984   1.730   4.131  0.0357 -0.3561  0.7015
11007TIP3    H154436   5.040   1.687   4.066  0.2662 -0.1669  0.7751
11007TIP3    H254437   4.895   1.703   4.107 -0.1855  1.9114 -1.4308
11008TIP3   OH254438   4.875   1.328  16.916  0.2329  0.4349  0.7306
11008TIP3    H154439   4.893   1.414  16.876  0.6493 -0.0271 -0.1119
11008TIP3    H254440   4.835   1.277  16.845  0.2523 -0.1547  1.1381
11009TIP3   OH254441   2.269   1.694  15.942 -0.3735  0.0222  0.2845
11009TIP3    H154442   2.323   1.756  15.893 -1.3179 -0.1458 -1.0257
11009TIP3    H254443   2.188   1.689  15.892 -2.0144  0.9915  2.6713
11010TIP3   OH254444   3.112   6.576   3.944 -0.4947 -0.0002 -0.5735
11010TIP3    H154445   3.033   6.629   3.956 -1.3815 -1.4141  0.0857
11010TIP3    H254446   3.097   6.499   3.998  0.7973 -0.8891 -1.4357
11011TIP3   OH254447   0.061   6.746  14.015 -0.4544 -0.5234  0.1923
11011TIP3    H154448   0.133   6.799  13.982 -0.5934 -0.8097 -0.5939
11011TIP3    H254449   0.033   6.791  14.095  0.0462  0.0513  0.0520
11012TIP3   OH254450   5.304   2.022  13.045  0.3677 -0.6757 -0.1568
11012TIP3    H154451   5.323   2.022  13.138  0.8251  1.8467 -0.1705
11012TIP3    H254452   5.225   1.969  13.036 -0.7835  0.5590  1.9660
11013TIP3   OH254453   3.409   4.939  13.293  0.0240  0.5422 -0.2643
11013TIP3    H154454   3.319   4.931  13.324  0.1795  2.9874  1.1592
11013TIP3    H254455   3.407   5.011  13.230  1.2842  2.6306  1.8733
11014TIP3   OH254456   6.187   1.197  15.463 -0.2352 -0.4770  0.2378
11014TIP3    H154457   6.103   1.206  15.508  0.2566 -1.6131  1.4379
11014TIP3    H254458   6.218   1.109  15.486  0.6337 -0.6292 -1.3279
11015TIP3   OH254459   2.666   5.628  15.099  0.2558  0.3099  0.4267
11015TIP3    H154460   2.690   5.598  15.011 -1.5600  0.3040 -0.1017
11015TIP3    H254461   2.643   5.548  15.146 -0.5570  0.4685  0.3141
11016TIP3   OH254462   6.093   3.552   3.989  0.3581 -0.3288 -0.1565
11016TIP3    H154463   6.156   3.623   3.999  1.1215 -1.1449  0.9148
11016TIP3    H254464   6.145   3.472   3.990 -0.6550 -1.0050  0.4479
11017TIP3   OH254465   2.529   5.777  14.261 -0.0387 -0.3150 -0.1152
11017TIP3    H154466   2.551   5.724  14.185  0.7649 -2.7300  1.6705
11017TIP3    H254467   2.586   5.854  14.254  0.1571 -0.5762 -1.8082
11018TIP3   OH254468   2.258   4.343   1.511  0.1715  0.3802  0.0977
11018TIP3    H154469   2.223   4.257   1.535  0.5317  0.3864  0.6656
11018TIP3    H254470   2.182   4.402   1.516 -0.1465  0.0427 -0.6213
11019TIP3   OH254471   5.255   5.962   5.326 -0.7354 -0.1268  0.1375
11019TIP3    H154472   5.268   5.868   5.335 -0.2034  0.0661  1.7023
11019TIP3    H254473   5.303   6.000   5.400 -1.1101  1.3602 -0.3474
11020TIP3   OH254474   1.183   1.776  15.678  0.0618  0.0333 -0.1226
11020TIP3    H154475   1.230   1.693  15.671  0.8733  0.4790 -0.0746
11020TIP3    H254476   1.119   1.774  15.606 -1.3368 -1.4960  1.0757
11021TIP3   OH254477   0.962   2.627   4.336  0.8082 -0.3713  0.2497
11021TIP3    H154478   0.942   2.601   4.246  0.0702  0.7226  0.0693
11021TIP3    H254479   1.032   2.569   4.363 -1.2641 -3.0923  0.2048
11022TIP3   OH254480   0.796   0.645   2.858 -0.7096 -0.2970 -0.6755
11022TIP3    H154481   0.771   0.619   2.769 -1.3841  1.9589 -1.2211
11022TIP3    H254482   0.879   0.691   2.847  0.7557 -2.5355  0.3316
11023TIP3   OH254483   0.650   6.314  13.153 -0.3544 -0.6786  0.1542
11023TIP3    H154484   0.653   6.327  13.248 -0.1915 -0.9196  0.1806
11023TIP3    H254485   0.619   6.225  13.141 -1.2640 -0.3450 -0.0351
11024TIP3   OH254486   2.767   3.615   2.595  0.1667  0.2113  0.3733
11024TIP3    H154487   2.826   3.686   2.622  0.7092  0.1529 -0.6214
11024TIP3    H254488   2.692   3.623   2.654  0.2755  1.5465  0.3607
11025TIP3   OH254489   6.013   6.165   1.222  0.4554  0.0312 -0.3375
11025TIP3    H154490   6.089   6.109   1.207 -0.8967 -1.8633 -0.5976
11025TIP3    H254491   6.039   6.223   1.294  2.0662 -0.6761 -0.3120
11026TIP3   OH254492   2.650   1.430  15.391  0.5774  0.1595 -0.1498
11026TIP3    H154493   2.740   1.444  15.363  0.4344 -0.7107 -1.1197
11026TIP3    H254494   2.620   1.355  15.339 -1.2084  1.3940 -1.0141
11027TIP3   OH254495   2.474   5.620   1.651  0.2355 -0.2427 -0.3293
11027TIP3    H154496   2.397   5.633   1.596  0.6965 -0.0767 -0.9506
11027TIP3    H254497   2.548   5.636   1.592  0.7825  2.8859  0.9997
11028TIP3   OH254498   2.926   4.825   5.549  0.1359 -0.2864 -0.5163
11028TIP3    H154499   2.885   4.767   5.614  2.5498  1.1139  2.5181
11028TIP3    H254500   2.997   4.773   5.513  0.4759 -0.2046  0.0207
11029TIP3   OH254501   3.726   4.507   3.285 -0.4552  0.4490 -0.0054
11029TIP3    H154502   3.813   4.545   3.279 -0.5733  0.5085 -1.6492
11029TIP3    H254503   3.668   4.581   3.302 -0.2836  0.5174  0.2849
11030TIP3   OH254504   5.291   5.081  17.208 -0.4911 -1.0150  0.2312
11030TIP3    H154505   5.260   5.066  17.298  1.6451 -1.4662  0.9578
11030TIP3    H254506   5.386   5.086  17.217 -0.3566  1.0671 -1.7453
11031TIP3   OH254507   4.723   6.727  10.927  0.2288 -0.4842 -0.1362
11031TIP3    H154508   4.768   6.665  10.869  1.0991 -0.5906  0.6353
11031TIP3    H254509   4.653   6.764  10.873  0.6314 -1.0446 -1.0608
11032TIP3   OH254510   3.306   4.366  13.072  0.0290  0.0366  0.4071
11032TIP3    H154511   3.359   4.371  12.993 -1.4352  0.8734 -0.5578
11032TIP3    H254512   3.354   4.305  13.129  0.4765 -1.5839 -1.6001
11033TIP3   OH254513   0.309   1.466   4.410  0.0779 -1.0232 -0.5307
11033TIP3    H154514   0.377   1.522   4.446 -0.9820 -0.2495  0.3312
11033TIP3    H254515   0.323   1.381   4.451 -0.2993 -0.5016  0.7219
11034TIP3   OH254516   3.112   4.421   4.493  0.2111 -0.2606  0.1217
11034TIP3    H154517   3.155   4.361   4.432 -0.8270 -4.5510  3.1475
11034TIP3    H254518   3.022   4.390   4.497 -0.4241  1.6042  1.8122
11035TIP3   OH254519   3.471   2.866  13.902 -0.3578  0.5070  0.5789
11035TIP3    H154520   3.443   2.957  13.915  0.4257  0.7518  0.5850
11035TIP3    H254521   3.539   2.871  13.835 -1.6376 -0.3131 -0.8433
11036TIP3   OH254522   2.720   2.098   6.512 -0.0201 -0.5212  0.6929
11036TIP3    H154523   2.731   2.190   6.534 -0.2837 -1.0286  3.3116
11036TIP3    H254524   2.639   2.094   6.461 -0.5733  0.5905  1.4625
11037TIP3   OH254525   1.819   3.444  15.454  0.1955  0.0595 -0.0911
11037TIP3    H154526   1.732   3.458  15.492  0.7691  2.0915  0.5803
11037TIP3    H254527   1.824   3.508  15.383  0.9204 -0.4980 -0.5553
11038TIP3   OH254528   0.649   4.396   2.307  0.9203 -0.2994 -0.0783
11038TIP3    H154529   0.643   4.472   2.365  1.0297 -0.4939  0.1881
11038TIP3    H254530   0.683   4.431   2.224 -1.1478  0.3592 -0.7150
11039TIP3   OH254531   3.059   1.041   1.836 -0.3417  0.1718 -0.2702
11039TIP3    H154532   3.071   1.108   1.903 -0.1685  0.2070 -0.3367
11039TIP3    H254533   3.140   1.041   1.786 -0.8570  0.8578 -1.1341
11040TIP3   OH254534   5.880   0.598  15.735 -0.1500 -0.1586 -0.4811
11040TIP3    H154535   5.959   0.572  15.688 -1.2489 -1.4100 -1.7211
11040TIP3    H254536   5.808   0.558  15.686 -1.6782  2.0054 -0.1599
11041TIP3   OH254537   5.715   5.119   3.171  0.1637  0.1219 -0.2570
11041TIP3    H154538   5.803   5.132   3.204 -0.0910  3.1632 -0.4679
11041TIP3    H254539   5.727   5.086   3.082  1.2401  2.2454 -0.9803
11042TIP3   OH254540   4.178   5.030   0.680 -0.1559 -0.3150  0.4907
11042TIP3    H154541   4.268   5.002   0.696 -0.1800 -1.3448 -0.9402
11042TIP3    H254542   4.125   4.981   0.742  0.2887  0.6063  1.6221
11043TIP3   OH254543   3.272   4.413   2.891 -0.4734  0.2253 -0.3733
11043TIP3    H154544   3.280   4.351   2.963  0.0095 -0.1523 -0.7345
11043TIP3    H254545   3.362   4.425   2.861 -0.7232 -0.0847 -1.2828
11044TIP3   OH254546   3.963   6.160  15.384  0.0785 -0.2583  0.1442
11044TIP3    H154547   3.890   6.130  15.438 -2.1946  0.1407 -2.4838
11044TIP3    H254548   3.967   6.254  15.400 -0.8616 -0.0728 -0.6188
11045TIP3   OH254549   3.454   5.995   3.299 -0.3468 -0.0969 -0.1378
11045TIP3    H154550   3.473   5.934   3.370 -0.5946  0.4427  0.4020
11045TIP3    H254551   3.529   6.055   3.299  0.0378 -0.5736 -0.8569
11046TIP3   OH254552   1.515   1.981  17.134  0.1264  0.4906  0.1266
11046TIP3    H154553   1.473   2.048  17.187  0.2477  0.9453 -0.3445
11046TIP3    H254554   1.583   2.027  17.085 -2.5049  1.0073 -3.5004
11047TIP3   OH254555   3.760   6.626  15.293 -0.2103 -0.2360  0.2332
11047TIP3    H154556   3.791   6.551  15.345  0.7630 -0.8403 -1.1720
11047TIP3    H254557   3.668   6.634  15.318 -0.1700 -1.4670  0.9264
11048TIP3   OH254558   2.036   3.590  11.637 -0.0975  0.6722  0.1219
11048TIP3    H154559   2.023   3.506  11.681  0.2731  0.9835  0.8364
11048TIP3    H254560   1.957   3.601  11.582 -0.5911  0.3027  0.7492
11049TIP3   OH254561   3.092   0.137  14.424 -0.7051 -0.3381  0.3004
11049TIP3    H154562   2.996   0.139  14.427 -0.7210 -0.9098  2.3978
11049TIP3    H254563   3.118   0.134  14.517  1.3586  0.2426 -0.2150
11050TIP3   OH254564   6.356   4.350   0.845 -0.4992  0.0491 -0.1857
11050TIP3    H154565   6.369   4.377   0.936  0.6656  0.9517 -0.6024
11050TIP3    H254566   6.329   4.430   0.800  1.7677  0.2990 -1.2005
11051TIP3   OH254567   5.875   0.570  15.322 -0.3611 -0.3220 -1.0739
11051TIP3    H154568   5.893   0.509  15.394  0.1142  2.5712  1.4467
11051TIP3    H254569   5.959   0.579  15.277  0.0369 -0.1831 -0.3240
11052TIP3   OH254570   1.604   4.550   3.409  0.2194 -0.0466  0.1123
11052TIP3    H154571   1.561   4.627   3.373  0.3120  0.9293  1.9902
11052TIP3    H254572   1.594   4.558   3.504  1.1433 -1.8112  0.4100
11053TIP3   OH254573   2.414   1.023   5.221  0.3771 -0.2760 -0.5470
11053TIP3    H154574   2.361   0.992   5.148 -0.1756 -2.3092  0.6665
11053TIP3    H254575   2.494   0.971   5.216 -0.6358 -2.2174  1.6203
11054TIP3   OH254576   3.878   5.250  11.790 -0.7025 -0.9042 -0.0810
11054TIP3    H154577   3.828   5.170  11.775  0.2450 -0.9513 -4.4547
11054TIP3    H254578   3.817   5.321  11.773 -0.6811 -0.7840  0.3294
11055TIP3   OH254579   3.299   4.255   0.960  0.2179 -0.2220 -0.4174
11055TIP3    H154580   3.244   4.323   0.921 -0.2267 -0.5533 -0.3662
11055TIP3    H254581   3.357   4.303   1.020 -0.4668  0.0465  0.0362
11056TIP3   OH254582   4.693   1.032   3.554  0.1411 -0.2865  0.7318
11056TIP3    H154583   4.621   0.995   3.504  0.6215 -0.9298  0.4937
11056TIP3    H254584   4.651   1.089   3.618 -0.7419 -2.0224  1.7971
11057TIP3   OH254585   4.965   1.556  16.751 -0.4354 -0.8333  0.1473
11057TIP3    H154586   5.030   1.624  16.768 -0.6690 -0.3509 -0.8655
11057TIP3    H254587   4.882   1.603  16.744 -0.5529 -1.1707 -0.8739
11058TIP3   OH254588   1.131   4.631  11.690 -0.1316  0.1541  0.3257
11058TIP3    H154589   1.042   4.661  11.710 -0.1839 -0.3436  0.8846
11058TIP3    H254590   1.122   4.580  11.610 -0.1442  1.0791 -0.2834
11059TIP3   OH254591   3.767   3.295  13.799  0.0445 -0.3014 -0.7893
11059TIP3    H154592   3.810   3.253  13.873 -0.6543  2.3228  1.2518
11059TIP3    H254593   3.826   3.365  13.773 -0.8430  0.3793 -1.0355
11060TIP3   OH254594   1.673   6.445   1.981  0.2842 -0.7761  0.7106
11060TIP3    H154595   1.644   6.519   2.035 -0.9117 -2.2102  2.1312
11060TIP3    H254596   1.758   6.421   2.016  0.9745  0.2651 -0.1662
11061TIP3   OH254597   0.346   0.664  13.314 -0.1630 -0.1332 -0.1792
11061TIP3    H154598   0.317   0.707  13.395  2.4804 -0.9581  1.3196
11061TIP3    H254599   0.371   0.736  13.256  0.3286  0.4483  0.7269
11062TIP3   OH254600   6.157   4.051  14.632 -0.3310  0.0208  0.2247
11062TIP3    H154601   6.101   4.016  14.701  2.6061  0.6869  3.1894
11062TIP3    H254602   6.121   4.139  14.614 -0.4925  0.2944  1.7639
11063TIP3   OH254603   3.270   4.608  14.102 -0.1627  0.1973  0.7895
11063TIP3    H154604   3.356   4.650  14.108 -0.3623  0.8946 -0.8187
11063TIP3    H254605   3.285   4.533  14.044 -0.7903  0.7610 -0.1127
11064TIP3   OH254606   2.245   5.883  16.225  0.2850 -0.2903 -0.0823
11064TIP3    H154607   2.172   5.940  16.248 -0.5511 -1.0928 -0.6790
11064TIP3    H254608   2.241   5.875  16.129 -0.1490 -2.0037  0.0416
11065TIP3   OH254609   3.475   6.610   5.272 -0.2616  0.0052  0.0479
11065TIP3    H154610   3.515   6.533   5.232 -3.7871 -1.4585 -1.1281
11065TIP3    H254611   3.513   6.614   5.359  2.4681 -1.0180 -0.9820
11066TIP3   OH254612   0.482   2.846   6.309 -0.2796 -0.5617 -0.4243
11066TIP3    H154613   0.521   2.829   6.394  0.3669  2.3943  0.0016
11066TIP3    H254614   0.462   2.760   6.273  2.4448 -2.0387  1.2902
11067TIP3   OH254615   1.307   3.150   5.724 -0.0085 -0.2571 -0.0116
11067TIP3    H154616   1.358   3.071   5.709  0.1203 -0.1616 -0.0711
11067TIP3    H254617   1.248   3.127   5.796  1.0145  0.0447  0.9500
11068TIP3   OH254618   5.052   0.638   3.311 -0.2117 -0.2051  0.0032
11068TIP3    H154619   5.121   0.702   3.331  1.5057 -2.3128  1.3381
11068TIP3    H254620   5.078   0.599   3.227 -1.7609  1.3971 -1.2904
11069TIP3   OH254621   6.590   2.132   3.648 -0.3520 -0.4103 -0.2464
11069TIP3    H154622   6.685   2.133   3.635 -0.4943  0.6076 -1.3883
11069TIP3    H254623   6.555   2.186   3.577 -1.8141 -0.9723  0.0055
11070TIP3   OH254624   3.103   5.489  12.016 -0.2202  0.1182  0.4098
11070TIP3    H154625   3.096   5.397  12.042  1.1025  0.1290  0.8491
11070TIP3    H254626   3.056   5.494  11.933  0.8217 -1.2529 -0.2956
11071TIP3   OH254627   5.066   3.166  14.379  0.3154  0.1966 -0.2777
11071TIP3    H154628   5.125   3.223  14.428  1.4063 -1.2243  0.1200
11071TIP3    H254629   5.104   3.164  14.291 -0.8104  1.5623 -0.8432
11072TIP3   OH254630   0.516   1.258  13.240  0.3151 -0.1787 -1.1290
11072TIP3    H154631   0.601   1.286  13.271  0.1565 -0.6169 -0.2720
11072TIP3    H254632   0.535   1.208  13.160  0.7772  0.4440 -1.4141
11073TIP3   OH254633   5.141   2.493  11.470  0.0516 -0.3745 -0.2771
11073TIP3    H154634   5.066   2.452  11.426  0.9411 -1.1688 -1.0898
11073TIP3    H254635   5.194   2.528  11.400  0.5316  0.0464  0.2887
11074TIP3   OH254636   2.883   1.854   3.709 -0.0183  0.0244 -0.8944
11074TIP3    H154637   2.891   1.827   3.800 -0.0213 -1.6449 -1.3668
11074TIP3    H254638   2.811   1.918   3.709 -0.5760 -0.5848  0.1410
11075TIP3   OH254639   0.846   0.095  12.714 -0.2734  0.6593 -0.1688
11075TIP3    H154640   0.816   0.006  12.692  0.0711  0.3958  0.4192
11075TIP3    H254641   0.765   0.144  12.727 -0.4673  0.4364 -0.5192
11076TIP3   OH254642   2.481   4.951   1.192 -0.7010 -0.9160 -0.3541
11076TIP3    H154643   2.488   4.993   1.278  0.8831 -0.3273 -0.7374
11076TIP3    H254644   2.478   5.024   1.130 -2.8045 -1.3076 -0.7819
11077TIP3   OH254645   1.318   1.986  16.530 -0.8553  0.0158  0.3457
11077TIP3    H154646   1.305   2.039  16.451 -0.5315 -0.1786  0.1571
11077TIP3    H254647   1.413   1.986  16.542 -0.8761 -0.2974  0.5006
11078TIP3   OH254648   3.273   6.470  15.665 -0.1505  0.2340 -0.5830
11078TIP3    H154649   3.357   6.459  15.709  0.6640  0.2781 -2.0437
11078TIP3    H254650   3.259   6.387  15.620 -0.9857  0.1625 -0.1996
11079TIP3   OH254651   4.499   6.652   0.813  0.4667  0.5729  0.0963
11079TIP3    H154652   4.430   6.675   0.875  0.4040 -1.5449  0.8803
11079TIP3    H254653   4.532   6.736   0.783 -1.9274  1.6676  0.2599
11080TIP3   OH254654   6.143   4.419  14.807  0.1704 -0.6408 -0.3130
11080TIP3    H154655   6.101   4.422  14.892  0.9635 -2.2542  0.1878
11080TIP3    H254656   6.160   4.326  14.792  3.6384 -0.1160 -0.3937
11081TIP3   OH254657   1.501   6.176  14.009  0.0893 -0.0861 -0.0085
11081TIP3    H154658   1.450   6.149  14.085  1.9611 -0.3037  1.2461
11081TIP3    H254659   1.533   6.264  14.032 -1.1527  0.8161 -1.5414
11082TIP3   OH254660   1.897   0.582   2.522 -0.0989  0.2741  0.1750
11082TIP3    H154661   1.904   0.677   2.517 -1.0654  0.2943 -1.2685
11082TIP3    H254662   1.977   0.550   2.480 -0.5082  0.4649 -0.7702
11083TIP3   OH254663   4.378   3.050   3.877  0.1979  0.2895 -0.4877
11083TIP3    H154664   4.392   3.139   3.844  1.2385  0.0579 -0.7199
11083TIP3    H254665   4.463   3.007   3.863 -0.4797 -0.9228 -0.9688
11084TIP3   OH254666   2.606   3.653   2.819 -0.0924  0.3851  0.0155
11084TIP3    H154667   2.562   3.608   2.891 -0.5669  0.3819 -0.2729
11084TIP3    H254668   2.588   3.746   2.834  0.3711  0.4385  0.2682
11085TIP3   OH254669   4.370   5.195  11.630 -0.5877 -0.1940 -0.2133
11085TIP3    H154670   4.427   5.253  11.578  1.8001 -1.5286  0.7383
11085TIP3    H254671   4.404   5.107  11.612 -0.5438 -0.8164  2.4992
11086TIP3   OH254672   1.259   6.701   2.211  0.0989  0.3618  0.2498
11086TIP3    H154673   1.181   6.721   2.263 -0.1528  0.7499 -0.2544
11086TIP3    H254674   1.331   6.742   2.259  0.2951 -1.5058  1.6660
11087TIP3   OH254675   5.876   2.016  12.105  0.2120 -0.3088  0.1836
11087TIP3    H154676   5.914   1.996  12.191  0.0903  1.2008  0.6209
11087TIP3    H254677   5.930   1.968  12.043  0.3285 -1.3935  1.0990
11088TIP3   OH254678   5.529   5.235   3.684  0.0401 -0.4519  0.1209
11088TIP3    H154679   5.617   5.199   3.672  0.4229  0.4883  0.0646
11088TIP3    H254680   5.517   5.238   3.779  0.0151 -0.6958  0.1266
11089TIP3   OH254681   3.530   6.723  14.595  0.0845  0.1593 -0.1127
11089TIP3    H154682   3.497   6.657  14.534  0.5375  1.0578 -1.3835
11089TIP3    H254683   3.452   6.764  14.632 -0.2056  0.1167 -0.6777
11090TIP3   OH254684   4.752   0.968   1.964 -0.2038 -0.4970  0.1825
11090TIP3    H154685   4.715   0.898   1.910  0.5068 -1.2818  0.6866
11090TIP3    H254686   4.799   0.922   2.034 -0.6473  0.4973  1.1527
11091TIP3   OH254687   5.877   4.250  11.865  0.6180 -0.3872  0.1472
11091TIP3    H154688   5.924   4.234  11.783  1.4694 -1.8162  0.8794
11091TIP3    H254689   5.904   4.178  11.922  0.3323  0.7993  1.8218
11092TIP3   OH254690   0.307   2.878  11.442  1.1150 -0.4209 -0.0867
11092TIP3    H154691   0.316   2.898  11.349  0.4811  1.2196  0.1819
11092TIP3    H254692   0.226   2.827  11.448  0.4587  0.5751 -0.2979
11093TIP3   OH254693   5.374   4.280   3.710 -0.0024 -0.1110 -0.4633
11093TIP3    H154694   5.286   4.297   3.741 -0.1730  0.0893 -1.0479
11093TIP3    H254695   5.425   4.265   3.789 -0.1529  1.6770 -0.0070
11094TIP3   OH254696   3.556   4.333  16.062  0.4800 -0.6094 -0.4382
11094TIP3    H154697   3.561   4.376  16.148 -0.8881  0.4556 -0.8541
11094TIP3    H254698   3.606   4.390  16.004 -0.9841  0.2246 -0.9076
11095TIP3   OH254699   0.875   2.553   4.055 -0.4887  0.7199 -0.4608
11095TIP3    H154700   0.890   2.626   3.995 -0.5753  0.5675 -0.6669
11095TIP3    H254701   0.947   2.492   4.037 -1.0772  0.2043 -1.1228
11096TIP3   OH254702   1.744   1.324   3.614  0.3322 -0.3830 -0.3029
11096TIP3    H154703   1.708   1.325   3.703 -3.7083  0.5662 -1.7143
11096TIP3    H254704   1.793   1.405   3.607 -2.0021  1.1692  0.2282
11097TIP3   OH254705   4.476   4.043  15.778  0.4711  0.3130  1.1708
11097TIP3    H154706   4.424   4.018  15.854 -0.2430  2.0948  1.3336
11097TIP3    H254707   4.441   3.991  15.706 -2.5160  2.2888  0.9991
11098TIP3   OH254708   3.750   6.145  15.704 -0.1977  0.5622  0.6562
11098TIP3    H154709   3.682   6.144  15.771  1.0510 -1.5484  1.9959
11098TIP3    H254710   3.705   6.120  15.623 -1.2017  0.3288  1.2731
11099TIP3   OH254711   4.728   3.581  12.066  0.3068 -0.0974 -0.0697
11099TIP3    H154712   4.757   3.504  12.115  0.4762  1.7016  2.9157
11099TIP3    H254713   4.808   3.632  12.052 -0.1037  0.5722 -0.0118
11100TIP3   OH254714   2.621   1.794   3.532 -0.4451  0.1270 -0.0237
11100TIP3    H154715   2.624   1.882   3.570  0.2447 -0.4061  1.2051
11100TIP3    H254716   2.603   1.736   3.605  2.5967 -1.1227 -0.0864
11101TIP3   OH254717   0.381   2.191   4.860  0.3810 -0.0425 -0.0087
11101TIP3    H154718   0.421   2.214   4.944  0.2093 -2.6260  0.8962
11101TIP3    H254719   0.288   2.182   4.880  0.6088 -3.0458  0.2685
11102TIP3   OH254720   0.637   3.178  14.110 -0.7615 -0.6340 -1.1344
11102TIP3    H154721   0.728   3.149  14.121 -1.1272 -1.5126 -0.1729
11102TIP3    H254722   0.640   3.246  14.043  0.5662 -0.8483 -1.3059
11103TIP3   OH254723   0.080   1.226   5.619  0.4108  0.8395 -0.4368
11103TIP3    H154724   0.069   1.301   5.677 -0.7340  1.5542 -1.5421
11103TIP3    H254725   0.062   1.150   5.675 -0.1706  1.4749  0.2712
11104TIP3   OH254726   6.219   6.112   0.615 -0.3637 -0.7600  0.6660
11104TIP3    H154727   6.251   6.152   0.696  0.7944 -1.3358  0.5119
11104TIP3    H254728   6.140   6.065   0.641  0.2390 -1.3074  1.5648
11105TIP3   OH254729   2.493   0.837   4.162 -0.0615 -0.2907  0.5393
11105TIP3    H154730   2.430   0.892   4.209  1.0534 -0.0152  1.7526
11105TIP3    H254731   2.553   0.805   4.229  2.2373  0.9923 -0.7710
11106TIP3   OH254732   2.183   2.301   3.976  0.0529  0.8511 -0.2681
11106TIP3    H154733   2.155   2.215   4.007 -1.2615  1.3176 -0.1412
11106TIP3    H254734   2.269   2.314   4.017  0.4303 -0.5298 -0.5566
11107TIP3   OH254735   6.618   3.408  13.739  0.1385 -0.3157 -0.3360
11107TIP3    H154736   6.694   3.411  13.797 -0.8794 -1.9841  1.2124
11107TIP3    H254737   6.610   3.497  13.704  0.0276  1.2119  3.1952
11108TIP3   OH254738   6.530   0.241   5.934 -0.0871  0.0772  0.1685
11108TIP3    H154739   6.514   0.202   6.020  1.2584  0.0966  0.4590
11108TIP3    H254740   6.592   0.311   5.951 -0.3687  0.5605 -0.7291
11109TIP3   OH254741   4.232   2.751  15.030 -0.2971  0.4983  0.1301
11109TIP3    H154742   4.138   2.757  15.046 -0.1882  2.6472  0.3487
11109TIP3    H254743   4.242   2.682  14.965 -1.8132 -1.1094  1.5281
11110TIP3   OH254744   2.209   4.456   5.484 -0.6314 -0.2449 -0.2009
11110TIP3    H154745   2.243   4.418   5.403 -1.8589 -0.2494 -0.7436
11110TIP3    H254746   2.252   4.541   5.491  1.3188 -1.2281  0.4521
11111TIP3   OH254747   6.647   1.014   6.000 -0.0007 -1.0444 -0.1146
11111TIP3    H154748   6.593   0.944   5.963 -2.3559  0.8913 -0.5680
11111TIP3    H254749   6.623   1.016   6.093  0.0565 -0.8224 -0.1046
11112TIP3   OH254750   5.038   1.789   2.449 -0.3241  0.2899 -0.1744
11112TIP3    H154751   5.053   1.783   2.543  0.9567  1.5638 -0.2570
11112TIP3    H254752   5.082   1.870   2.423  0.7119 -0.7982 -2.0954
11113TIP3   OH254753   2.281   4.273   3.665  0.0792  0.2945 -0.1471
11113TIP3    H154754   2.372   4.302   3.672  0.3685 -0.3034 -1.1706
11113TIP3    H254755   2.275   4.197   3.723 -0.1367  1.1292  0.9520
11114TIP3   OH254756   3.965   6.507  16.034  0.3435  0.2413  0.8813
11114TIP3    H154757   4.059   6.488  16.046  0.2114 -0.2204  1.2292
11114TIP3    H254758   3.925   6.483  16.118 -0.2123 -0.4397  0.4385
11115TIP3   OH254759   3.623   0.641   4.055 -0.0082  0.5893  0.1271
11115TIP3    H154760   3.676   0.609   3.982  0.0496  0.1280  0.3714
11115TIP3    H254761   3.655   0.730   4.069  0.9253  0.2225  0.4687
11116TIP3   OH254762   0.426   6.520   4.102 -0.3633 -0.3083  0.3082
11116TIP3    H154763   0.448   6.539   4.011 -1.6560 -0.1248  0.0076
11116TIP3    H254764   0.397   6.429   4.101 -2.1778  0.2257  0.1445
11117TIP3   OH254765   3.687   6.655   0.937  0.0856 -0.0426  0.3798
11117TIP3    H154766   3.637   6.704   0.872 -1.3252 -2.2073 -0.2336
11117TIP3    H254767   3.769   6.705   0.946 -1.1002  2.1896 -0.4560
11118TIP3   OH254768   3.520   1.263   6.480 -0.0360  0.6267  0.0004
11118TIP3    H154769   3.587   1.330   6.488  0.9615 -0.0683 -1.9848
11118TIP3    H254770   3.439   1.308   6.504  0.5901  2.6000 -1.3065
11119TIP3   OH254771   5.571   3.566  13.465 -0.0854  0.3468 -0.7364
11119TIP3    H154772   5.518   3.566  13.545  0.0754  0.2357 -0.6298
11119TIP3    H254773   5.508   3.581  13.395 -0.1164  1.3047 -0.5157
11120TIP3   OH254774   2.363   2.870  13.316 -0.1912  0.9105  0.1894
11120TIP3    H154775   2.436   2.887  13.376  0.2588  2.2796 -0.6976
11120TIP3    H254776   2.285   2.874  13.372  0.2112  2.2071  0.7097
11121TIP3   OH254777   1.020   2.132   0.104 -0.2728  0.1012  0.2385
11121TIP3    H154778   1.030   2.046   0.144  0.6968 -0.0524 -0.3020
11121TIP3    H254779   1.087   2.135   0.036 -0.5053  1.1619  0.0337
11122TIP3   OH254780   4.067   3.548   1.106 -0.1687 -0.0583 -0.0686
11122TIP3    H154781   3.983   3.506   1.086 -0.1247  0.0608 -0.5168
11122TIP3    H254782   4.109   3.559   1.021  1.0268 -1.6218  0.2643
11123TIP3   OH254783   5.243   3.284  13.508 -0.8028  0.2026 -0.5697
11123TIP3    H154784   5.280   3.288  13.596 -0.8941 -0.4240 -0.5008
11123TIP3    H254785   5.204   3.197  13.502  0.4593 -0.3209 -1.7265
11124TIP3   OH254786   1.077   3.149  13.303 -0.2888  1.1565 -0.0446
11124TIP3    H154787   1.052   3.226  13.252 -1.7239  0.7453  0.0048
11124TIP3    H254788   0.998   3.095  13.307  0.8240 -0.6246 -0.5941
11125TIP3   OH254789   2.702   3.515   0.391 -0.2178 -0.4872  0.1251
11125TIP3    H154790   2.639   3.587   0.392 -0.2747 -0.5350  0.0421
11125TIP3    H254791   2.703   3.486   0.300  0.3460 -0.1194  0.0126
11126TIP3   OH254792   2.436   3.204  13.741 -0.5107 -0.4036 -0.3523
11126TIP3    H154793   2.401   3.220  13.828 -0.0690 -2.1070  0.1937
11126TIP3    H254794   2.509   3.265  13.733  0.3799 -1.1930  1.1120
11127TIP3   OH254795   2.090   3.160  12.772  0.3429  0.3895 -0.0294
11127TIP3    H154796   2.027   3.209  12.825  0.6407  0.9314 -0.1734
11127TIP3    H254797   2.161   3.138  12.833  0.4342  0.5509 -0.0779
11128TIP3   OH254798   0.672   1.891  15.135  0.1714 -0.3134 -0.5300
11128TIP3    H154799   0.591   1.840  15.142 -0.6138  0.8956 -0.4294
11128TIP3    H254800   0.713   1.860  15.055 -0.7104 -0.5203 -0.9166
11129TIP3   OH254801   1.579   3.785   2.219  0.1893  0.2301  0.5321
11129TIP3    H154802   1.638   3.856   2.192  0.7080 -0.2765  0.3212
11129TIP3    H254803   1.492   3.826   2.220  0.2998  0.5432 -0.8564
11130TIP3   OH254804   3.229   6.576  11.888 -0.0544 -0.2323 -0.1520
11130TIP3    H154805   3.206   6.553  11.798 -0.3902 -1.3061  0.1854
11130TIP3    H254806   3.207   6.497  11.939 -2.5816  1.2998  1.3396
11131TIP3   OH254807   0.607   1.245   2.111  0.1016  0.5055 -0.1861
11131TIP3    H154808   0.555   1.292   2.046  0.8044  0.9193 -0.4603
11131TIP3    H254809   0.598   1.297   2.191 -0.0737  0.4601 -0.1752
11132TIP3   OH254810   5.642   3.116  12.550  0.0702  0.0096  0.3914
11132TIP3    H154811   5.673   3.091  12.463 -0.9297 -0.3179  0.1135
11132TIP3    H254812   5.703   3.184  12.579  0.8999 -0.4590 -0.2131
11133TIP3   OH254813   5.614   0.998  15.137  0.6280  0.2953  0.2966
11133TIP3    H154814   5.682   1.002  15.070 -1.1593  1.2664 -1.5607
11133TIP3    H254815   5.564   0.919  15.116  0.0102  0.6455  0.4399
11134TIP3   OH254816   1.591   4.068  14.522  0.0347 -0.2390 -0.3913
11134TIP3    H154817   1.610   4.076  14.429 -3.8607  0.9303 -1.3004
11134TIP3    H254818   1.561   3.978  14.533 -2.3728  0.3923 -1.0808
11135TIP3   OH254819   5.518   6.364   2.114 -0.5225 -0.8363  0.3012
11135TIP3    H154820   5.497   6.379   2.206 -0.2424 -2.7836  0.7300
11135TIP3    H254821   5.612   6.344   2.113  0.0808  1.6688 -0.7837
11136TIP3   OH254822   2.245   0.168  11.182 -0.4460 -0.2394  0.1424
11136TIP3    H154823   2.157   0.149  11.216 -0.0371  0.8051  1.9129
11136TIP3    H254824   2.279   0.082  11.156 -2.1729 -0.5939 -1.1609
11137TIP3   OH254825   4.068   4.588  12.426 -0.1255  0.1239 -0.1509
11137TIP3    H154826   4.091   4.647  12.354  3.0101  0.1891  0.7796
11137TIP3    H254827   4.072   4.643  12.505  0.8470 -0.8703  0.5206
11138TIP3   OH254828   2.669   6.298  11.905 -0.3957 -0.3430  0.2301
11138TIP3    H154829   2.658   6.338  11.819 -0.8302 -1.2647 -0.1569
11138TIP3    H254830   2.604   6.341  11.960 -1.5258 -1.1667 -0.4244
11139TIP3   OH254831   0.354   2.892   1.967  0.3560  0.0500  0.0237
11139TIP3    H154832   0.333   2.850   2.050  1.0688  1.7312  1.0994
11139TIP3    H254833   0.354   2.820   1.904 -0.5362 -1.2191  1.3875
11140TIP3   OH254834   0.898   6.493   3.477 -0.2455  0.3523 -0.0044
11140TIP3    H154835   0.967   6.489   3.410 -0.4672 -1.4206 -0.2007
11140TIP3    H254836   0.830   6.435   3.443 -2.5129  3.1102 -0.4849
11141TIP3   OH254837   4.111   0.616  13.219 -0.4947  0.1235 -1.1447
11141TIP3    H154838   4.151   0.652  13.298 -1.2533 -0.3802 -0.5142
11141TIP3    H254839   4.184   0.576  13.171 -0.1855 -0.5953 -0.1195
11142TIP3   OH254840   2.737   0.931  12.112 -0.1703 -0.6510  0.1835
11142TIP3    H154841   2.778   0.878  12.043  1.2244 -0.4826  0.8417
11142TIP3    H254842   2.727   1.017  12.073  1.1882 -0.3935  0.3638
11143TIP3   OH254843   3.149   2.701   5.984  0.0100 -0.3117 -0.4475
11143TIP3    H154844   3.093   2.778   5.974 -1.1327 -0.9813  0.5287
11143TIP3    H254845   3.235   2.736   6.004 -0.3586  0.7217 -0.6048
11144TIP3   OH254846   5.499   4.404  10.474  0.0794 -0.2199 -0.0736
11144TIP3    H154847   5.422   4.394  10.531  1.8963  0.0373  2.5915
11144TIP3    H254848   5.522   4.315  10.450 -1.7596 -0.2488 -2.0655
11145TIP3   OH254849   6.207   0.085   5.129  0.2636  0.8594  0.2562
11145TIP3    H154850   6.226   0.167   5.175 -0.2765  1.4568 -0.5573
11145TIP3    H254851   6.115   0.092   5.103  0.7275  0.8940 -1.5533
11146TIP3   OH254852   6.258   6.551  15.232  0.3155  0.4446  0.4681
11146TIP3    H154853   6.316   6.589  15.166  0.5949 -0.1072  0.3845
11146TIP3    H254854   6.302   6.569  15.315  0.9655 -0.5591  0.3592
11147TIP3   OH254855   0.807   5.721  15.975 -0.0436  0.8142  0.2118
11147TIP3    H154856   0.801   5.685  15.886 -1.9949  1.8143 -0.1189
11147TIP3    H254857   0.897   5.706  16.001 -0.3009 -2.9728 -0.4577
11148TIP3   OH254858   1.303   1.473  14.153 -0.4670 -0.1519  0.4579
11148TIP3    H154859   1.297   1.566  14.177 -1.0824 -0.1747  0.4108
11148TIP3    H254860   1.394   1.451  14.168 -0.1085  0.6964 -0.3652
11149TIP3   OH254861   3.443   3.176  12.009  0.2194 -0.4316 -0.3873
11149TIP3    H154862   3.366   3.124  11.986 -0.8168  0.5699  0.6559
11149TIP3    H254863   3.512   3.143  11.952 -0.9949 -1.3095 -1.4148
11150TIP3   OH254864   3.145   0.030   1.726 -0.5715  0.0760 -0.4239
11150TIP3    H154865   3.125   0.066   1.640  1.5922  1.0301 -0.6064
11150TIP3    H254866   3.212  -0.037   1.709 -1.9080 -1.5186  0.2994
11151TIP3   OH254867   6.420   2.886   5.733 -0.6210  0.2065 -0.0002
11151TIP3    H154868   6.489   2.858   5.792 -0.0390 -0.1402 -0.8267
11151TIP3    H254869   6.350   2.822   5.744 -0.5370  0.1760  0.3484
11152TIP3   OH254870   2.353   6.568  16.243  0.5638 -0.1338 -0.2671
11152TIP3    H154871   2.261   6.572  16.217  0.3053 -0.1149  0.5908
11152TIP3    H254872   2.389   6.493  16.196  0.5282  0.8030 -1.8517
11153TIP3   OH254873   0.439   1.612  14.005 -0.0836  0.1681  0.4696
11153TIP3    H154874   0.438   1.677  13.935  1.5692 -0.5915 -0.3240
11153TIP3    H254875   0.430   1.528  13.960 -2.4884 -0.2080  1.4991
11154TIP3   OH254876   5.714   1.617   2.330 -0.2939 -0.5411 -0.3472
11154TIP3    H154877   5.678   1.697   2.292  0.0719  0.4845  1.3831
11154TIP3    H254878   5.687   1.620   2.422  1.6157 -1.2913  0.2700
11155TIP3   OH254879   2.513   0.245  10.077  0.1670 -0.0993 -0.2277
11155TIP3    H154880   2.603   0.230  10.048  0.4014  0.0277  0.4019
11155TIP3    H254881   2.519   0.242  10.173 -0.4043  0.4222 -0.1721
11156TIP3   OH254882   5.497   0.714   4.880 -0.1336 -0.2378  0.5644
11156TIP3    H154883   5.451   0.630   4.878  0.6653 -0.7028 -2.1947
11156TIP3    H254884   5.500   0.742   4.789 -0.2787  2.7833  1.3770
11157TIP3   OH254885   3.743   0.205  15.394 -0.3151  0.2384  0.1051
11157TIP3    H154886   3.828   0.163  15.406  0.5107  1.4256 -1.2457
11157TIP3    H254887   3.721   0.188  15.302 -1.3385  0.3289  0.3222
11158TIP3   OH254888   0.304   6.117  16.879 -0.8440 -0.1611  0.6123
11158TIP3    H154889   0.284   6.114  16.786  0.2895  0.2655  0.3395
11158TIP3    H254890   0.376   6.179  16.886  0.2778 -1.5279  1.5578
11159TIP3   OH254891   4.575   2.777   5.724 -0.5166 -0.1533 -0.2511
11159TIP3    H154892   4.551   2.692   5.688  0.7699 -1.2923  1.4421
11159TIP3    H254893   4.647   2.807   5.668 -1.1124 -0.0348 -0.9815
11160TIP3   OH254894   3.927   5.565   4.788 -0.0239 -0.3370 -0.0524
11160TIP3    H154895   4.002   5.509   4.769  1.4969  2.1824 -2.2486
11160TIP3    H254896   3.960   5.629   4.851 -0.5469  0.3029 -0.4128
11161TIP3   OH254897   4.118   2.922  12.006 -0.3217 -0.6945 -0.0375
11161TIP3    H154898   4.119   2.932  11.911  0.2157 -1.4953 -0.1261
11161TIP3    H254899   4.209   2.909  12.031 -0.3383  0.5191  0.7172
11162TIP3   OH254900   1.861   2.709  17.120  0.0451  0.1496 -0.0620
11162TIP3    H154901   1.816   2.626  17.106  0.2728 -0.0095  0.1415
11162TIP3    H254902   1.826   2.742  17.202  1.2057 -0.5971  0.7789
11163TIP3   OH254903   5.549   6.169  11.582 -0.1906  0.5797  0.4884
11163TIP3    H154904   5.523   6.261  11.579  0.4057  0.7627  0.8569
11163TIP3    H254905   5.633   6.166  11.536 -0.0793  0.2660  0.7086
11164TIP3   OH254906   3.129   1.291  12.169  0.1254 -0.2653  0.1610
11164TIP3    H154907   3.046   1.324  12.201  0.3834  0.6478 -0.0826
11164TIP3    H254908   3.120   1.293  12.073 -0.7499 -3.2362  0.0750
11165TIP3   OH254909   1.452   3.067  12.564 -0.5093  0.1338 -0.5165
11165TIP3    H154910   1.427   3.134  12.628 -0.5340  1.5497 -1.9463
11165TIP3    H254911   1.427   3.103  12.480  1.2988 -0.8075 -1.5333
11166TIP3   OH254912   2.682   3.676   6.286  0.7147 -0.3205 -0.5922
11166TIP3    H154913   2.709   3.669   6.377 -0.7743 -0.4195 -0.1375
11166TIP3    H254914   2.763   3.665   6.236  1.4728 -0.7418  0.6934
11167TIP3   OH254915   2.248   4.923   4.670 -0.5450 -0.5183  0.3903
11167TIP3    H154916   2.230   4.854   4.734 -1.6023 -0.5553  0.0758
11167TIP3    H254917   2.218   4.887   4.586 -0.1518 -0.0697  0.0493
11168TIP3   OH254918   6.045   1.927   0.314 -0.0230 -0.2317  0.0475
11168TIP3    H154919   6.051   1.996   0.380 -0.1700 -1.4571  1.3927
11168TIP3    H254920   6.124   1.937   0.261 -0.8519  2.0198 -0.9030
11169TIP3   OH254921   2.086   5.428  11.418  0.2789  0.2967  0.2147
11169TIP3    H154922   2.161   5.410  11.474  0.2593  0.5921  0.3345
11169TIP3    H254923   2.107   5.385  11.335  1.8914  2.7666 -0.7545
11170TIP3   OH254924   5.097   6.073   1.929 -0.3519 -0.1610  0.4051
11170TIP3    H154925   5.156   6.148   1.921  1.6149 -1.4260  2.0203
11170TIP3    H254926   5.136   6.019   1.997 -3.9586 -0.6271  2.3352
11171TIP3   OH254927   2.452   3.589  15.867 -0.4268  0.1925 -0.7032
11171TIP3    H154928   2.525   3.650  15.877 -1.9257  1.8719  0.4765
11171TIP3    H254929   2.374   3.644  15.868 -1.7569 -1.5840 -1.5421
11172TIP3   OH254930   3.274   3.584  16.094 -0.5729  0.3536  0.7162
11172TIP3    H154931   3.341   3.519  16.116 -1.2422 -0.5496  0.1571
11172TIP3    H254932   3.212   3.579  16.167 -0.6021  0.3978  0.6950
11173TIP3   OH254933   3.697   2.027   2.094  0.4976  0.3899  0.5285
11173TIP3    H154934   3.604   2.014   2.079  0.3352 -0.6620  2.2440
11173TIP3    H254935   3.731   1.939   2.109  1.6699  0.8218  0.5071
11174TIP3   OH254936   5.079   5.547  14.081 -0.4079  0.3419  0.0082
11174TIP3    H154937   5.116   5.471  14.126  0.8608  0.8997 -0.0507
11174TIP3    H254938   5.155   5.602  14.062 -1.2305  1.2878 -0.5829
11175TIP3   OH254939   5.718   2.940   6.415 -0.0270 -0.7100 -0.2376
11175TIP3    H154940   5.779   2.889   6.469  2.3102  1.8634 -0.2235
11175TIP3    H254941   5.773   3.008   6.375 -2.6970  0.9533 -1.3200
11176TIP3   OH254942   3.783   3.946  15.590  0.0683 -0.3918  0.1486
11176TIP3    H154943   3.749   4.010  15.652  0.8057  0.0129  0.1432
11176TIP3    H254944   3.820   3.999  15.519  0.2159 -0.8360 -0.1121
11177TIP3   OH254945   4.442   2.528   4.230 -0.3609 -0.3510 -0.2839
11177TIP3    H154946   4.450   2.582   4.151  0.7160  0.6465  0.4854
11177TIP3    H254947   4.356   2.486   4.221 -0.7776  0.6798 -1.4057
11178TIP3   OH254948   3.331   6.122  12.909 -0.4814  0.3983  0.5943
11178TIP3    H154949   3.322   6.216  12.891  2.9319  0.8099  0.2347
11178TIP3    H254950   3.326   6.114  13.004  4.5012  2.0208  1.3141
11179TIP3   OH254951   6.656   0.678   2.140  0.3116 -0.2452  0.5730
11179TIP3    H154952   6.645   0.608   2.204 -2.0196  0.0029  0.5483
11179TIP3    H254953   6.659   0.634   2.056  1.3487 -0.4427  0.7005
11180TIP3   OH254954   0.466   4.801   1.119 -0.0614  0.7227 -0.2376
11180TIP3    H154955   0.446   4.784   1.211  3.7806  1.3830  0.8588
11180TIP3    H254956   0.449   4.718   1.075 -2.0048  0.4116  0.9733
11181TIP3   OH254957   2.277   0.708   4.370  0.3899  0.0177 -0.0510
11181TIP3    H154958   2.333   0.670   4.303 -0.3894  0.7521 -1.1493
11181TIP3    H254959   2.218   0.767   4.323 -0.8807 -0.2323  1.1347
11182TIP3   OH254960   0.952   3.404   3.311 -0.6147 -0.2990  0.8452
11182TIP3    H154961   0.899   3.357   3.376 -0.9944 -0.4509  0.4397
11182TIP3    H254962   0.906   3.388   3.228  0.9843 -1.8667  0.1998
11183TIP3   OH254963   3.086   3.321  14.317 -0.8263  0.0977  0.0115
11183TIP3    H154964   3.006   3.363  14.287 -0.4462 -0.3045 -1.7182
11183TIP3    H254965   3.063   3.228  14.322 -0.7354  0.0989  0.4980
11184TIP3   OH254966   5.101   0.267  11.823  0.2058  0.2985 -0.3380
11184TIP3    H154967   5.039   0.241  11.891  0.7167  1.1940  0.5020
11184TIP3    H254968   5.047   0.298  11.751 -0.3319  0.3459  0.0806
11185TIP3   OH254969   4.866   0.834  10.757  0.1672  0.0413  0.3234
11185TIP3    H154970   4.824   0.910  10.717  0.9374  0.0993 -0.3901
11185TIP3    H254971   4.812   0.815  10.834 -1.4410 -0.1714 -0.8043
11186TIP3   OH254972   2.275   3.279   3.669  0.1995 -0.2003  0.2130
11186TIP3    H154973   2.287   3.365   3.710  0.8823  0.6636 -1.6951
11186TIP3    H254974   2.182   3.277   3.645  0.1548 -0.0645  0.3685
11187TIP3   OH254975   1.372   1.193   4.141  0.2019  0.1228  0.0080
11187TIP3    H154976   1.457   1.233   4.156  0.5972 -0.6950 -0.0146
11187TIP3    H254977   1.365   1.186   4.046  0.5587 -0.7385  0.0361
11188TIP3   OH254978   2.467   4.551   1.556 -1.0307  0.1656  0.4128
11188TIP3    H154979   2.511   4.498   1.622 -0.3866 -2.3462 -1.8644
11188TIP3    H254980   2.379   4.513   1.549 -1.6495  1.4510  0.8962
11189TIP3   OH254981   6.573   6.174  14.911  0.4554 -0.0313  0.6456
11189TIP3    H154982   6.579   6.232  14.987  1.1929  1.3796 -0.4604
11189TIP3    H254983   6.479   6.164  14.896  0.2548  2.7040 -0.4506
11190TIP3   OH254984   2.404   6.301   1.780  0.6481 -0.0155  0.0955
11190TIP3    H154985   2.387   6.395   1.771 -0.4433 -0.2492 -0.4322
11190TIP3    H254986   2.495   6.290   1.750  0.4202  0.7154 -0.9039
11191TIP3   OH254987   1.575   1.248  10.396 -0.8623 -0.1869  0.3966
11191TIP3    H154988   1.665   1.266  10.422  0.7845 -2.8082 -2.7438
11191TIP3    H254989   1.540   1.193  10.467  0.2974  0.1539  1.2673
11192TIP3   OH254990   5.871   3.690  13.364 -0.2786  0.2314  0.5857
11192TIP3    H154991   5.829   3.606  13.380 -0.3813  0.8910  5.3097
11192TIP3    H254992   5.799   3.754  13.366  0.0840  0.6920 -0.3338
11193TIP3   OH254993   3.730   5.523   0.858 -0.5674 -0.6117  0.1297
11193TIP3    H154994   3.777   5.601   0.831  2.8179 -2.9100 -1.3605
11193TIP3    H254995   3.756   5.509   0.949 -1.2244 -0.0063  0.4155
11194TIP3   OH254996   6.733   4.900  15.535 -0.5144  0.0735 -0.0240
11194TIP3    H154997   6.768   4.988  15.521 -1.8332  0.6555  0.1892
11194TIP3    H254998   6.645   4.915  15.571 -0.8267 -1.3265 -0.1709
11195TIP3   OH254999   3.606   3.184  15.988 -0.3445  0.0016 -0.1522
11195TIP3    H155000   3.543   3.113  15.977 -0.5315  0.4078 -2.1311
11195TIP3    H255001   3.593   3.239  15.911  2.2146  0.2955 -0.4557
11196TIP3   OH255002   0.911   4.915   2.653 -0.1150 -0.0462 -0.3200
11196TIP3    H155003   0.978   4.879   2.710  2.2133  1.7841 -1.7110
11196TIP3    H255004   0.870   4.984   2.704  0.5722  0.2594 -0.1772
11197TIP3   OH255005   2.087   4.007  10.555  0.3422  0.3412 -0.0220
11197TIP3    H155006   2.042   3.964  10.483  0.4383  0.6793 -0.2881
11197TIP3    H255007   2.018   4.060  10.597  0.1115 -0.4374  0.6040
11198TIP3   OH255008   3.079   1.916   0.864  0.0176  0.5167 -0.8561
11198TIP3    H155009   3.101   2.002   0.829  0.7829  0.6334 -0.1247
11198TIP3    H255010   3.144   1.901   0.934  0.1200 -0.7903 -1.2010
11199TIP3   OH255011   6.530   1.379  12.881  0.1586 -0.0504 -0.2669
11199TIP3    H155012   6.518   1.451  12.943  0.2740 -1.8643  2.0081
11199TIP3    H255013   6.610   1.335  12.910 -1.4863 -2.8518  0.4232
11200TIP3   OH255014   5.017   1.690  12.266  0.0032 -0.6226  0.1407
11200TIP3    H155015   5.086   1.752  12.291 -0.2350 -0.6024  0.7572
11200TIP3    H255016   5.007   1.633  12.341 -2.0431  0.6192  0.9093
11201TIP3   OH255017   3.828   1.321  16.622  0.0192  0.8308 -0.5420
11201TIP3    H155018   3.744   1.310  16.578  0.4499  0.3187 -1.2541
11201TIP3    H255019   3.834   1.248  16.683 -0.0828  0.9097 -0.4376
11202TIP3   OH255020   5.127   0.719   1.996  0.3064 -0.2374 -0.5758
11202TIP3    H155021   5.105   0.640   1.946  2.0017 -0.6062 -0.8028
11202TIP3    H255022   5.150   0.784   1.931  1.7399 -0.4748 -0.3520
11203TIP3   OH255023   1.837   5.037   2.439  0.0281  0.1618 -0.1910
11203TIP3    H155024   1.792   5.098   2.498 -1.9510 -0.7072 -0.7124
11203TIP3    H255025   1.873   5.093   2.370 -2.8519  0.7607 -1.3677
11204TIP3   OH255026   0.452   1.565  15.438  0.2303 -0.2095  0.7285
11204TIP3    H155027   0.442   1.602  15.525  1.6211 -0.1344  0.8756
11204TIP3    H255028   0.533   1.514  15.442  0.1553 -0.4552 -0.4279
11205TIP3   OH255029   0.824   4.682  16.371  0.3147  0.2207 -0.0270
11205TIP3    H155030   0.846   4.600  16.415  0.1467  0.3964  0.3914
11205TIP3    H255031   0.863   4.750  16.426  1.4617  0.3727 -0.9971
11206TIP3   OH255032   5.600   2.067  11.359  0.0971  0.3984  0.5189
11206TIP3    H155033   5.554   2.013  11.424  1.0075 -1.5699 -0.3826
11206TIP3    H255034   5.663   2.117  11.410  1.1442 -1.4842  1.1891
11207TIP3   OH255035   5.539   0.325   1.093  0.0000  0.3182  0.4168
11207TIP3    H155036   5.541   0.418   1.070  2.2377  0.6476  1.6121
11207TIP3    H255037   5.631   0.302   1.108 -0.3336 -2.5020 -1.2563
11208TIP3   OH255038   4.368   6.183   0.239  0.2099  0.0589 -0.2197
11208TIP3    H155039   4.446   6.229   0.270 -0.5015  1.1783 -0.0444
11208TIP3    H255040   4.300   6.206   0.302 -0.0051 -1.8817  0.3346
11209TIP3   OH255041   4.383   3.037   2.753  0.5373  0.4743  0.2981
11209TIP3    H155042   4.348   3.125   2.770  1.7432  0.8958  0.6668
11209TIP3    H255043   4.395   2.999   2.840 -0.5497 -0.3138  0.1307
11210TIP3   OH255044   0.284   0.333   5.807 -0.4595  0.1169  0.0265
11210TIP3    H155045   0.374   0.301   5.809 -0.8666 -1.0804  1.7779
11210TIP3    H255046   0.266   0.358   5.898 -1.7205  0.8497 -0.4083
11211TIP3   OH255047   0.892   6.052  16.568 -0.0010 -0.4457  0.4799
11211TIP3    H155048   0.857   6.034  16.481  0.4855 -0.1389  0.2188
11211TIP3    H255049   0.815   6.072  16.621 -0.0739  2.9203 -0.7012
11212TIP3   OH255050   1.955   3.515   0.390  0.9294  0.2629 -0.4531
11212TIP3    H155051   1.975   3.504   0.297  0.6517  2.6021 -0.8386
11212TIP3    H255052   2.038   3.498   0.434  0.8127 -2.0107 -0.9581
11213TIP3   OH255053   2.248   2.926   6.633  0.0505  0.6911  0.6353
11213TIP3    H155054   2.217   2.975   6.709  0.0976  0.8561  0.5491
11213TIP3    H255055   2.330   2.887   6.661 -0.8319 -0.7840  1.2821
11214TIP3   OH255056   5.844   2.169  14.954  0.3972 -0.4074  0.3611
11214TIP3    H155057   5.781   2.188  15.024 -2.1338 -0.4781 -1.7629
11214TIP3    H255058   5.895   2.249  14.945 -0.5793  0.3081  0.9855
11215TIP3   OH255059   0.974   4.677   0.583 -0.1132  0.1964  0.2986
11215TIP3    H155060   0.907   4.744   0.572 -0.7883 -0.5668 -0.3578
11215TIP3    H255061   0.967   4.651   0.675  2.3318  3.2384  1.5238
11216TIP3   OH255062   5.126   1.380   4.669  0.0125 -0.6233  0.0766
11216TIP3    H155063   5.150   1.365   4.761 -0.0394  0.4814  0.2739
11216TIP3    H255064   5.031   1.367   4.667 -0.1031  0.1829  0.3470
11217TIP3   OH255065   0.736   2.637  16.955 -0.8257  0.6054 -0.5400
11217TIP3    H155066   0.685   2.716  16.934 -2.5414 -0.5726 -1.0219
11217TIP3    H255067   0.818   2.671  16.991 -2.6769  2.6609  2.1972
11218TIP3   OH255068   3.787   4.808  13.905  0.0793  0.1986 -0.0217
11218TIP3    H155069   3.880   4.828  13.908 -0.0482  1.0383 -1.0466
11218TIP3    H255070   3.771   4.782  13.814 -0.4548 -1.1786  0.4364
11219TIP3   OH255071   3.121   3.884   1.957 -0.2618  0.0456  0.3578
11219TIP3    H155072   3.210   3.916   1.973 -0.0934  0.1578 -0.7588
11219TIP3    H255073   3.075   3.904   2.038  0.7199  0.0033  0.9481
11220TIP3   OH255074   0.981   0.436  11.560  0.0623  0.0605  0.1466
11220TIP3    H155075   0.925   0.497  11.609  0.9282  0.3520  0.8093
11220TIP3    H255076   1.008   0.486  11.483 -0.0795  0.1406  0.1467
11221TIP3   OH255077   0.182   5.765  16.389 -0.0485  0.0732 -0.2723
11221TIP3    H155078   0.270   5.794  16.363  0.0151  1.0616  0.9468
11221TIP3    H255079   0.162   5.693  16.330  1.1034  0.5958 -1.3449
11222TIP3   OH255080   1.088   4.170  12.675 -0.2632  0.0399 -0.5503
11222TIP3    H155081   1.154   4.177  12.607 -0.1723  0.3760 -0.4317
11222TIP3    H255082   1.050   4.083  12.664  1.3100 -0.7986  0.4023
11223TIP3   OH255083   5.112   3.811  11.937  0.3302  0.2619 -0.5201
11223TIP3    H155084   5.026   3.824  11.897  0.3745  2.4964 -0.0237
11223TIP3    H255085   5.170   3.790  11.864 -0.3380  0.3123 -1.0703
11224TIP3   OH255086   0.573   5.263  13.589 -0.5004  0.1994 -0.4677
11224TIP3    H155087   0.533   5.182  13.559 -0.8132 -1.0886  3.0228
11224TIP3    H255088   0.654   5.236  13.633 -0.6829  1.7005  0.8984
11225TIP3   OH255089   6.274   1.916  15.037  0.2476  0.6527  0.1672
11225TIP3    H155090   6.296   2.003  15.069 -0.0569  0.9582 -0.4395
11225TIP3    H255091   6.304   1.915  14.946  0.9959 -0.1645  0.4087
11226TIP3   OH255092   1.249   3.237  14.174 -0.0685  0.2416  0.0433
11226TIP3    H155093   1.342   3.253  14.192  0.3957 -0.3997 -1.5872
11226TIP3    H255094   1.243   3.143  14.162 -0.9000  0.2985 -0.0036
11227TIP3   OH255095   0.853   4.838   5.277 -0.0825 -0.3366 -0.2524
11227TIP3    H155096   0.874   4.793   5.196 -0.4588  0.9943 -1.1316
11227TIP3    H255097   0.855   4.770   5.344  0.9155 -1.3405 -1.2564
11228TIP3   OH255098   4.393   3.076   0.262 -0.0117 -0.3503  0.0223
11228TIP3    H155099   4.359   3.016   0.195  0.1308 -0.7127  0.2717
11228TIP3    H255100   4.315   3.102   0.312  0.0985 -1.4363  0.7984
11229TIP3   OH255101   5.345   5.819  14.683 -0.0872  0.2404 -0.3787
11229TIP3    H155102   5.353   5.765  14.762 -0.7367  0.8307  0.1083
11229TIP3    H255103   5.389   5.769  14.615 -0.1108 -0.5980  0.2040
11230TIP3   OH255104   5.672   5.300  12.960  0.8536 -0.5779 -0.4743
11230TIP3    H155105   5.621   5.371  12.920  0.7982 -0.4757 -0.2256
11230TIP3    H255106   5.740   5.280  12.896  1.5047  0.4103 -0.1152
11231TIP3   OH255107   0.336   0.673  11.273  0.2847 -0.1243  0.6287
11231TIP3    H155108   0.327   0.757  11.227  1.5952  0.6174  1.6412
11231TIP3    H255109   0.247   0.642  11.285 -0.1488  0.3633 -1.1085
11232TIP3   OH255110   6.040   5.015   1.340  0.4335  0.1136 -1.0921
11232TIP3    H155111   6.116   4.962   1.365 -0.7541 -1.0318  0.2219
11232TIP3    H255112   6.070   5.063   1.263  1.8551 -1.7947 -1.8178
11233TIP3   OH255113   0.449   2.130  11.799 -0.3036 -0.5930 -0.4545
11233TIP3    H155114   0.398   2.186  11.857 -0.9448 -1.1815 -0.4364
11233TIP3    H255115   0.466   2.183  11.722  1.1716  0.4563  0.5351
11234TIP3   OH255116   5.518   4.107   2.552 -0.1910 -0.0309 -0.3972
11234TIP3    H155117   5.540   4.071   2.466  1.7641 -0.4884  0.2411
11234TIP3    H255118   5.538   4.036   2.614  1.3944  1.2607  0.6737
11235TIP3   OH255119   2.515   3.572  16.611 -0.6575  0.1887 -0.0764
11235TIP3    H155120   2.532   3.527  16.529  0.2200 -0.7490  0.6091
11235TIP3    H255121   2.425   3.604  16.602 -0.8786 -0.6684 -1.0381
11236TIP3   OH255122   2.033   0.542  12.768 -0.1153 -0.1648 -0.2679
11236TIP3    H155123   2.109   0.558  12.712  0.6795 -0.9323  0.5563
11236TIP3    H255124   1.961   0.528  12.707  0.3671  0.7168 -1.0621
11237TIP3   OH255125   2.232   1.393  10.608 -0.7569  0.3539 -1.3099
11237TIP3    H155126   2.282   1.397  10.526  0.8665 -2.2265 -0.5875
11237TIP3    H255127   2.282   1.447  10.669 -0.5406  0.2404 -1.3843
11238TIP3   OH255128   3.115   0.469   5.586  0.2506  0.4535  0.2958
11238TIP3    H155129   3.124   0.435   5.675  0.7141 -0.6354 -0.1512
11238TIP3    H255130   3.032   0.518   5.587 -0.6870 -1.0670  0.8643
11239TIP3   OH255131   3.967   6.091  11.231  0.2391 -0.0815  0.2374
11239TIP3    H155132   4.027   6.020  11.209 -0.7110 -0.3849 -1.5876
11239TIP3    H255133   4.004   6.168  11.188 -0.8573 -0.3770 -1.3703
11240TIP3   OH255134   5.126   4.773   3.782  0.0303 -0.6007 -0.4773
11240TIP3    H155135   5.165   4.700   3.830 -0.9809 -0.3388  0.7723
11240TIP3    H255136   5.195   4.839   3.780  0.0234 -0.5234  0.8515
11241TIP3   OH255137   5.455   1.111  13.129  0.2678  0.3585  0.2675
11241TIP3    H155138   5.366   1.085  13.104 -0.6240  2.9858  0.4299
11241TIP3    H255139   5.496   1.140  13.048  1.6295 -2.2978 -0.1103
11242TIP3   OH255140   6.032   0.666   1.777  0.3260 -0.2495  0.4529
11242TIP3    H155141   6.021   0.757   1.808 -1.0035 -0.6929  1.3913
11242TIP3    H255142   6.113   0.668   1.726 -0.4032  1.7794 -0.7609
11243TIP3   OH255143   6.240   5.745   0.757 -0.0853  0.1332 -0.0925
11243TIP3    H155144   6.145   5.737   0.762  0.0883 -1.5306  1.5799
11243TIP3    H255145   6.266   5.778   0.843  0.8822  0.2674 -0.4256
11244TIP3   OH255146   0.768   1.992  11.796  0.2525  0.0070  0.0019
11244TIP3    H155147   0.770   1.915  11.739 -0.0607  0.2331 -0.3207
11244TIP3    H255148   0.676   2.019  11.796  0.5215  0.9485 -0.6502
11245TIP3   OH255149   1.527   2.643  13.841 -0.6084  0.6202  0.4720
11245TIP3    H155150   1.577   2.653  13.760 -1.0243  3.4784  0.4733
11245TIP3    H255151   1.449   2.593  13.815  1.4076 -2.7316  0.2116
11246TIP3   OH255152   4.636   3.773   1.248  0.4748 -0.2699  0.2638
11246TIP3    H155153   4.603   3.862   1.264 -1.2482 -1.0871  1.6330
11246TIP3    H255154   4.627   3.760   1.154  1.0208  1.0933  0.0015
11247TIP3   OH255155   1.856   5.049  11.471 -0.2478  0.2999  0.0620
11247TIP3    H155156   1.947   5.048  11.441 -0.0470  0.0866  0.6709
11247TIP3    H255157   1.828   5.140  11.459  0.3871  0.6098  0.8912
11248TIP3   OH255158   3.172   0.955  13.397  0.0064 -0.3899 -0.5913
11248TIP3    H155159   3.109   0.946  13.469  0.2419 -1.2528 -0.4826
11248TIP3    H255160   3.117   0.970  13.320 -0.1966  1.9309 -0.0463
11249TIP3   OH255161   3.685   5.613  14.556 -0.5954  0.6570 -0.1212
11249TIP3    H155162   3.601   5.631  14.516 -0.2718  1.9244 -0.2969
11249TIP3    H255163   3.712   5.698  14.593 -0.7307 -0.3502  2.5012
11250TIP3   OH255164   2.275   5.344  13.414  0.2239  0.0376 -0.9755
11250TIP3    H155165   2.180   5.351  13.419  0.2663  0.9453 -1.2101
11250TIP3    H255166   2.296   5.368  13.324  0.6305 -0.7286 -1.0849
11251TIP3   OH255167   2.759   5.719  12.034  0.3822  0.0309 -0.7066
11251TIP3    H155168   2.808   5.745  11.957 -1.4913  1.3446 -1.5302
11251TIP3    H255169   2.688   5.664  12.000 -1.1392  1.5494 -0.1374
11252TIP3   OH255170   6.735   4.383   6.010 -0.1323  0.0465  0.7625
11252TIP3    H155171   6.683   4.318   5.965  0.6861 -0.8683  1.0968
11252TIP3    H255172   6.767   4.338   6.089  2.7612 -0.1233 -0.3802
11253TIP3   OH255173   5.019   1.143   5.505 -0.1652  0.1444 -0.9410
11253TIP3    H155174   5.105   1.168   5.471 -0.3217  1.9739 -0.0736
11253TIP3    H255175   5.032   1.055   5.542  2.0620  1.4302  1.6658
11254TIP3   OH255176   2.117   1.300  14.843 -0.2726  0.8438 -0.2533
11254TIP3    H155177   2.163   1.218  14.824 -0.5630  1.0497 -1.9873
11254TIP3    H255178   2.024   1.275  14.844 -0.3156  1.0095  0.0726
11255TIP3   OH255179   4.782   1.331   2.055  0.0141 -0.0132 -0.3141
11255TIP3    H155180   4.842   1.290   1.993 -0.2159 -0.4357 -0.2609
11255TIP3    H255181   4.774   1.421   2.024  1.2800  0.2728  0.1410
11256TIP3   OH255182   0.820   3.825  16.847  0.4854 -0.3027  0.2224
11256TIP3    H155183   0.892   3.848  16.788 -0.0403  2.8239  0.6540
11256TIP3    H255184   0.741   3.841  16.795  0.0493 -1.0586  0.6344
11257TIP3   OH255185   1.185   3.092  11.296  0.6097 -0.0969  0.3341
11257TIP3    H155186   1.220   3.007  11.323  1.6893  0.2097 -0.0534
11257TIP3    H255187   1.090   3.081  11.300  0.7319 -1.3426  0.2271
11258TIP3   OH255188   3.502   4.891  16.406  0.0901  0.1718 -0.4335
11258TIP3    H155189   3.455   4.962  16.362  0.6997  1.1551  0.4559
11258TIP3    H255190   3.439   4.820  16.410 -0.7587  0.8817 -0.7660
11259TIP3   OH255191   0.814   1.575  13.807 -0.5593  0.2028  0.1299
11259TIP3    H155192   0.802   1.485  13.839  1.7997  0.2069  1.2532
11259TIP3    H255193   0.819   1.628  13.887 -1.0051  1.1991 -0.4911
11260TIP3   OH255194   6.152   3.932  13.673  0.5489 -0.0099 -0.4565
11260TIP3    H155195   6.155   3.866  13.742  2.7023  0.3154 -0.1776
11260TIP3    H255196   6.111   4.008  13.714  0.4102 -0.3305  0.0010
11261TIP3   OH255197   6.148   0.846  12.926  0.2379 -1.1105  0.3061
11261TIP3    H155198   6.077   0.857  12.989  1.6432  2.3049  1.5582
11261TIP3    H255199   6.222   0.815  12.977  1.8471  3.1599  0.9987
11262TIP3   OH255200   4.555   1.070  12.445  0.0252  0.0069  0.4833
11262TIP3    H155201   4.579   0.997  12.502  0.3236  0.3167  0.7501
11262TIP3    H255202   4.633   1.125  12.441 -0.7486  1.2700  1.7393
11263TIP3   OH255203   3.351   3.455  13.559  0.1881  0.1908 -0.3109
11263TIP3    H155204   3.388   3.440  13.472 -1.5925 -0.7108 -0.9647
11263TIP3    H255205   3.413   3.414  13.619  1.9402  1.6591 -1.0339
11264TIP3   OH255206   3.345   6.131   3.951  0.1471  0.0517 -0.7647
11264TIP3    H155207   3.426   6.182   3.953 -1.6734  3.1669 -0.0301
11264TIP3    H255208   3.328   6.111   4.043 -1.0510  1.4805 -0.6431
11265TIP3   OH255209   4.903   5.888  15.622 -0.4097  0.4638 -0.2185
11265TIP3    H155210   4.993   5.920  15.610 -0.8688  1.0386 -2.9625
11265TIP3    H255211   4.901   5.853  15.711  2.5286  0.3996 -0.0865
11266TIP3   OH255212   0.141   6.207   3.845 -0.0818  0.4914  0.2082
11266TIP3    H155213   0.108   6.197   3.935  1.8568 -0.3703  0.8810
11266TIP3    H255214   0.188   6.126   3.828 -0.2635  0.7195 -1.5596
11267TIP3   OH255215   1.571   3.920   1.660 -0.4800 -0.1178 -0.6967
11267TIP3    H155216   1.536   3.901   1.573  1.9828  0.8676 -1.9916
11267TIP3    H255217   1.641   3.983   1.645  1.0432 -1.0486  1.8342
11268TIP3   OH255218   5.650   2.218  16.388  0.3179  0.5256  0.1563
11268TIP3    H155219   5.599   2.264  16.321 -1.2257 -2.4645 -0.9197
11268TIP3    H255220   5.735   2.203  16.347  0.3769  1.1843  0.0198
11269TIP3   OH255221   3.603   0.289   1.790  0.4313  0.5962  0.1967
11269TIP3    H155222   3.657   0.226   1.742  0.6266  1.2326 -0.4360
11269TIP3    H255223   3.516   0.251   1.789  0.0191  1.4107 -2.2700
11270TIP3   OH255224   1.016   0.159   0.577  0.0875 -0.1760  0.1947
11270TIP3    H155225   0.945   0.162   0.641  1.5091  0.0059  1.8403
11270TIP3    H255226   1.094   0.183   0.626  1.2623 -0.0270 -1.6315
11271TIP3   OH255227   4.970   0.404   3.869 -0.5630  0.6640 -0.2367
11271TIP3    H155228   4.955   0.441   3.782  0.9473 -0.9362 -1.2676
11271TIP3    H255229   4.934   0.468   3.929  1.8197  3.7905 -1.8494
11272TIP3   OH255230   5.458   3.864   2.014  0.3301 -0.3278 -0.4732
11272TIP3    H155231   5.395   3.878   1.942  1.7196  0.1242 -1.6454
11272TIP3    H255232   5.541   3.845   1.970  1.0017 -1.0687  1.0463
11273TIP3   OH255233   4.150   0.232  13.333 -0.4756 -0.2742  0.2139
11273TIP3    H155234   4.192   0.210  13.416 -0.9245 -1.1097  0.2371
11273TIP3    H255235   4.081   0.294  13.356 -2.0249 -2.1317  0.8181
11274TIP3   OH255236   0.030   5.387   5.892 -0.0184 -0.6295 -0.8195
11274TIP3    H155237   0.026   5.482   5.878 -0.8028 -0.5279  0.0294
11274TIP3    H255238   0.099   5.376   5.957 -0.0241 -0.6339 -0.8142
11275TIP3   OH255239   1.663   5.576  12.259 -0.3215  0.2335 -0.2637
11275TIP3    H155240   1.739   5.525  12.286  0.0255  1.4189  1.1629
11275TIP3    H255241   1.690   5.619  12.178 -0.8388 -2.2368 -1.8346
11276TIP3   OH255242   3.459   3.565   4.271 -0.2906 -0.4307 -0.1901
11276TIP3    H155243   3.509   3.484   4.278  0.7010  0.0426 -1.4145
11276TIP3    H255244   3.414   3.558   4.186 -0.1923  0.3032 -0.3054
11277TIP3   OH255245   0.252   3.398  14.136  0.3061 -0.0697 -0.2825
11277TIP3    H155246   0.169   3.372  14.095  0.2551  0.2056 -0.3551
11277TIP3    H255247   0.266   3.487  14.106  1.8297 -0.8762 -2.1983
11278TIP3   OH255248   4.772   2.769   0.459 -0.2886 -0.1093  0.4126
11278TIP3    H155249   4.760   2.692   0.403 -1.9398 -0.1033  0.7075
11278TIP3    H255250   4.795   2.732   0.544  3.3703 -0.0908 -0.4073
11279TIP3   OH255251   6.573   2.360   2.817 -0.0905  0.0976  0.1505
11279TIP3    H155252   6.490   2.353   2.863 -0.2595 -0.3767 -0.2180
11279TIP3    H255253   6.634   2.393   2.883 -0.3132 -0.6530  0.7451
11280TIP3   OH255254   0.056   6.707   2.902 -0.2813  0.5859 -0.2344
11280TIP3    H155255   0.044   6.742   2.814 -0.6355  0.9407 -0.0550
11280TIP3    H255256   0.063   6.613   2.891  0.3927  0.6895 -0.7069
11281TIP3   OH255257   1.598   4.269  12.159  0.1926  0.4746  0.5045
11281TIP3    H155258   1.516   4.289  12.204  0.0464 -0.0375  0.4717
11281TIP3    H255259   1.571   4.229  12.077  0.4658  1.1055  0.0981
11282TIP3   OH255260   6.145   1.398   3.617 -0.1223 -0.0677  0.3604
11282TIP3    H155261   6.214   1.434   3.675 -0.3787  0.9368  0.0612
11282TIP3    H255262   6.120   1.316   3.659  0.5178  0.0719  1.0525
11283TIP3   OH255263   6.646   1.940  12.736  0.2742  0.2977  0.1687
11283TIP3    H155264   6.595   1.972  12.661 -3.5211  1.8226  3.1140
11283TIP3    H255265   6.650   2.013  12.796  2.7077 -1.0453  1.8185
11284TIP3   OH255266   4.423   5.185  13.324 -0.5932 -0.3634  0.0977
11284TIP3    H155267   4.380   5.121  13.268 -0.8340  0.6911 -0.9522
11284TIP3    H255268   4.416   5.268  13.277 -0.5231  0.5054  1.5353
11285TIP3   OH255269   0.009   5.229   1.567  0.9987  0.4244  0.6690
11285TIP3    H155270  -0.026   5.180   1.641 -0.2345 -3.0136 -1.9488
11285TIP3    H255271  -0.014   5.320   1.586 -1.4591 -0.5947  3.3251
11286TIP3   OH255272   1.229   2.959  13.181  0.1023  0.1539  0.2050
11286TIP3    H155273   1.188   3.022  13.239 -0.3472 -0.5125  0.6272
11286TIP3    H255274   1.189   2.975  13.095 -2.3158 -1.5225  0.9064
11287TIP3   OH255275   5.876   2.792   1.709  0.3695  0.1430  0.2030
11287TIP3    H155276   5.935   2.860   1.741  0.1438  0.3989  0.0735
11287TIP3    H255277   5.842   2.751   1.788  0.9179 -0.1757  0.2772
11288TIP3   OH255278   4.661   3.264   4.673 -0.2021 -0.0019 -0.3635
11288TIP3    H155279   4.686   3.210   4.598 -0.9134  0.7107 -1.1410
11288TIP3    H255280   4.565   3.260   4.675 -0.1651 -0.7575  1.0856
11289TIP3   OH255281   2.767   2.024  16.797 -0.2163 -0.0549 -0.0260
11289TIP3    H155282   2.745   2.100  16.744 -0.4623 -0.1675 -0.0861
11289TIP3    H255283   2.799   2.060  16.880 -2.8429  0.1518  1.0131
11290TIP3   OH255284   4.962   4.102   1.291  0.3710  0.5554 -0.8855
11290TIP3    H155285   5.047   4.070   1.319  1.2419  0.8128 -3.0658
11290TIP3    H255286   4.979   4.190   1.257 -0.5411  0.1581 -2.4320
11291TIP3   OH255287   1.914   1.916  17.243  0.4747  0.2116  0.2304
11291TIP3    H155288   1.844   1.936  17.305  1.0667  2.8106  0.1776
11291TIP3    H255289   1.995   1.921  17.294  0.8716  0.8971 -0.4447
11292TIP3   OH255290   1.230   2.927   2.609 -0.0314 -0.2110 -0.2739
11292TIP3    H155291   1.302   2.979   2.647 -1.6520  3.4165 -1.7053
11292TIP3    H255292   1.199   2.874   2.682  1.7425  0.9026  1.4082
11293TIP3   OH255293   4.244   0.679   2.319  0.7184  0.2481  0.0577
11293TIP3    H155294   4.302   0.730   2.375 -0.5676  0.5004  1.2390
11293TIP3    H255295   4.247   0.723   2.234  2.6190 -0.0632 -0.0759
11294TIP3   OH255296   2.024   1.905   3.637  0.1309  0.4507  0.1490
11294TIP3    H155297   2.089   1.836   3.648 -0.1503  0.3392  1.2852
11294TIP3    H255298   2.075   1.986   3.633  0.3445  0.3820  1.2178
11295TIP3   OH255299   4.236   0.843  12.764  0.2821  0.8719  0.7273
11295TIP3    H155300   4.232   0.814  12.673 -3.1135 -0.0472  1.0510
11295TIP3    H255301   4.308   0.793  12.802 -0.0422 -0.8296 -0.7798
11296TIP3   OH255302   0.288   0.407   4.621 -0.2267 -0.0558  0.2926
11296TIP3    H155303   0.250   0.431   4.537 -0.1514 -1.1533 -0.0699
11296TIP3    H255304   0.236   0.455   4.685 -1.8934 -1.0904 -0.2264
11297TIP3   OH255305   0.203   1.018   2.545  0.5595  0.2599 -0.2249
11297TIP3    H155306   0.240   1.080   2.483  1.9824  0.1915  0.5224
11297TIP3    H255307   0.186   0.939   2.494  0.0122  0.7948 -0.8893
11298TIP3   OH255308   1.117   3.336   5.812 -0.5728  0.0191 -0.2871
11298TIP3    H155309   1.131   3.243   5.830  0.0149  0.1913  0.1437
11298TIP3    H255310   1.072   3.369   5.890  0.5196  0.4096  0.1885
11299TIP3   OH255311   2.620   1.344  11.352  0.2466 -0.0282  0.1091
11299TIP3    H155312   2.558   1.409  11.319  0.2709  0.7569  1.5450
11299TIP3    H255313   2.705   1.370  11.317  0.0729 -0.0025 -0.2999
11300TIP3   OH255314   5.488   0.746  14.566 -0.0578 -0.4297  0.2394
11300TIP3    H155315   5.471   0.681  14.497 -2.3013 -2.5696  2.5759
11300TIP3    H255316   5.490   0.695  14.647 -0.7680  2.2973  2.1288
11301TIP3   OH255317   2.504   1.371   3.375  0.2823 -0.1984  0.3687
11301TIP3    H155318   2.479   1.352   3.465 -3.4763  1.6031 -0.1277
11301TIP3    H255319   2.591   1.412   3.383  0.2277 -0.4032  3.0997
11302TIP3   OH255320   4.644   1.985   2.163 -0.5207  0.0647  0.2619
11302TIP3    H155321   4.628   1.975   2.069 -0.9125 -2.3453  0.5111
11302TIP3    H255322   4.563   2.022   2.197 -0.5736  0.4568 -0.2697
11303TIP3   OH255323   4.893   4.584   2.837 -0.1152 -0.1249 -0.1370
11303TIP3    H155324   4.963   4.638   2.874  0.5540 -0.1402 -1.3447
11303TIP3    H255325   4.834   4.647   2.796  0.2061 -0.2320 -0.7808
11304TIP3   OH255326   3.241   4.879   6.348  0.4376  0.7244 -0.3592
11304TIP3    H155327   3.157   4.864   6.391  0.6590  0.8010  0.1072
11304TIP3    H255328   3.284   4.946   6.402  0.1144  1.8919 -1.5159
11305TIP3   OH255329   1.538   6.745  15.414 -0.2265 -0.0585 -0.0441
11305TIP3    H155330   1.614   6.771  15.363  1.6358  2.3547  3.4979
11305TIP3    H255331   1.567   6.668  15.463 -1.8119 -2.0400 -2.0246
11306TIP3   OH255332   3.146   4.842  13.379 -0.3682 -0.6105  0.2598
11306TIP3    H155333   3.079   4.807  13.437 -0.4627 -1.0479 -0.1061
11306TIP3    H255334   3.159   4.774  13.313 -1.0680  0.3219 -0.8761
11307TIP3   OH255335   0.511   4.355   2.654  0.1700 -0.1370  0.1640
11307TIP3    H155336   0.421   4.384   2.637  0.8788  0.9229 -2.2840
11307TIP3    H255337   0.534   4.302   2.579  1.4533 -0.8190  1.0022
11308TIP3   OH255338   5.219   6.437   1.270  0.1154  0.7296  0.6840
11308TIP3    H155339   5.283   6.500   1.238 -0.8883  1.2229 -0.3841
11308TIP3    H255340   5.270   6.357   1.285  1.2330  1.5177  1.2312
11309TIP3   OH255341   4.001   5.716  13.394 -0.0286  0.3800 -0.5110
11309TIP3    H155342   3.932   5.767  13.436  0.1649  0.2265  0.0119
11309TIP3    H255343   3.960   5.681  13.315 -1.0170 -0.8482  0.4727
11310TIP3   OH255344   0.342   1.318   5.768 -0.2893  0.5297 -0.2519
11310TIP3    H155345   0.331   1.318   5.863  0.1817 -0.2142 -0.1907
11310TIP3    H255346   0.296   1.397   5.739  0.6407  1.4661  0.7111
11311TIP3   OH255347   2.684   2.777  14.878  0.3555  0.0699  0.1621
11311TIP3    H155348   2.673   2.803  14.969 -0.1313  0.7453 -0.0897
11311TIP3    H255349   2.699   2.859  14.831  2.3284 -0.4003 -0.1297
11312TIP3   OH255350   1.574   2.115  11.741 -0.1430 -0.1020 -0.3350
11312TIP3    H155351   1.647   2.151  11.789  2.2792 -1.8041 -2.4520
11312TIP3    H255352   1.578   2.157  11.655 -1.2931 -0.6335 -0.6757
11313TIP3   OH255353   4.220   3.581   2.284 -0.2739  0.0324  0.2292
11313TIP3    H155354   4.251   3.587   2.193 -0.9043  0.8395  0.0532
11313TIP3    H255355   4.299   3.587   2.337  0.0169  0.5175 -0.2511
11314TIP3   OH255356   6.180   1.461  11.869 -0.6240  0.2369 -0.0791
11314TIP3    H155357   6.185   1.428  11.780 -0.3037 -1.6106  0.5732
11314TIP3    H255358   6.232   1.542  11.868  1.3419 -0.9714 -1.0597
11315TIP3   OH255359   3.236   4.992  14.598  0.2124  0.2552 -0.4469
11315TIP3    H155360   3.168   4.927  14.613  1.2797 -0.9341 -0.6059
11315TIP3    H255361   3.226   5.018  14.507 -0.3175  0.4498 -0.3362
11316TIP3   OH255362   0.104   3.385   0.733  0.2309 -0.7909  0.3079
11316TIP3    H155363   0.104   3.481   0.736  0.3638 -0.7949  0.4295
11316TIP3    H255364   0.156   3.359   0.808 -0.6689 -0.9764  0.8877
11317TIP3   OH255365   2.475   2.973  12.746  0.5670 -0.8040 -0.1714
11317TIP3    H155366   2.421   2.929  12.811 -1.0548  0.3283 -0.7059
11317TIP3    H255367   2.564   2.943  12.765  0.2560 -0.0669  2.9548
11318TIP3   OH255368   0.183   1.261  14.128  0.4561 -0.1803  0.5330
11318TIP3    H155369   0.210   1.203  14.057 -1.1364  0.1434 -0.3805
11318TIP3    H255370   0.091   1.280  14.110  0.6998  1.9546  1.2760
11319TIP3   OH255371   3.039   0.258   2.800  0.1133 -0.3347 -0.0242
11319TIP3    H155372   2.988   0.193   2.753  1.3501 -2.4624  1.3923
11319TIP3    H255373   3.011   0.250   2.891  0.8428  0.5554  0.2949
11320TIP3   OH255374   1.692   2.502  17.123 -0.5102 -0.4643 -0.1224
11320TIP3    H155375   1.605   2.462  17.127 -0.1049 -1.2967  1.0623
11320TIP3    H255376   1.746   2.446  17.179  1.6965 -2.1996 -3.6704
11321TIP3   OH255377   2.101   5.468  15.426 -0.5412 -0.2942 -0.0703
11321TIP3    H155378   2.063   5.386  15.457  1.1707 -0.7870  0.8310
11321TIP3    H255379   2.138   5.508  15.505  0.0658  0.5674 -0.7700
11322TIP3   OH255380   5.700   0.929   5.192  0.1539  0.0192  0.2965
11322TIP3    H155381   5.794   0.949   5.192  0.0183  0.7178 -0.9983
11322TIP3    H255382   5.694   0.844   5.237  1.3618  0.1306  0.6987
11323TIP3   OH255383   1.092   4.509  11.447 -0.5349  0.4575 -0.5295
11323TIP3    H155384   1.018   4.455  11.477 -1.1572  0.5037 -1.8859
11323TIP3    H255385   1.169   4.453  11.461 -0.3534  1.3816  3.4677
11324TIP3   OH255386   6.356   3.303  16.619  0.1553 -0.3550  0.6392
11324TIP3    H155387   6.443   3.291  16.656  0.5400 -0.2992 -0.2262
11324TIP3    H255388   6.366   3.282  16.526 -0.2540  1.7437  0.0674
11325TIP3   OH255389   4.466   5.073   0.719 -0.0973 -0.1906 -0.2751
11325TIP3    H155390   4.529   5.002   0.732  1.0434  1.0226  1.4852
11325TIP3    H255391   4.469   5.122   0.802 -1.4885  1.3844 -1.0946
11326TIP3   OH255392   0.213   6.548   0.495  0.4771 -0.0937 -0.2328
11326TIP3    H155393   0.122   6.576   0.482  0.7190  1.0355  0.3186
11326TIP3    H255394   0.265   6.617   0.454  1.1005  0.0508  0.7535
11327TIP3   OH255395   5.493   1.347   3.524  0.4251  0.4352  0.7782
11327TIP3    H155396   5.464   1.283   3.459  1.1976  0.8318  0.0180
11327TIP3    H255397   5.438   1.424   3.509  1.1944  0.8484 -0.0306
11328TIP3   OH255398   3.477   2.409   4.759  0.2487 -0.3856  0.1757
11328TIP3    H155399   3.519   2.346   4.701  2.0841  1.3620 -0.4933
11328TIP3    H255400   3.518   2.395   4.844  1.8419  0.9134 -0.3387
11329TIP3   OH255401   4.609   5.372  14.632 -0.0403 -0.3851  0.2278
11329TIP3    H155402   4.610   5.449  14.689  1.2269  0.6667 -1.1321
11329TIP3    H255403   4.528   5.381  14.582  1.7694  2.1825 -2.5369
11330TIP3   OH255404   3.260   0.680   5.519 -0.5854  0.2718 -0.6055
11330TIP3    H155405   3.238   0.744   5.587 -1.7783  0.8799 -1.5082
11330TIP3    H255406   3.221   0.598   5.550 -0.4244  0.3516 -0.1829
11331TIP3   OH255407   3.075   5.407  13.269  0.5106 -0.4663  0.1503
11331TIP3    H155408   3.134   5.396  13.195  1.3768 -0.9687  0.8997
11331TIP3    H255409   2.987   5.401  13.230  0.9395 -0.0224 -0.9229
11332TIP3   OH255410   3.170   2.294   3.677 -0.6418 -0.2055 -0.6887
11332TIP3    H155411   3.233   2.236   3.634 -1.5383 -0.9299 -1.0659
11332TIP3    H255412   3.169   2.266   3.768  0.3887  0.5557 -0.4154
11333TIP3   OH255413   2.361   5.292   5.000  0.0770 -0.3386 -0.0442
11333TIP3    H155414   2.297   5.264   4.935 -0.0466  2.0268 -1.0601
11333TIP3    H255415   2.311   5.299   5.081 -0.3550 -0.8974 -0.2554
11334TIP3   OH255416   1.941   5.672  16.074 -0.2250  0.6135  0.1161
11334TIP3    H155417   1.967   5.618  16.149  0.3371 -0.8253 -1.0713
11334TIP3    H255418   1.862   5.629  16.041  0.6070  0.0760 -1.2461
11335TIP3   OH255419   2.131   0.170   0.108 -1.0452  0.6479 -0.0723
11335TIP3    H155420   2.103   0.128   0.189 -2.4315 -0.6743 -1.1764
11335TIP3    H255421   2.193   0.108   0.069 -0.1585  1.4089  0.0844
11336TIP3   OH255422   3.837   1.817  11.940  0.3709 -0.4829 -0.1797
11336TIP3    H155423   3.847   1.858  12.026  0.8847  0.6910 -0.7693
11336TIP3    H255424   3.923   1.825  11.899 -0.1185 -0.1312 -1.1719
11337TIP3   OH255425   1.369   4.149  16.488 -0.1226  0.2294 -0.0775
11337TIP3    H155426   1.459   4.177  16.507  0.2363  0.0084 -1.3907
11337TIP3    H255427   1.368   4.056  16.511  0.4314 -0.1412 -1.4795
11338TIP3   OH255428   5.580   5.005   3.997 -0.2641  0.4061  0.7295
11338TIP3    H155429   5.666   4.965   4.008 -0.5265 -0.4212 -0.1360
11338TIP3    H255430   5.598   5.098   3.982  0.7397 -0.2119 -2.6485
11339TIP3   OH255431   0.272   5.736   2.506  0.7226 -0.4182  0.1094
11339TIP3    H155432   0.355   5.696   2.534  0.9997  0.6635  0.8829
11339TIP3    H255433   0.234   5.671   2.446  1.6497 -1.3732  0.5091
11340TIP3   OH255434   5.486   0.678   2.797  0.3495  0.0919 -0.2429
11340TIP3    H155435   5.411   0.723   2.758  1.3236  2.5167  0.4988
11340TIP3    H255436   5.471   0.683   2.891  0.9229 -0.3419 -0.1238
11341TIP3   OH255437   3.118   4.791  15.461  0.5616 -0.5522  0.0066
11341TIP3    H155438   3.119   4.709  15.511  1.3168  0.0400  1.0065
11341TIP3    H255439   3.209   4.801  15.431  0.5617  0.1044  0.2209
11342TIP3   OH255440   3.997   2.549  11.683  0.1256 -0.4371  0.1084
11342TIP3    H155441   3.976   2.563  11.775 -0.4201 -0.2149 -0.0458
11342TIP3    H255442   3.917   2.572  11.636  0.5712 -0.0194 -0.4625
11343TIP3   OH255443   1.469   3.990  16.835 -0.6369  0.0557  0.1695
11343TIP3    H155444   1.433   4.036  16.910  0.0501  1.3332 -0.2523
11343TIP3    H255445   1.552   3.953  16.866  0.7803  2.4652 -0.4624
11344TIP3   OH255446   6.536   0.379   1.186 -0.0632 -0.2542 -0.3839
11344TIP3    H155447   6.481   0.354   1.112  0.2746  0.5104 -0.8948
11344TIP3    H255448   6.624   0.349   1.162  0.3029  1.1681 -0.8964
11345TIP3   OH255449   5.124   1.517  11.749 -0.1711 -0.0253  0.6043
11345TIP3    H155450   5.211   1.477  11.742 -0.3782 -0.5663  1.0293
11345TIP3    H255451   5.119   1.577  11.675  0.4687 -0.1781  0.4313
11346TIP3   OH255452   5.740   4.411   1.548 -0.2837  0.1200  0.5531
11346TIP3    H155453   5.657   4.364   1.539  0.2497 -1.2931  2.3652
11346TIP3    H255454   5.791   4.386   1.470 -1.2520  0.4123 -0.1895
11347TIP3   OH255455   6.638   5.960  12.159  0.0677 -0.2592  0.3175
11347TIP3    H155456   6.677   5.988  12.076  1.2644  0.8978  1.2351
11347TIP3    H255457   6.568   6.024  12.175  0.5134  0.1355  0.6999
11348TIP3   OH255458   0.482   6.222  15.679 -0.0372  0.2779 -0.3497
11348TIP3    H155459   0.466   6.255  15.768 -0.4300  2.1034 -1.0606
11348TIP3    H255460   0.542   6.148  15.692 -0.3423  0.2883  1.4525
11349TIP3   OH255461   5.204   2.444  13.086 -0.5888  0.0304 -0.3212
11349TIP3    H155462   5.176   2.363  13.044  3.2291 -1.5052 -0.3375
11349TIP3    H255463   5.219   2.505  13.013  1.4349 -1.0577 -0.9016
11350TIP3   OH255464   4.918   5.284  15.614 -0.4696  0.1316  0.7178
11350TIP3    H155465   4.974   5.256  15.686  0.5309 -0.5864 -0.2993
11350TIP3    H255466   4.966   5.258  15.535 -2.0927 -0.2057 -0.1947
11351TIP3   OH255467   0.295   5.919  13.755  0.0376  0.1656  0.5092
11351TIP3    H155468   0.288   5.936  13.661 -0.3243 -0.4191  0.4254
11351TIP3    H255469   0.371   5.970  13.783 -0.0530  0.6132 -0.0346
11352TIP3   OH255470   0.435   1.670   1.830 -0.1038 -0.3298  0.2056
11352TIP3    H155471   0.446   1.705   1.742 -1.8321 -2.3090 -0.8954
11352TIP3    H255472   0.409   1.745   1.883  2.3977  1.1915 -0.5792
11353TIP3   OH255473   6.217   3.008  13.847 -0.2141 -0.5052 -0.0167
11353TIP3    H155474   6.235   3.028  13.755 -0.1881  1.6790  0.4161
11353TIP3    H255475   6.294   3.040  13.895 -0.9048 -0.1733  0.9056
11354TIP3   OH255476   5.147   3.522   6.200  0.1042  0.3070 -0.3853
11354TIP3    H155477   5.170   3.429   6.205 -0.8506  0.0992  1.4910
11354TIP3    H255478   5.083   3.527   6.129  0.2826 -0.4609 -0.6122
11355TIP3   OH255479   5.328   5.915  14.350 -0.5026  0.5152 -0.2237
11355TIP3    H155480   5.411   5.921  14.303  0.0370 -1.2891  0.4128
11355TIP3    H255481   5.264   5.890  14.284 -0.1563  0.0273 -0.3780
11356TIP3   OH255482   2.473   3.030   2.045  0.0348 -0.0787 -0.0850
11356TIP3    H155483   2.527   3.105   2.067  0.1213 -0.3103  0.5124
11356TIP3    H255484   2.513   2.993   1.966  0.3713  0.1246 -0.0094
11357TIP3   OH255485   2.768   0.181  12.453  0.0711 -0.0580  0.2176
11357TIP3    H155486   2.836   0.225  12.402 -0.8611  0.9735 -0.1609
11357TIP3    H255487   2.688   0.194  12.403 -0.4051 -1.3678  0.5972
11358TIP3   OH255488   3.908   5.981  12.412  0.2798 -0.0050 -0.5003
11358TIP3    H155489   3.829   5.968  12.464  0.9739 -0.3179  0.5201
11358TIP3    H255490   3.891   6.059  12.360 -0.6020  0.0741 -0.1050
11359TIP3   OH255491   1.060   2.885   1.041  0.1833  0.6323 -0.0755
11359TIP3    H155492   1.036   2.960   0.986 -1.6723  1.0261  1.1843
11359TIP3    H255493   1.003   2.814   1.012  0.4881  0.3030  0.1203
11360TIP3   OH255494   2.048   3.598   1.263  0.1793 -0.5578  0.5701
11360TIP3    H155495   2.047   3.582   1.168 -1.0104 -0.3915  0.5311
11360TIP3    H255496   1.964   3.562   1.293  0.1144  0.2594  1.4040
11361TIP3   OH255497   4.666   5.361  12.250  0.1923  0.8018 -0.5886
11361TIP3    H155498   4.734   5.336  12.313 -1.8209 -0.7208  1.1599
11361TIP3    H255499   4.665   5.456  12.253  1.1652  0.8110  0.5740
11362TIP3   OH255500   1.928   5.760   1.903 -0.4046  0.1402  0.3999
11362TIP3    H155501   1.852   5.789   1.852 -0.2377 -1.6508 -0.9636
11362TIP3    H255502   1.892   5.701   1.969 -0.4786  1.5359  1.6634
11363TIP3   OH255503   1.653   0.606   0.653  0.1553  0.4124  0.1884
11363TIP3    H155504   1.691   0.661   0.584  1.0061  0.5551  0.7551
11363TIP3    H255505   1.597   0.544   0.606  1.0771  0.2128 -0.6787
11364TIP3   OH255506   2.055   2.446  15.487 -0.2313 -0.0920 -0.1394
11364TIP3    H155507   2.034   2.523  15.540 -0.3763 -0.8646  0.9577
11364TIP3    H255508   2.150   2.445  15.483 -0.1132 -1.1942  1.9356
11365TIP3   OH255509   2.285   1.898   4.812  0.2599 -0.1064 -0.3879
11365TIP3    H155510   2.271   1.839   4.738 -1.5953  0.8763 -0.8912
11365TIP3    H255511   2.244   1.852   4.886 -1.9950  0.8204 -0.9571
11366TIP3   OH255512   2.999   3.719  12.462  0.1124  0.2542 -0.7670
11366TIP3    H155513   2.937   3.706  12.534 -0.1524  1.9516 -0.6490
11366TIP3    H255514   3.013   3.631  12.427  1.6700 -0.9542  2.4890
11367TIP3   OH255515   3.607   2.415  11.683 -0.1456  0.2487  0.1113
11367TIP3    H155516   3.687   2.367  11.663  0.1447  0.8945 -0.2906
11367TIP3    H255517   3.562   2.423  11.599 -2.4518 -3.2610  0.8008
11368TIP3   OH255518   3.163   2.568   2.687 -0.0413  0.8304  0.2572
11368TIP3    H155519   3.118   2.645   2.724 -0.9330 -0.0965  1.1859
11368TIP3    H255520   3.094   2.518   2.645 -0.1244 -1.0321  2.3973
11369TIP3   OH255521   3.544   1.573   4.420 -0.3663  0.0659  0.2466
11369TIP3    H155522   3.478   1.534   4.477 -3.3526  1.8935 -1.6587
11369TIP3    H255523   3.545   1.665   4.444  1.1673  0.1760 -0.1466
11370TIP3   OH255524   1.926   0.860  13.815 -0.6301 -0.3469  0.7359
11370TIP3    H155525   1.902   0.947  13.846  2.2693 -0.2130  3.0556
11370TIP3    H255526   1.932   0.807  13.895 -2.7648 -2.9038 -0.6385
11371TIP3   OH255527   2.476   5.555  11.490  0.2141 -0.4651  0.4439
11371TIP3    H155528   2.404   5.497  11.514 -1.3491  0.6235 -1.2584
11371TIP3    H255529   2.552   5.520  11.534 -1.0952 -2.5114  1.1962
11372TIP3   OH255530   3.789   1.264  12.806  0.1775  0.3823  0.4739
11372TIP3    H155531   3.837   1.184  12.784 -0.9744 -0.1635 -0.1412
11372TIP3    H255532   3.836   1.299  12.882 -0.8212 -2.3046  2.4976
11373TIP3   OH255533   4.955   1.574   0.136 -0.5867 -0.0864 -0.2231
11373TIP3    H155534   4.939   1.481   0.119 -0.5092 -0.2242  0.4308
11373TIP3    H255535   5.037   1.575   0.185 -0.1065  0.4014 -1.0089
11374TIP3   OH255536   1.038   2.329   5.484  0.5001 -0.1010 -0.0080
11374TIP3    H155537   1.130   2.352   5.477  0.4567  0.2804  0.5791
11374TIP3    H255538   1.038   2.241   5.521  0.6564 -0.8652 -1.7431
11375TIP3   OH255539   4.584   6.684   0.021 -0.1360  0.9895  0.0985
11375TIP3    H155540   4.560   6.606  -0.028 -1.4143 -0.0361  2.2364
11375TIP3    H255541   4.577   6.755  -0.043 -0.9316 -0.3671 -1.3885
11376TIP3   OH255542   6.780   1.760   4.129 -0.2853 -0.4732  0.1936
11376TIP3    H155543   6.814   1.704   4.199  0.9705  1.0891  0.9086
11376TIP3    H255544   6.816   1.723   4.049  0.6405 -0.6299  0.6684
11377TIP3   OH255545   5.411   3.972  10.519 -0.7204 -0.0027 -0.3844
11377TIP3    H155546   5.482   3.928  10.566 -0.6237  1.8874  1.4256
11377TIP3    H255547   5.340   3.977  10.582 -1.6407  0.1400 -1.4042
11378TIP3   OH255548   5.464   6.138   2.980  0.1430 -0.2830  0.9165
11378TIP3    H155549   5.506   6.066   2.933 -0.4259 -0.5644  0.8242
11378TIP3    H255550   5.419   6.096   3.054  0.9100  0.1392  1.6379
11379TIP3   OH255551   6.058   4.233   5.296 -0.1395  0.1580  1.0928
11379TIP3    H155552   6.099   4.262   5.215  0.5335  0.6657  1.5913
11379TIP3    H255553   6.089   4.296   5.362 -1.7202  0.5580  1.5012
11380TIP3   OH255554   6.267   4.860   1.202  0.4167 -0.8793  0.4425
11380TIP3    H155555   6.255   4.952   1.175 -0.6840 -0.6057  1.7289
11380TIP3    H255556   6.355   4.857   1.240  1.0043 -0.7042 -0.8383
11381TIP3   OH255557   5.369   1.222  15.890  0.1149  0.0455  0.0239
11381TIP3    H155558   5.365   1.129  15.871  1.6912 -0.4132  1.6556
11381TIP3    H255559   5.344   1.229  15.983  2.4567  0.8942  0.6537
11382TIP3   OH255560   6.255   5.079  13.856  0.1117  0.0184 -0.3228
11382TIP3    H155561   6.166   5.055  13.884  0.1287  0.1215 -0.1790
11382TIP3    H255562   6.246   5.100  13.763  0.2279 -1.2202 -0.6226
11383TIP3   OH255563   5.655   0.643   5.634  0.3730 -0.1504  0.6381
11383TIP3    H155564   5.578   0.631   5.689  0.2064  0.6899  0.5956
11383TIP3    H255565   5.708   0.564   5.650 -0.2330 -0.4768  1.0787
11384TIP3   OH255566   1.899   0.678   4.430 -0.2678 -0.7835 -0.4308
11384TIP3    H155567   1.912   0.759   4.479  2.9802 -2.0004  1.0370
11384TIP3    H255568   1.819   0.641   4.466 -1.6771  1.5206 -0.9435
11385TIP3   OH255569   0.172   2.128  14.654  0.4180 -1.1171  0.4575
11385TIP3    H155570   0.157   2.051  14.710  1.2403 -0.7175  1.2650
11385TIP3    H255571   0.255   2.164  14.686  0.4186 -0.3229 -0.4127
11386TIP3   OH255572   1.393   4.557   1.998  0.2811 -0.1924 -0.1905
11386TIP3    H155573   1.375   4.517   2.083  1.0258  0.4796  0.2947
11386TIP3    H255574   1.309   4.595   1.971  0.4331  1.0888  1.0605
11387TIP3   OH255575   0.251   4.304  16.649 -0.0073  0.2962  0.2601
11387TIP3    H155576   0.200   4.320  16.569  0.3973  0.5305  0.0487
11387TIP3    H255577   0.196   4.338  16.720 -1.0137 -1.1936  0.2430
11388TIP3   OH255578   3.475   0.107   1.092  0.3213  0.3413  0.7229
11388TIP3    H155579   3.494   0.128   1.001  2.7651 -0.9306  0.8553
11388TIP3    H255580   3.544   0.150   1.142  0.1907 -0.6070  1.7677
11389TIP3   OH255581   1.292   3.807   6.393  0.0199  0.2176  0.3288
11389TIP3    H155582   1.262   3.841   6.309 -1.4495 -0.1727  0.6690
11389TIP3    H255583   1.273   3.876   6.456  1.8728  0.8463  0.2578
11390TIP3   OH255584   3.523   1.691  12.417  0.5099  0.3162  0.0222
11390TIP3    H155585   3.525   1.602  12.382 -1.7622  0.2186 -0.0542
11390TIP3    H255586   3.590   1.738  12.368 -0.1554 -0.6830 -1.9615
11391TIP3   OH255587   4.509   3.733  17.142  0.8318 -0.1246  0.0364
11391TIP3    H155588   4.455   3.734  17.221 -0.5256 -1.5161 -0.8294
11391TIP3    H255589   4.483   3.812  17.095  0.3065 -0.2317  0.1366
11392TIP3   OH255590   2.373   0.579  11.534 -0.1625  0.5504 -0.3579
11392TIP3    H155591   2.313   0.584  11.459 -0.4426 -0.1089 -0.1876
11392TIP3    H255592   2.343   0.648  11.593 -1.9664 -0.9470  0.5721
11393TIP3   OH255593   4.357   2.137  15.879 -0.5329  0.3417  0.0285
11393TIP3    H155594   4.286   2.073  15.866 -0.4850  0.0351  1.1355
11393TIP3    H255595   4.323   2.196  15.947  0.2688  0.1760  0.5902
11394TIP3   OH255596   3.590   3.034   3.706  0.6323 -0.7923  0.0049
11394TIP3    H155597   3.515   2.992   3.663  0.2894  0.3364 -0.5234
11394TIP3    H255598   3.616   2.971   3.774 -0.7969 -1.2013  0.2125
11395TIP3   OH255599   3.903   0.062   1.008  0.3182 -0.2570 -0.0614
11395TIP3    H155600   3.895   0.135   0.947 -2.2844 -0.5398 -0.1583
11395TIP3    H255601   3.843   0.083   1.079 -0.8539 -2.4767 -0.3232
11396TIP3   OH255602   0.952   0.054  15.393 -0.3759 -0.4432  0.0213
11396TIP3    H155603   0.906   0.099  15.464 -1.9925 -0.7121 -0.8086
11396TIP3    H255604   1.042   0.042  15.426 -1.1131 -0.7004  2.0730
11397TIP3   OH255605   1.501   0.372  10.662  0.0540 -0.3286  0.3766
11397TIP3    H155606   1.564   0.387  10.591 -1.4187 -0.0879 -0.9431
11397TIP3    H255607   1.436   0.313  10.623 -0.0796 -1.3114  1.9936
11398TIP3   OH255608   3.226   2.476   6.311 -0.0784 -0.1936  0.2213
11398TIP3    H155609   3.274   2.455   6.231  0.9654 -0.0191  0.7896
11398TIP3    H255610   3.264   2.558   6.341  1.1614 -1.4098  2.1395
11399TIP3   OH255611   6.518   5.997  16.028  0.4289  0.1492 -0.4234
11399TIP3    H155612   6.450   5.989  16.094  1.4531 -2.3135  0.4231
11399TIP3    H255613   6.499   6.081  15.985 -1.4574  0.8586  1.5989
11400TIP3   OH255614   2.836   1.749   3.959 -0.6676 -0.2352  0.1076
11400TIP3    H155615   2.825   1.662   3.996 -0.9044 -0.4296 -0.4123
11400TIP3    H255616   2.857   1.805   4.035  1.1540 -1.0274  0.2216
11401TIP3   OH255617   3.449   5.056  16.179  0.5569 -0.4822  0.3799
11401TIP3    H155618   3.527   5.050  16.123 -0.5905 -0.1830 -1.3271
11401TIP3    H255619   3.423   5.148  16.174  0.2558 -0.5199  1.1817
11402TIP3   OH255620   1.887   2.605  12.058 -0.9543 -0.4211  0.6386
11402TIP3    H155621   1.824   2.628  12.127  0.1547 -2.0293  2.2879
11402TIP3    H255622   1.962   2.663  12.074 -1.5266  0.7145 -0.6238
11403TIP3   OH255623   0.358   4.038   5.158  0.0184 -0.3136  0.0486
11403TIP3    H155624   0.351   3.971   5.090 -4.8808 -0.5404  0.4235
11403TIP3    H255625   0.372   4.120   5.111 -1.2154 -0.7408 -1.1220
11404TIP3   OH255626   1.211   2.437  17.153  0.2305  0.3231  0.7856
11404TIP3    H155627   1.182   2.500  17.218 -1.7658 -1.0339  1.2974
11404TIP3    H255628   1.166   2.462  17.073 -0.6943 -0.4952  1.0287
11405TIP3   OH255629   4.466   4.542  15.648 -0.4317  0.4911 -0.1662
11405TIP3    H155630   4.530   4.590  15.699  1.7881 -1.8722 -0.5361
11405TIP3    H255631   4.511   4.520  15.566 -0.5923 -3.5215  0.5969
11406TIP3   OH255632   3.085   3.610  14.002 -0.1183 -0.0493 -0.4559
11406TIP3    H155633   3.008   3.556  14.021 -0.3204  0.3967  0.0120
11406TIP3    H255634   3.108   3.588  13.911  0.0181 -1.1743 -0.1646
11407TIP3   OH255635   6.444   0.232  13.553 -0.8921  0.5626  0.3342
11407TIP3    H155636   6.397   0.266  13.477 -1.0468  2.7904  1.3455
11407TIP3    H255637   6.384   0.168  13.591 -1.5129  0.6428 -0.4816
11408TIP3   OH255638   5.248   0.808  15.438 -0.1489  0.2965  0.2330
11408TIP3    H155639   5.166   0.834  15.396  1.1044 -1.0342 -3.4700
11408TIP3    H255640   5.244   0.712  15.442  0.7137  0.2811  1.1773
11409TIP3   OH255641   3.225   0.197   2.621  0.3579 -0.2046  0.2863
11409TIP3    H155642   3.177   0.243   2.689  1.0883 -1.1601  1.4856
11409TIP3    H255643   3.290   0.145   2.668  1.5934 -0.0765 -1.2060
11410TIP3   OH255644   1.172   4.599   0.870 -0.7042  0.1604  0.2245
11410TIP3    H155645   1.108   4.668   0.891 -1.2732  0.9752 -3.5123
11410TIP3    H255646   1.119   4.527   0.837  0.1401 -0.4082  0.0919
11411TIP3   OH255647   4.499   4.547  16.090  0.1571 -0.3487 -0.3880
11411TIP3    H155648   4.581   4.582  16.124 -1.1899  1.3349  1.3611
11411TIP3    H255649   4.449   4.625  16.063 -1.4787 -1.1734  0.1265
11412TIP3   OH255650   3.782   6.785   6.193  0.6283  0.2904 -0.4601
11412TIP3    H155651   3.871   6.772   6.225 -0.3010  3.0491  4.0669
11412TIP3    H255652   3.732   6.712   6.228  0.2978  1.3694  1.4330
11413TIP3   OH255653   0.745   6.124  11.651  0.3680  0.0377  0.1293
11413TIP3    H155654   0.750   6.031  11.674 -1.5663 -0.3844 -0.8994
11413TIP3    H255655   0.665   6.155  11.693  0.2295  0.8632 -0.7020
11414TIP3   OH255656   4.066   4.370   2.672  0.6156 -0.4369  0.5368
11414TIP3    H155657   4.042   4.277   2.671 -0.7648 -0.1095 -1.0098
11414TIP3    H255658   4.010   4.408   2.740 -0.2649 -0.4058 -0.1952
11415TIP3   OH255659   0.124   2.544   0.388  0.1733 -0.0091  0.2196
11415TIP3    H155660   0.042   2.493   0.386  0.9028 -1.2469  0.5322
11415TIP3    H255661   0.116   2.604   0.314 -0.3852 -1.1450 -0.6866
11416TIP3   OH255662   1.890   6.353   2.099 -0.1202 -0.5461 -0.3914
11416TIP3    H155663   1.926   6.327   2.184  1.3405  3.1273  0.3205
11416TIP3    H255664   1.967   6.363   2.043 -0.9530 -1.4776 -1.7664
11417TIP3   OH255665   0.580   6.228   1.046 -0.2760  0.3407 -0.2099
11417TIP3    H155666   0.546   6.305   1.092 -1.1313 -1.0281  1.5669
11417TIP3    H255667   0.665   6.211   1.086 -0.7965 -0.5546  0.5516
11418TIP3   OH255668   6.413   6.624   0.947 -0.1873  0.7654 -0.5057
11418TIP3    H155669   6.415   6.537   0.986 -2.6051  0.9508  0.2401
11418TIP3    H255670   6.482   6.623   0.881  2.9715 -0.1454  2.5289
11419TIP3   OH255671   1.165   1.079  13.596 -0.1749  0.0952  0.3264
11419TIP3    H155672   1.112   1.147  13.637 -1.7233 -0.1722 -1.1428
11419TIP3    H255673   1.221   1.126  13.535  0.2171  0.2208  0.7702
11420TIP3   OH255674   1.204   0.752  13.330 -0.6226 -0.5084 -0.2938
11420TIP3    H155675   1.148   0.822  13.295  0.2475  0.1824 -0.3558
11420TIP3    H255676   1.293   0.787  13.323 -0.2130 -1.4109  0.1919
11421TIP3   OH255677   1.914   3.917   5.283  0.2504 -0.4152  0.3722
11421TIP3    H155678   1.836   3.862   5.286 -0.4888  0.6332  1.8611
11421TIP3    H255679   1.954   3.907   5.370  0.8028  0.3716  0.2218
11422TIP3   OH255680   4.884   6.656  16.885  0.0718 -0.5681 -0.3753
11422TIP3    H155681   4.792   6.680  16.893  0.1909  1.2798 -3.0461
11422TIP3    H255682   4.925   6.690  16.965 -1.2187  0.6693 -0.1985
11423TIP3   OH255683   5.629   3.277  13.524 -0.4144 -0.1898 -0.7148
11423TIP3    H155684   5.700   3.341  13.524 -1.7644  1.4011  0.0526
11423TIP3    H255685   5.563   3.315  13.466 -2.2381  0.3571  1.5469
11424TIP3   OH255686   5.402   4.102  11.940 -0.0454 -0.5884  0.4468
11424TIP3    H155687   5.426   4.013  11.966 -0.5855 -0.9884 -0.3992
11424TIP3    H255688   5.484   4.152  11.945  0.2446 -1.1175  0.9795
11425TIP3   OH255689   3.752   4.208  12.140  0.0475 -0.6744  0.1315
11425TIP3    H155690   3.683   4.169  12.193  0.9118 -0.5923  1.3547
11425TIP3    H255691   3.711   4.224  12.055 -0.7166 -3.0220 -0.0087
11426TIP3   OH255692   2.578   2.206   4.721 -1.0648  0.5435  0.3367
11426TIP3    H155693   2.530   2.280   4.759 -0.1187  2.8858 -2.5927
11426TIP3    H255694   2.510   2.149   4.685 -1.7535  1.3552  0.3267
11427TIP3   OH255695   3.976   6.602  12.129 -0.4416 -0.2449 -0.6887
11427TIP3    H155696   3.891   6.560  12.143 -0.0376 -1.0245 -0.5094
11427TIP3    H255697   4.021   6.544  12.068  0.0488  0.0369 -0.5940
11428TIP3   OH255698   6.625   4.295   1.190  0.0240  0.1963  0.6240
11428TIP3    H155699   6.572   4.306   1.269  0.2390 -0.2399  0.8343
11428TIP3    H255700   6.670   4.212   1.203  0.7735  0.5644  0.4615
11429TIP3   OH255701   0.429   1.669  13.201  0.2639  0.3331  0.1850
11429TIP3    H155702   0.415   1.691  13.293  0.1302 -0.6606  0.4143
11429TIP3    H255703   0.497   1.602  13.202 -2.0749 -2.2175 -0.1227
11430TIP3   OH255704   4.730   3.350   0.648  0.3286 -0.1857 -0.0182
11430TIP3    H155705   4.769   3.269   0.615  0.0624 -0.6799  0.8202
11430TIP3    H255706   4.642   3.352   0.610  0.4269 -0.1630 -0.2417
11431TIP3   OH255707   5.623   6.003   2.787  0.3863  0.0635 -0.8621
11431TIP3    H155708   5.586   5.919   2.759 -1.0906  0.3265  0.1529
11431TIP3    H255709   5.610   6.061   2.712  0.8773 -0.4402 -1.3525
11432TIP3   OH255710   1.125   5.653   1.568  0.0390  0.4849  0.3458
11432TIP3    H155711   1.201   5.679   1.619 -0.1315 -0.9796  1.4056
11432TIP3    H255712   1.138   5.560   1.551 -0.5148  0.6604 -1.2585
11433TIP3   OH255713   2.927   2.995  12.245 -0.2040 -0.2665 -0.7273
11433TIP3    H155714   2.880   2.958  12.170 -2.3884  0.6707  0.0862
11433TIP3    H255715   2.868   3.062  12.279  0.1204 -1.4707  2.5884
11434TIP3   OH255716   5.766   1.358   3.472 -0.1386  0.1972  0.1993
11434TIP3    H155717   5.758   1.274   3.516 -0.7985  0.3977  0.4685
11434TIP3    H255718   5.678   1.395   3.475 -0.0593  0.4788 -0.7534
11435TIP3   OH255719   0.668   0.244  13.370 -0.2379 -0.3791 -0.3980
11435TIP3    H155720   0.586   0.205  13.341 -0.5490 -0.1398  0.1581
11435TIP3    H255721   0.643   0.326  13.410  0.0830 -1.1032  1.3613
11436TIP3   OH255722   6.482   3.421  14.031 -0.0815  0.0806  0.0141
11436TIP3    H155723   6.424   3.447  13.960  1.5623  1.8360 -0.7646
11436TIP3    H255724   6.447   3.464  14.109 -0.0058  0.8996 -0.3990
11437TIP3   OH255725   6.492   3.428   4.322  0.0134  0.2831 -0.4120
11437TIP3    H155726   6.436   3.504   4.308 -0.5275 -0.0150  0.0707
11437TIP3    H255727   6.581   3.460   4.308 -0.2258  0.9582 -0.3931
11438TIP3   OH255728   1.091   5.055  12.674 -0.0880 -0.0449  0.1956
11438TIP3    H155729   1.160   5.027  12.614  0.8958  1.9403  0.3294
11438TIP3    H255730   1.133   5.056  12.760 -1.4822 -2.8767  1.0656
11439TIP3   OH255731   2.222   0.326  16.616  0.7489  0.1406 -0.4073
11439TIP3    H155732   2.299   0.271  16.604  0.6470  0.3533 -2.3752
11439TIP3    H255733   2.253   0.415  16.598  0.2726  0.3596 -0.1673
11440TIP3   OH255734   4.608   2.183   3.087 -0.0963  0.1987 -0.1050
11440TIP3    H155735   4.594   2.114   3.152  1.2939 -1.1493 -1.1592
11440TIP3    H255736   4.677   2.237   3.124 -1.0829  0.9692  0.6564
11441TIP3   OH255737   0.285   0.730   4.954 -0.3581  0.4066 -0.2756
11441TIP3    H155738   0.229   0.675   4.898  0.8949 -2.3685  0.9775
11441TIP3    H255739   0.230   0.752   5.029 -0.1607 -1.4255  0.4530
11442TIP3   OH255740   3.947   2.862   5.890  0.4534  0.4737  0.3369
11442TIP3    H155741   3.887   2.801   5.848  1.7127 -0.3210 -0.3808
11442TIP3    H255742   3.932   2.946   5.846  0.2490  0.1517 -0.2101
11443TIP3   OH255743   2.883   2.470   1.449 -0.3082  0.4284  0.0060
11443TIP3    H155744   2.847   2.479   1.361  0.3862 -0.8338 -0.4303
11443TIP3    H255745   2.873   2.377   1.470 -0.3699  0.6920  1.2254
11444TIP3   OH255746   4.289   1.794   1.928  0.0247  0.6482  0.0865
11444TIP3    H155747   4.269   1.722   1.867 -0.5517  1.5513 -0.8223
11444TIP3    H255748   4.362   1.761   1.980  1.3000  0.2625 -1.8502
11445TIP3   OH255749   2.457   1.339   2.750 -0.1332  0.4720 -0.2275
11445TIP3    H155750   2.543   1.340   2.791 -0.1078  2.2164 -0.2393
11445TIP3    H255751   2.396   1.357   2.821 -0.6939 -2.2370  0.0728
11446TIP3   OH255752   4.339   6.769   4.704  0.6112 -0.1261 -0.2612
11446TIP3    H155753   4.435   6.773   4.699  0.5781  2.0351 -0.2314
11446TIP3    H255754   4.309   6.819   4.628 -0.4044  1.3443  1.0350
11447TIP3   OH255755   1.032   6.264  11.626 -1.2736  0.8491  0.0108
11447TIP3    H155756   1.114   6.227  11.659  0.4426  1.0831 -3.5419
11447TIP3    H255757   1.019   6.344  11.678  1.6475  1.6375 -0.3074
11448TIP3   OH255758   4.363   2.513   2.398 -0.1670 -0.6455 -0.0087
11448TIP3    H155759   4.285   2.459   2.412 -0.0951 -0.9208 -0.6375
11448TIP3    H255760   4.435   2.450   2.391  0.1485 -0.3819  0.7812
11449TIP3   OH255761   3.944   6.180   1.830  0.4237 -0.0100 -0.5055
11449TIP3    H155762   3.897   6.223   1.759  0.3636  2.1123  0.7467
11449TIP3    H255763   3.986   6.251   1.879  1.7763 -1.5216  0.6743
11450TIP3   OH255764   0.191   0.888  11.845  0.0603  0.0325 -0.3182
11450TIP3    H155765   0.105   0.929  11.854 -1.1067 -2.6822  2.4833
11450TIP3    H255766   0.174   0.806  11.798  1.5442  0.3687 -1.5585
11451TIP3   OH255767   6.448   6.301   1.930  0.1642  0.1458 -0.1826
11451TIP3    H155768   6.461   6.390   1.961  1.6297  0.2426 -0.9786
11451TIP3    H255769   6.508   6.248   1.983  2.0479  0.1957 -2.1517
11452TIP3   OH255770   2.344   0.348   2.319  0.3226 -0.4680 -0.2352
11452TIP3    H155771   2.427   0.351   2.273  0.0567 -0.5354 -0.7248
11452TIP3    H255772   2.312   0.259   2.307 -1.3861  0.3880 -2.8895
11453TIP3   OH255773   5.546   2.663   5.375 -0.2663  0.0310  0.1752
11453TIP3    H155774   5.487   2.692   5.305  1.3332  2.0956 -0.4146
11453TIP3    H255775   5.504   2.692   5.456 -0.3337  1.0534 -0.2087
11454TIP3   OH255776   4.232   3.947   6.094  0.8229  0.4805  0.3168
11454TIP3    H155777   4.228   4.041   6.108  1.9995  0.6177 -0.1554
11454TIP3    H255778   4.280   3.913   6.170  0.3814  0.2468  0.4998
11455TIP3   OH255779   1.688   5.274  15.649 -0.1346  0.0297  0.2258
11455TIP3    H155780   1.641   5.357  15.660 -0.8701 -0.5267  1.5682
11455TIP3    H255781   1.736   5.284  15.567 -0.2352  1.7662  0.3332
11456TIP3   OH255782   1.140   0.951  12.683 -0.3787 -0.4020 -0.7241
11456TIP3    H155783   1.148   0.946  12.778 -1.3868  0.3958 -0.5861
11456TIP3    H255784   1.139   0.860  12.654  1.0792 -0.6543 -0.0908
11457TIP3   OH255785   1.847   4.607  14.782 -0.1261  0.6494  0.3304
11457TIP3    H155786   1.867   4.526  14.735 -1.8641  1.0626 -1.2586
11457TIP3    H255787   1.914   4.668  14.754  0.7967 -0.0362  1.0031
11458TIP3   OH255788   0.452   1.872  12.182  0.1731 -0.0184  0.0504
11458TIP3    H155789   0.474   1.965  12.179  1.0641 -0.1853  0.8176
11458TIP3    H255790   0.399   1.857  12.104  2.9583  0.4069 -2.0794
11459TIP3   OH255791   2.086   6.417  16.045  0.3535  0.1199  0.1276
11459TIP3    H155792   2.044   6.464  15.972 -0.2536 -0.5928  0.0114
11459TIP3    H255793   2.065   6.469  16.122  0.5649  0.6017 -0.1343
11460TIP3   OH255794   6.552   6.558  11.619  0.3107 -0.6978  0.3327
11460TIP3    H155795   6.457   6.556  11.627  0.3285 -0.0759  0.7854
11460TIP3    H255796   6.568   6.562  11.525 -0.0564 -2.5208  0.1473
11461TIP3   OH255797   2.018   2.553   2.508 -0.1522 -0.1081 -0.0193
11461TIP3    H155798   2.018   2.616   2.580  0.9549  0.4250 -0.4645
11461TIP3    H255799   2.061   2.598   2.436 -0.8075 -0.8123 -0.8680
11462TIP3   OH255800   1.291   5.408  14.373  0.3127  0.2217  0.0519
11462TIP3    H155801   1.263   5.495  14.403 -0.5017  0.4109 -1.1599
11462TIP3    H255802   1.385   5.405  14.393  0.0369  0.7521  1.5262
11463TIP3   OH255803   3.285   6.732   3.200  0.4266 -0.2083  0.6763
11463TIP3    H155804   3.347   6.770   3.263  0.5490 -1.0982  1.1066
11463TIP3    H255805   3.227   6.805   3.177  1.4290  0.5674  0.4993
11464TIP3   OH255806   2.105   0.536   3.990 -0.0930  0.2839 -0.3137
11464TIP3    H155807   2.073   0.500   4.073  0.9938  1.2837  0.5705
11464TIP3    H255808   2.194   0.501   3.982 -0.9588 -1.7556 -2.3040
11465TIP3   OH255809   0.252   3.183   4.878 -0.1229  0.1520 -0.0314
11465TIP3    H155810   0.319   3.202   4.812 -0.5535  0.9042 -0.2751
11465TIP3    H255811   0.181   3.142   4.829 -1.3972  2.7122 -0.5326
11466TIP3   OH255812   6.446   4.096   2.304 -0.0868  0.2738 -0.2564
11466TIP3    H155813   6.374   4.157   2.293  0.0225  0.8094  1.5576
11466TIP3    H255814   6.410   4.026   2.359  0.5628  0.1691  0.0509
11467TIP3   OH255815   2.709   1.062   2.120 -0.5009  0.5317  0.0975
11467TIP3    H155816   2.713   1.023   2.207 -1.4271  0.3868  0.0839
11467TIP3    H255817   2.669   0.994   2.065 -0.4177  0.8221 -0.3257
11468TIP3   OH255818   1.972   4.181   5.751  0.1552  0.4833  0.3377
11468TIP3    H155819   1.887   4.177   5.793 -0.0219  0.0739 -0.0562
11468TIP3    H255820   2.030   4.218   5.818 -0.1210 -0.1525  0.9430
11469TIP3   OH255821   0.778   1.520  16.890 -0.0156  0.2703  0.7636
11469TIP3    H155822   0.804   1.442  16.841 -1.6820 -0.6562  1.2924
11469TIP3    H255823   0.828   1.591  16.848 -1.1365 -0.4973 -2.1390
11470TIP3   OH255824   1.543   0.378  12.011  0.1859 -0.1881  0.6120
11470TIP3    H155825   1.574   0.446  11.951 -0.9038  0.0349  0.2580
11470TIP3    H255826   1.484   0.425  12.071 -0.2947 -0.7431  0.5844
11471TIP3   OH255827   3.550   0.124  15.557  0.0559  0.2771 -0.6004
11471TIP3    H155828   3.539   0.073  15.637 -0.8131  0.3272 -0.6772
11471TIP3    H255829   3.643   0.118  15.537  0.5235  1.2570  1.0771
11472TIP3   OH255830   3.545   3.864  12.147  0.3497 -0.0994  0.1323
11472TIP3    H155831   3.615   3.802  12.168  0.2084  0.0486  1.0862
11472TIP3    H255832   3.483   3.813  12.094  0.2832 -0.7722  0.8177
11473TIP3   OH255833   1.381   6.149   0.921  0.0358  0.3365  0.1548
11473TIP3    H155834   1.447   6.158   0.852  0.9603  2.2834  1.2061
11473TIP3    H255835   1.400   6.064   0.961  1.5851  0.6187  0.0837
11474TIP3   OH255836   0.445   5.049   1.011 -0.5089 -0.4419  0.1371
11474TIP3    H155837   0.486   5.055   0.925 -3.1574 -1.4737 -1.3083
11474TIP3    H255838   0.489   4.976   1.054  1.8776  1.0205  0.3447
11475TIP3   OH255839   3.063   6.057  12.567 -0.4485 -0.1835  0.2111
11475TIP3    H155840   3.116   6.099  12.499  0.9982 -0.2412  1.2469
11475TIP3    H255841   3.038   6.128  12.626  0.4090 -0.4514  0.9361
11476TIP3   OH255842   5.307   5.398   3.621  0.0504 -0.2228  0.1520
11476TIP3    H155843   5.265   5.373   3.703 -0.8997 -1.3821 -0.6565
11476TIP3    H255844   5.381   5.338   3.612 -1.3584 -1.8615 -1.0606
11477TIP3   OH255845   6.072   6.172   4.438 -0.2437  0.0922  0.2528
11477TIP3    H155846   6.017   6.155   4.515 -1.9614 -1.2054 -1.1905
11477TIP3    H255847   6.098   6.086   4.407  0.6802  0.6075 -0.4704
11478TIP3   OH255848   6.098   5.951  17.086  0.5732 -0.0470 -0.4058
11478TIP3    H155849   6.085   5.859  17.111  1.0763 -0.3176 -1.1021
11478TIP3    H255850   6.076   6.000  17.165 -0.0248 -0.7457 -0.1224
11479TIP3   OH255851   2.738   0.715   3.943  0.8320 -0.1296 -0.2816
11479TIP3    H155852   2.701   0.630   3.965  0.3848  0.3390  0.9005
11479TIP3    H255853   2.765   0.752   4.028  0.1727  1.2647 -0.6345
11480TIP3   OH255854   4.498   4.988  11.487  0.0861 -0.3273 -0.3404
11480TIP3    H155855   4.590   5.004  11.509 -0.4638  1.4737  0.9052
11480TIP3    H255856   4.497   4.976  11.392  1.5363  0.2121 -0.4444
11481TIP3   OH255857   4.891   1.888  16.691  0.4495  0.1681  0.2091
11481TIP3    H155858   4.934   1.895  16.776 -0.5624 -1.1277  0.8604
11481TIP3    H255859   4.817   1.829  16.706  0.7317 -0.7631 -1.7586
11482TIP3   OH255860   2.451   3.342  10.725 -0.0176  0.1847 -0.1262
11482TIP3    H155861   2.356   3.347  10.732  0.0841  0.5505  1.3718
11482TIP3    H255862   2.475   3.265  10.778  0.5654  0.4788  0.0462
11483TIP3   OH255863   0.265   5.987   1.509 -0.6922 -0.2572  0.2725
11483TIP3    H155864   0.216   6.055   1.555 -2.6453 -0.9501 -0.6525
11483TIP3    H255865   0.208   5.911   1.512  0.6720 -1.3323 -0.2612
11484TIP3   OH255866   0.261   3.005  11.796  0.3228  0.0018  0.1084
11484TIP3    H155867   0.289   3.002  11.888  3.2523 -0.3510 -0.6671
11484TIP3    H255868   0.202   3.079  11.790 -0.0069 -0.0297  2.2837
11485TIP3   OH255869   6.629   0.421   2.266 -0.0487 -0.0609 -0.4659
11485TIP3    H155870   6.670   0.335   2.261 -1.2398 -0.6332 -0.6903
11485TIP3    H255871   6.541   0.408   2.231 -0.3416  1.1891 -0.2480
11486TIP3   OH255872   3.183   0.052   2.402 -0.1314  0.0700 -0.2358
11486TIP3    H155873   3.174   0.131   2.454 -0.7661 -0.0980 -0.0807
11486TIP3    H255874   3.274   0.052   2.374  0.2100  0.1834  0.8360
11487TIP3   OH255875   0.336   4.163  15.877 -0.1452  0.6507  0.2164
11487TIP3    H155876   0.421   4.190  15.843 -1.3586  1.7840 -2.1702
11487TIP3    H255877   0.275   4.228  15.842 -2.5015 -2.1362 -1.2650
11488TIP3   OH255878   4.516   4.379   1.391  0.4632  0.3672 -0.6316
11488TIP3    H155879   4.544   4.463   1.427 -1.1591  0.3307  0.7834
11488TIP3    H255880   4.558   4.376   1.304  1.3279  2.1817 -0.3265
11489TIP3   OH255881   3.457   6.502  14.796 -0.2422 -0.3145 -0.1009
11489TIP3    H155882   3.541   6.525  14.834 -0.4231 -1.0247  0.7631
11489TIP3    H255883   3.478   6.471  14.707  0.5637 -1.5639  0.4909
11490TIP3   OH255884   0.250   0.225  13.618  0.0280  0.5656 -0.3100
11490TIP3    H155885   0.270   0.140  13.580 -0.2784  0.1983  0.3165
11490TIP3    H255886   0.333   0.257  13.653  0.5773  1.4614 -2.2840
11491TIP3   OH255887   1.404   1.073   3.111  0.1371  0.8337  0.3433
11491TIP3    H155888   1.347   1.022   3.168 -0.9672  0.7579 -0.7824
11491TIP3    H255889   1.384   1.164   3.130  0.3206  0.8213  0.6027
11492TIP3   OH255890   4.619   4.613  15.205 -0.0393  0.4299  0.1852
11492TIP3    H155891   4.604   4.521  15.187 -1.0748  0.6615 -0.1875
11492TIP3    H255892   4.556   4.660  15.150 -1.5388  1.2397  2.4294
11493TIP3   OH255893   2.930   3.628  16.763  0.0218  0.2230 -0.1259
11493TIP3    H155894   2.978   3.572  16.703 -1.5789 -0.9906 -0.3384
11493TIP3    H255895   2.970   3.613  16.848 -0.6748 -1.6366 -0.0953
11494TIP3   OH255896   6.733   5.851  15.989  0.3098 -0.1608 -0.2588
11494TIP3    H155897   6.657   5.908  15.998  1.3330  1.1729  0.2640
11494TIP3    H255898   6.786   5.868  16.067  0.6114 -1.8951 -0.0544
11495TIP3   OH255899   0.554   4.510  16.370  0.4466 -0.3087 -0.4290
11495TIP3    H155900   0.615   4.573  16.333  0.0967  0.6977  0.6455
11495TIP3    H255901   0.590   4.489  16.456 -0.3565 -0.2008 -0.0560
11496TIP3   OH255902   6.429   6.182  15.359 -0.1190 -0.2895 -0.0982
11496TIP3    H155903   6.430   6.092  15.326  2.0312 -0.6667  0.8349
11496TIP3    H255904   6.433   6.173  15.454 -2.2206  0.8239  0.1561
11497TIP3   OH255905   6.068   4.952  12.881 -0.0374  0.3045 -0.4727
11497TIP3    H155906   6.015   4.920  12.808 -0.6234  0.4452 -0.1050
11497TIP3    H255907   6.150   4.902  12.874 -1.1266 -1.7081  0.4163
11498TIP3   OH255908   0.953   3.301   4.385  0.5206  0.7494 -0.1917
11498TIP3    H155909   0.998   3.350   4.453  0.5248 -0.7536  0.9224
11498TIP3    H255910   0.876   3.355   4.363  0.7228  1.4218  0.7161
11499TIP3   OH255911   0.711   4.738   1.124 -0.4859  0.3710 -0.4138
11499TIP3    H155912   0.634   4.791   1.146  0.1025  2.2777 -2.4769
11499TIP3    H255913   0.706   4.727   1.029  1.6609  0.3943 -0.5809
11500TIP3   OH255914   0.432   4.293   1.442  0.1088  0.0148 -0.1190
11500TIP3    H155915   0.507   4.251   1.485 -0.1712  1.0200  1.4289
11500TIP3    H255916   0.465   4.380   1.417  0.4597 -0.7621 -2.6042
11501TIP3   OH255917   5.410   5.181  12.934  0.3366  0.2123 -0.9828
11501TIP3    H155918   5.445   5.194  12.846  1.0348 -0.6917 -0.8426
11501TIP3    H255919   5.327   5.230  12.934  1.3400  1.9745 -1.4566
11502TIP3   OH255920   2.972   2.889   4.427  0.0439  0.5014 -0.4515
11502TIP3    H155921   2.911   2.941   4.376 -0.9058 -0.3358 -0.1897
11502TIP3    H255922   3.053   2.890   4.376 -0.4063  0.9944 -1.1662
11503TIP3   OH255923   0.104   1.695   5.265 -0.5579  0.9709  0.1137
11503TIP3    H155924   0.184   1.667   5.221 -1.0177 -0.5334  0.1812
11503TIP3    H255925   0.037   1.693   5.197 -0.5019  2.6018 -0.0370
11504TIP3   OH255926   4.139   3.876  14.520  0.6214 -0.5530 -0.1323
11504TIP3    H155927   4.209   3.873  14.586  0.1671  0.1314  0.3900
11504TIP3    H255928   4.063   3.906  14.568 -0.1348 -1.6278 -0.6190
11505TIP3   OH255929   5.897   4.525  16.468 -0.1635  0.2755 -0.1521
11505TIP3    H155930   5.822   4.473  16.498  0.0705 -0.1371 -0.2689
11505TIP3    H255931   5.900   4.511  16.373  0.7759 -0.6840 -0.0005
11506TIP3   OH255932   0.097   3.543   2.826  0.2025 -0.1835  0.9880
11506TIP3    H155933   0.052   3.570   2.907  0.3861  2.2940  0.3499
11506TIP3    H255934   0.029   3.546   2.759  0.6271  0.4925  0.5775
11507TIP3   OH255935   0.583   2.547  11.951  0.0700  0.2008  0.2353
11507TIP3    H155936   0.558   2.481  12.015  0.7463  0.0266  0.3349
11507TIP3    H255937   0.528   2.622  11.970 -0.5328 -0.2456  0.2814
11508TIP3   OH255938   6.706   0.637   5.198  0.2201 -0.8576  0.0668
11508TIP3    H155939   6.761   0.714   5.186 -0.9213  0.2366  1.5119
11508TIP3    H255940   6.755   0.582   5.259  0.9073 -1.1731 -0.7475
11509TIP3   OH255941   6.739   6.789   0.105  0.2590 -0.1299 -0.3044
11509TIP3    H155942   6.725   6.699   0.134  1.0557  0.4789  2.2602
11509TIP3    H255943   6.652   6.822   0.085 -0.2996 -0.8522  0.8133
11510TIP3   OH255944   2.491   3.116   3.710 -0.1039 -0.1070 -0.2948
11510TIP3    H155945   2.541   3.142   3.789 -0.2805  0.2694 -0.3031
11510TIP3    H255946   2.423   3.182   3.703  0.9638  0.9092 -1.7666
11511TIP3   OH255947   2.444   3.368  12.858 -0.0183  0.0409 -0.0555
11511TIP3    H155948   2.482   3.448  12.894 -3.4050  3.1003 -2.5911
11511TIP3    H255949   2.505   3.342  12.789  1.7114 -0.4000  1.5495
11512TIP3   OH255950   1.025   4.702  16.176  1.0357 -0.3456  0.4186
11512TIP3    H155951   1.016   4.614  16.138 -0.2339  0.8949 -2.5100
11512TIP3    H255952   0.938   4.721  16.211  0.9995  0.1249  0.0817
11513TIP3   OH255953   5.599   3.454  11.561  0.2097  0.0807  0.0435
11513TIP3    H155954   5.541   3.448  11.638  1.7078  0.6333  1.2756
11513TIP3    H255955   5.680   3.412  11.589 -0.0965 -2.2466 -2.2314
11514TIP3   OH255956   5.910   4.563   0.323  0.0507 -0.2699 -0.0843
11514TIP3    H155957   5.833   4.607   0.360 -0.1849 -0.3115 -0.5115
11514TIP3    H255958   5.957   4.528   0.398 -2.3409 -3.6303  0.0708
11515TIP3   OH255959   4.040   5.730  15.047 -0.4636 -0.1310  0.1193
11515TIP3    H155960   4.028   5.781  15.127 -0.7092  0.9103 -0.5567
11515TIP3    H255961   3.951   5.719  15.012 -0.6773 -2.7598  1.2426
11516TIP3   OH255962   4.959   5.704  16.206 -0.2674 -0.3889 -0.5521
11516TIP3    H155963   4.954   5.632  16.268  3.1007 -0.0889  0.2584
11516TIP3    H255964   4.971   5.782  16.260  0.0795  0.2539 -1.5209
11517TIP3   OH255965   5.760   1.562   3.720  0.0085 -0.2163  0.0565
11517TIP3    H155966   5.835   1.553   3.779 -0.0361 -0.7463  0.0372
11517TIP3    H255967   5.791   1.527   3.637 -0.3966 -0.8565  0.1665
11518TIP3   OH255968   1.227   5.311   5.790  0.1388  0.2269 -0.4339
11518TIP3    H155969   1.215   5.320   5.885  1.6554  1.6660 -0.3282
11518TIP3    H255970   1.260   5.223   5.778  1.4559  0.5430  0.5873
11519TIP3   OH255971   6.171   2.289  16.187 -0.1885 -0.6080  0.0336
11519TIP3    H155972   6.170   2.284  16.283 -1.4885 -1.5317  0.0009
11519TIP3    H255973   6.209   2.206  16.159 -2.6987 -1.7633 -0.2461
11520TIP3   OH255974   1.975   0.378   2.890  0.1479  0.2776 -0.4635
11520TIP3    H155975   2.048   0.329   2.928 -0.3056 -0.9237 -1.1325
11520TIP3    H255976   2.002   0.470   2.899  0.3432  0.0352  2.1789
11521TIP3   OH255977   2.534   4.693  14.050 -0.2970 -0.0730  0.3493
11521TIP3    H155978   2.448   4.694  14.092 -0.6091 -1.8426 -0.1418
11521TIP3    H255979   2.594   4.662  14.118  0.2162  2.2271  1.0316
11522TIP3   OH255980   3.167   6.729  16.834  0.3843 -0.3216  0.4639
11522TIP3    H155981   3.211   6.802  16.790  0.7229 -1.5287 -1.3246
11522TIP3    H255982   3.234   6.661  16.840 -0.0219 -0.6483  1.7818
11523TIP3   OH255983   6.533   4.542  12.702 -0.0722 -0.0595  0.1854
11523TIP3    H155984   6.466   4.476  12.724 -0.2896  0.4025  0.9419
11523TIP3    H255985   6.611   4.514  12.750 -0.1818  0.2644  0.5543
11524TIP3   OH255986   0.373   3.678  14.004  0.1193 -0.4809  0.1470
11524TIP3    H155987   0.356   3.697  13.912 -0.0575  3.0336  0.7665
11524TIP3    H255988   0.468   3.671  14.011  0.2087  0.3006 -0.1802
11525TIP3   OH255989   5.697   2.814   2.391  0.0198 -0.2964 -0.2284
11525TIP3    H155990   5.708   2.780   2.480 -0.5808 -0.2255 -0.1220
11525TIP3    H255991   5.719   2.740   2.334  0.5196 -0.3061 -0.0253
11526TIP3   OH255992   3.892   0.781   5.279 -0.8874 -0.4727 -0.1209
11526TIP3    H155993   3.885   0.783   5.375 -0.4661  1.0658 -0.1004
11526TIP3    H255994   3.935   0.863   5.256 -1.4546 -0.5812 -1.6855
11527TIP3   OH255995   3.303   6.005  11.903 -0.3201  0.0237  0.1559
11527TIP3    H155996   3.330   5.918  11.874 -0.7106 -0.3307  0.8331
11527TIP3    H255997   3.341   6.014  11.991  0.4916  0.9149 -0.2683
11528TIP3   OH255998   4.896   3.373  17.235  0.0843 -0.8012  0.2151
11528TIP3    H155999   4.846   3.366  17.153  1.6675 -0.5324 -0.8158
11528TIP3    H256000   4.874   3.460  17.268 -0.7954 -1.0219  0.2523
11529TIP3   OH256001   1.785   6.463  11.395  0.5226 -0.4357  0.5237
11529TIP3    H156002   1.827   6.546  11.374  1.4020 -0.5067  1.9209
11529TIP3    H256003   1.847   6.396  11.366 -0.1207 -0.6347 -0.4651
11530TIP3   OH256004   1.212   5.624  17.202 -0.1757 -0.0496  0.3682
11530TIP3    H156005   1.117   5.615  17.203 -0.2722  0.3449 -1.3450
11530TIP3    H256006   1.243   5.543  17.160 -0.0076  1.0149 -1.7041
11531TIP3   OH256007   2.293   5.533  15.870 -0.3251 -0.0687 -0.1828
11531TIP3    H156008   2.259   5.540  15.781 -1.2275 -1.5685  0.0075
11531TIP3    H256009   2.354   5.459  15.867 -1.1461 -0.8135  0.6375
11532TIP3   OH256010   1.629   3.368   1.582 -0.3206  0.1685  0.4503
11532TIP3    H156011   1.565   3.436   1.561  2.2132  2.7205  0.4403
11532TIP3    H256012   1.579   3.302   1.631 -2.8674  2.1575  0.7152
11533TIP3   OH256013   0.317   0.795   5.479 -0.0607  0.1267  0.3991
11533TIP3    H156014   0.327   0.753   5.564  2.0364  0.7096  0.4895
11533TIP3    H256015   0.366   0.739   5.419 -1.5320 -0.2839 -0.4452
11534TIP3   OH256016   1.995   4.236  11.651 -0.4301  0.2363 -0.9665
11534TIP3    H156017   2.039   4.226  11.735  0.0471  0.0982 -1.2236
11534TIP3    H256018   2.042   4.307  11.607 -0.9708  0.6224 -0.9347
11535TIP3   OH256019   4.456   3.235  12.248  0.0634 -0.3213  0.3855
11535TIP3    H156020   4.398   3.309  12.261  0.3925  0.4848 -2.3205
11535TIP3    H256021   4.398   3.160  12.234 -0.2604 -0.3724  1.8518
11536TIP3   OH256022   0.987   4.366   2.012  0.3730  0.0330  0.0839
11536TIP3    H156023   1.017   4.275   2.019  1.6301  0.1534 -2.5514
11536TIP3    H256024   1.068   4.417   2.003 -0.3026  1.4885  1.6182
11537TIP3   OH256025   3.464   5.638  11.052  0.1023 -0.3460 -0.0714
11537TIP3    H156026   3.458   5.544  11.033 -1.1527 -0.3622  0.3479
11537TIP3    H256027   3.460   5.680  10.966  2.9198 -0.7192 -0.4799
11538TIP3   OH256028   2.774   3.685  14.576 -0.2034  0.4019  0.4775
11538TIP3    H156029   2.680   3.687  14.596 -0.4136 -2.3495  0.2548
11538TIP3    H256030   2.811   3.757  14.626 -2.2934  0.8479  1.5065
11539TIP3   OH256031   5.071   2.497   4.992 -0.6926 -0.2352 -0.1926
11539TIP3    H156032   4.998   2.530   4.941 -1.2909  0.1919  0.9090
11539TIP3    H256033   5.143   2.558   4.973 -1.0476  0.1997 -0.1368
11540TIP3   OH256034   5.243   0.809  10.575 -0.2268  0.1384 -0.2454
11540TIP3    H156035   5.311   0.750  10.605  0.0700  0.8170  0.4217
11540TIP3    H256036   5.165   0.782  10.623 -0.4525 -0.6454 -1.0188
11541TIP3   OH256037   0.783   3.739  13.686  0.2077 -0.5146  0.3709
11541TIP3    H156038   0.795   3.698  13.600  0.0194 -0.6627  0.4131
11541TIP3    H256039   0.820   3.827  13.676  0.9474 -0.8197  0.3915
11542TIP3   OH256040   1.530   0.334  14.413 -0.4873  1.0247  0.1142
11542TIP3    H156041   1.608   0.365  14.457 -0.7304  0.0894  1.2407
11542TIP3    H256042   1.515   0.246  14.447  0.2362 -0.4616 -3.0466
11543TIP3   OH256043   2.170   5.803  11.746 -0.0454 -0.1561 -0.8718
11543TIP3    H156044   2.159   5.795  11.841  2.1450 -0.8123 -0.6134
11543TIP3    H256045   2.181   5.898  11.732 -0.5505 -0.0395 -0.4901
11544TIP3   OH256046   5.771   4.529   5.495 -0.2307  0.2378  0.2279
11544TIP3    H156047   5.734   4.617   5.503  1.9420  1.1504  0.9167
11544TIP3    H256048   5.782   4.499   5.585  2.0459  0.6569  0.1574
11545TIP3   OH256049   5.095   4.846  15.687 -0.0913  0.2730  0.0892
11545TIP3    H156050   5.160   4.788  15.726  0.2157 -0.0396 -0.8620
11545TIP3    H256051   5.145   4.921  15.655 -0.4058  0.7733  0.7171
11546TIP3   OH256052   3.193   3.829   4.063  0.5406  0.0350  0.0925
11546TIP3    H156053   3.167   3.815   4.153 -0.2456 -1.2197 -0.3048
11546TIP3    H256054   3.127   3.783   4.011 -0.0432  2.1990 -1.2193
11547TIP3   OH256055   4.524   2.481   3.272  0.6687 -0.2514 -0.0230
11547TIP3    H156056   4.557   2.501   3.185  0.1454  0.3235 -0.0970
11547TIP3    H256057   4.587   2.418   3.308  1.2289 -0.0133 -0.5704
11548TIP3   OH256058   0.534   5.146   4.472 -0.0122  0.0872  0.3965
11548TIP3    H156059   0.467   5.166   4.407  0.0292 -0.8677  0.0401
11548TIP3    H256060   0.528   5.216   4.536 -0.3371  0.8204 -0.4236
11549TIP3   OH256061   5.455   6.218   3.473  0.0470 -0.1224  0.1578
11549TIP3    H156062   5.520   6.245   3.409  0.3214 -3.5644 -1.2080
11549TIP3    H256063   5.499   6.229   3.558  1.2716  0.4665 -0.5280
11550TIP3   OH256064   3.233   3.986  16.559 -0.1266 -1.1150 -0.3862
11550TIP3    H156065   3.142   3.973  16.585 -0.0758  0.8117  0.9033
11550TIP3    H256066   3.276   3.903  16.580 -0.9156 -0.9489  2.1161
11551TIP3   OH256067   5.645   3.598  16.576 -0.2795  0.3532  0.6973
11551TIP3    H156068   5.604   3.518  16.546  0.7846  0.3927 -0.9907
11551TIP3    H256069   5.738   3.586  16.557  0.0585  1.5290  1.4759
11552TIP3   OH256070   2.748   0.385   1.179  0.5806 -0.1676 -0.7147
11552TIP3    H156071   2.787   0.457   1.129 -1.2303  1.3233 -0.0639
11552TIP3    H256072   2.723   0.424   1.263  2.7800 -2.4207  1.1445
11553TIP3   OH256073   1.888   1.090  11.612 -0.6154 -0.6491 -0.0749
11553TIP3    H156074   1.912   1.086  11.519 -0.7303 -1.9054 -0.0781
11553TIP3    H256075   1.798   1.056  11.614 -1.0211  0.4354  0.3716
11554TIP3   OH256076   5.817   1.436  15.032 -0.1416 -0.0922 -0.3221
11554TIP3    H156077   5.767   1.515  15.014 -0.4187 -0.2199 -0.1185
11554TIP3    H256078   5.900   1.467  15.068 -0.1099  0.1166 -0.5743
11555TIP3   OH256079   4.994   5.197   3.662  0.0590  0.1132  0.0542
11555TIP3    H156080   4.985   5.289   3.635  0.8881  0.0162 -0.5819
11555TIP3    H256081   5.002   5.149   3.580 -0.4846 -0.5532  0.3798
11556TIP3   OH256082   2.253   5.676   0.621  0.0942 -0.0048  0.0421
11556TIP3    H156083   2.184   5.678   0.687  0.5552  2.8325  0.5463
11556TIP3    H256084   2.215   5.715   0.543 -0.0470 -2.1785 -1.0698
11557TIP3   OH256085   3.041   3.699  15.421 -0.5733 -0.2209 -0.0214
11557TIP3    H156086   2.972   3.722  15.358 -0.8705 -1.4164 -0.1434
11557TIP3    H256087   3.118   3.682  15.366 -0.3754  0.3541  0.0654
11558TIP3   OH256088   1.864   3.116  16.286  0.2440  0.0900  0.7471
11558TIP3    H156089   1.912   3.042  16.324  2.0477  0.9521  0.2345
11558TIP3    H256090   1.772   3.092  16.296  0.7329 -1.2738  2.5002
11559TIP3   OH256091   2.950   2.522  16.576  0.4356 -0.4277  0.1372
11559TIP3    H156092   2.856   2.533  16.586  0.3061 -0.8337 -0.5462
11559TIP3    H256093   2.988   2.591  16.630 -0.2270 -0.9035  1.2463
11560TIP3   OH256094   3.433   3.791  13.365  0.0748 -0.2396 -0.5826
11560TIP3    H156095   3.346   3.790  13.325 -0.3597  0.9271  0.2786
11560TIP3    H256096   3.478   3.716  13.325 -1.6094 -1.4201 -0.3873
11561TIP3   OH256097   3.843   0.127   0.024 -0.1469  0.5565 -0.9465
11561TIP3    H156098   3.919   0.073   0.000 -1.5184 -1.4829 -0.9059
11561TIP3    H256099   3.830   0.185  -0.052  0.9472  0.3744 -1.2883
11562TIP3   OH256100   2.286   4.883  15.488  1.0429 -0.3100  0.6796
11562TIP3    H156101   2.329   4.807  15.448  0.5905  0.2855 -0.9833
11562TIP3    H256102   2.196   4.855  15.503  0.0170  0.7483 -2.6975
11563TIP3   OH256103   2.953   1.476  11.263 -0.5762 -0.1824  0.2381
11563TIP3    H156104   2.940   1.424  11.184 -0.4346 -2.6025  1.7027
11563TIP3    H256105   3.032   1.441  11.303 -0.0776  1.6625  0.9783
11564TIP3   OH256106   0.242   3.137   2.071 -0.1320 -0.2487  0.3997
11564TIP3    H156107   0.277   3.057   2.032 -0.2507  0.2979 -0.8876
11564TIP3    H256108   0.252   3.203   2.002 -1.1430  0.5633  1.0107
11565TIP3   OH256109   1.307   0.942   4.984  0.0010 -0.1591 -0.4847
11565TIP3    H156110   1.237   0.878   4.993  0.0043 -0.0002  0.9689
11565TIP3    H256111   1.335   0.934   4.893 -0.0752 -2.1256 -0.3818
11566TIP3   OH256112   5.628   4.682  12.487  0.1763 -0.3560  0.7806
11566TIP3    H156113   5.569   4.637  12.428 -0.1103  2.1576 -1.0180
11566TIP3    H256114   5.571   4.725  12.551  0.4394 -2.2062  2.3822
11567TIP3   OH256115   6.348   1.258   2.467 -0.1037  0.3346 -0.5135
11567TIP3    H156116   6.318   1.194   2.402 -1.3468 -0.4593  0.7830
11567TIP3    H256117   6.365   1.337   2.417 -0.4063 -0.4372 -1.8916
11568TIP3   OH256118   3.628   0.960  15.613  0.4636  0.1176 -0.4164
11568TIP3    H156119   3.699   0.940  15.553 -1.0436  0.4479 -2.4054
11568TIP3    H256120   3.567   1.013  15.562 -0.1205  1.8638  1.9131
11569TIP3   OH256121   1.080   4.983  16.225  0.3589  0.1729 -0.1294
11569TIP3    H156122   0.989   5.009  16.215  0.1211 -0.7427 -0.4429
11569TIP3    H256123   1.080   4.889  16.207  1.3712  0.1743 -0.1834
11570TIP3   OH256124   5.089   1.278   0.884 -0.3782  0.2319 -0.1315
11570TIP3    H156125   5.162   1.221   0.859 -0.1638  0.0046  0.9273
11570TIP3    H256126   5.037   1.224   0.944  0.6985  1.6264  2.1891
11571TIP3   OH256127   3.263   6.712   3.712 -0.3904  0.3574 -0.2773
11571TIP3    H156128   3.197   6.682   3.775 -1.3592  1.2243 -0.8591
11571TIP3    H256129   3.346   6.705   3.760 -0.7321 -1.7220  0.1274
11572TIP3   OH256130   4.098   4.399  16.362 -0.3121  0.0881  0.3273
11572TIP3    H156131   4.063   4.405  16.273 -0.4981  0.4012  0.4194
11572TIP3    H256132   4.191   4.416  16.352 -0.4418  0.7940  0.2729
11573TIP3   OH256133   4.197   0.543   5.440 -0.2482 -0.2314  0.3532
11573TIP3    H156134   4.271   0.483   5.429  1.0707  1.1225  1.4680
11573TIP3    H256135   4.190   0.588   5.355 -0.7096 -1.3084 -0.2065
11574TIP3   OH256136   6.418   3.011  15.231  0.7678 -0.2817 -0.1475
11574TIP3    H156137   6.469   2.931  15.244  1.0304 -0.0511  0.2361
11574TIP3    H256138   6.467   3.061  15.165  2.3544  1.0436  1.9212
11575TIP3   OH256139   3.641   2.108   3.226 -0.2618 -0.5491  0.4362
11575TIP3    H156140   3.593   2.057   3.161 -0.8440 -0.2333  0.6161
11575TIP3    H256141   3.698   2.044   3.268  0.1064 -0.7585 -0.3642
11576TIP3   OH256142   3.115   4.319   4.889 -0.1259  0.4109 -0.4479
11576TIP3    H156143   3.118   4.374   4.967 -1.4905  1.4103 -1.0457
11576TIP3    H256144   3.064   4.243   4.915 -2.3901  1.6956 -0.8477
11577TIP3   OH256145   5.062   2.294   6.258  0.0789  0.5929 -0.0537
11577TIP3    H156146   5.112   2.212   6.261 -0.0464  0.5422  1.6756
11577TIP3    H256147   4.974   2.268   6.286 -0.9147  0.7379 -2.7398
11578TIP3   OH256148   4.645   2.897  11.753  0.4847  0.6035 -0.5321
11578TIP3    H156149   4.664   2.845  11.675  0.4113  0.7821 -0.6711
11578TIP3    H256150   4.580   2.845  11.802  0.6731  0.4039 -0.4956
11579TIP3   OH256151   3.968   3.513  13.659  0.3236 -0.3483 -0.0622
11579TIP3    H156152   4.004   3.550  13.578 -0.7371 -2.4130 -1.5687
11579TIP3    H256153   3.878   3.545  13.662  0.0864 -0.9871 -0.1936
11580TIP3   OH256154   1.906   5.709  13.035 -0.2986  0.1315 -0.4820
11580TIP3    H156155   1.864   5.780  12.987 -0.1076 -0.3480 -1.3834
11580TIP3    H256156   1.881   5.724  13.127 -0.9447  0.8726 -0.7669
11581TIP3   OH256157   1.342   0.434  12.740  0.3040 -0.1867 -0.8720
11581TIP3    H156158   1.285   0.501  12.779  2.1848  0.7565  0.4249
11581TIP3    H256159   1.354   0.462  12.649 -1.3256 -0.4505 -1.1896
11582TIP3   OH256160   2.710   4.139   0.079 -0.2716  0.8869 -0.3672
11582TIP3    H156161   2.638   4.201   0.088  0.9825  2.0625  4.1896
11582TIP3    H256162   2.789   4.192   0.093  0.9081 -1.4142  2.6068
11583TIP3   OH256163   6.680   1.105   1.397 -0.5055  0.0168 -0.1043
11583TIP3    H156164   6.613   1.074   1.336  0.2798 -1.0985 -0.4212
11583TIP3    H256165   6.716   1.025   1.436  1.1406  0.5413 -0.4805
11584TIP3   OH256166   2.845   6.677   3.994  1.1035 -0.4698  0.0543
11584TIP3    H156167   2.769   6.680   3.935  0.7506 -1.9094  0.4029
11584TIP3    H256168   2.816   6.723   4.073  1.9103  2.3878 -1.1678
11585TIP3   OH256169   6.243   5.087   5.640 -0.4207 -0.0090  0.0358
11585TIP3    H156170   6.297   5.016   5.673  2.6800  2.1089 -0.1009
11585TIP3    H256171   6.222   5.063   5.550 -1.3444 -1.6880  0.6530
11586TIP3   OH256172   6.303   6.143   3.680 -0.1284  0.3815 -0.4146
11586TIP3    H156173   6.340   6.229   3.701  1.3695 -0.1070 -0.9170
11586TIP3    H256174   6.379   6.089   3.658 -1.1704 -0.6576 -1.5889
11587TIP3   OH256175   0.625   2.894   3.612  0.0486 -0.2263  0.6358
11587TIP3    H156176   0.660   2.903   3.700 -0.9660 -0.3875  1.0691
11587TIP3    H256177   0.574   2.813   3.614  0.2574 -0.3865 -0.1805
11588TIP3   OH256178   1.429   2.227  15.439  0.2453  0.0551 -0.3643
11588TIP3    H156179   1.369   2.274  15.381  0.3913 -0.4950 -0.9705
11588TIP3    H256180   1.503   2.204  15.383  0.2699 -0.7144 -0.0205
11589TIP3   OH256181   5.371   4.387  14.565 -0.1437 -0.3687  0.5557
11589TIP3    H156182   5.304   4.319  14.554 -1.0334  0.8318 -2.6968
11589TIP3    H256183   5.330   4.453  14.620 -0.1985 -1.2585  1.6314
11590TIP3   OH256184   0.783   2.847  14.422  0.2409 -0.8411 -0.5712
11590TIP3    H156185   0.722   2.919  14.405 -1.8539 -2.4824 -0.3464
11590TIP3    H256186   0.742   2.770  14.383  1.4155 -2.3231  0.9345
11591TIP3   OH256187   6.576   4.022  13.736  0.4020  0.3188 -0.1404
11591TIP3    H156188   6.536   4.078  13.803 -0.5896  0.0189 -0.4578
11591TIP3    H256189   6.612   4.083  13.672 -0.4832  0.6069 -0.3756
11592TIP3   OH256190   3.439   4.144  15.727 -0.1676 -0.0409  0.1259
11592TIP3    H156191   3.418   4.179  15.640 -0.6102  1.3302  0.7538
11592TIP3    H256192   3.535   4.149  15.732 -0.2576  2.9588  0.8666
11593TIP3   OH256193   6.287   5.215  14.481  0.1861 -0.3067 -0.1274
11593TIP3    H156194   6.300   5.120  14.488 -0.3997 -0.4369 -0.7105
11593TIP3    H256195   6.303   5.248  14.569 -1.1029 -1.1335  0.4533
11594TIP3   OH256196   5.872   1.775  14.109 -0.2125 -0.1580  0.3462
11594TIP3    H156197   5.941   1.723  14.068 -0.7623  0.7456 -1.8524
11594TIP3    H256198   5.852   1.843  14.046 -1.7515  0.8139  1.7861
11595TIP3   OH256199   2.080   6.563  15.553  0.1659 -0.1209 -0.3157
11595TIP3    H156200   2.117   6.614  15.625  0.0794 -1.5639  0.8036
11595TIP3    H256201   2.022   6.500  15.595 -0.8199 -0.2348 -1.7628
11596TIP3   OH256202   3.862   1.960   6.575  0.2613  0.8869  0.2955
11596TIP3    H156203   3.770   1.946   6.554 -0.2686  0.5838  2.6118
11596TIP3    H256204   3.862   2.017   6.651  2.0640  1.9979 -0.4621
11597TIP3   OH256205   0.841   0.071   1.533 -0.7204  0.0090  0.3945
11597TIP3    H156206   0.896   0.050   1.608  1.7556  0.0036 -1.3246
11597TIP3    H256207   0.815   0.162   1.546 -1.4911 -0.3907  1.8847
11598TIP3   OH256208   1.570   2.958  11.831  0.5323 -0.0943 -0.0108
11598TIP3    H156209   1.554   2.905  11.753  0.9756 -1.6669  0.9249
11598TIP3    H256210   1.665   2.953  11.844  0.5766  0.9362  0.1028
11599TIP3   OH256211   2.114   4.192   4.593 -0.4943  0.2079 -0.0312
11599TIP3    H156212   2.034   4.148   4.564 -0.0878  0.3551 -1.4425
11599TIP3    H256213   2.164   4.208   4.513  0.4271  1.1638  0.6930
11600TIP3   OH256214   4.006   4.285  12.280 -0.3639 -0.0510  0.1776
11600TIP3    H156215   3.923   4.241  12.259  0.6596 -1.8810 -0.2582
11600TIP3    H256216   4.015   4.354  12.214 -0.9670 -0.6246 -0.5146
11601TIP3   OH256217   0.036   2.201  13.616  0.5044 -0.1040  0.0180
11601TIP3    H156218   0.091   2.266  13.660  1.3109 -1.2445  0.7585
11601TIP3    H256219  -0.021   2.168  13.685 -1.1808  1.0743 -0.7488
11602TIP3   OH256220   0.356   4.809  11.616  0.5871 -0.1084 -0.2062
11602TIP3    H156221   0.347   4.877  11.550  0.5263 -0.0575 -0.1464
11602TIP3    H256222   0.316   4.731  11.577 -0.5519  0.2329  0.2215
11603TIP3   OH256223   2.643   0.119   1.828 -0.1691  0.4652  0.0232
11603TIP3    H156224   2.606   0.113   1.740 -2.6647 -1.4158  1.0869
11603TIP3    H256225   2.737   0.116   1.815 -0.4520  0.8964 -2.5972
11604TIP3   OH256226   2.255   1.311  16.958 -0.4416 -0.8383 -0.7704
11604TIP3    H156227   2.265   1.338  16.867  1.6722  0.1100 -0.3216
11604TIP3    H256228   2.161   1.314  16.974 -0.9640 -1.9418 -3.1610
11605TIP3   OH256229   5.323   0.637  12.033 -0.3536  0.0718  0.1222
11605TIP3    H156230   5.299   0.548  12.058  0.6529  0.3444  2.2686
11605TIP3    H256231   5.341   0.681  12.115 -0.5032  2.1979 -0.9131
11606TIP3   OH256232   4.396   1.260  12.302 -0.3521 -0.2374  0.7817
11606TIP3    H156233   4.455   1.196  12.342  0.1589  0.7281  1.6237
11606TIP3    H256234   4.370   1.317  12.374  2.3270  2.9429 -0.4981
11607TIP3   OH256235   4.129   1.919   3.843  0.4290  0.0875  0.6529
11607TIP3    H156236   4.224   1.916   3.838  0.3604 -0.7965 -0.7312
11607TIP3    H256237   4.104   1.832   3.875  0.0597 -0.0943 -0.0887
11608TIP3   OH256238   1.833   5.120  14.284 -0.2481  0.0137  0.0478
11608TIP3    H156239   1.770   5.053  14.312 -0.1624 -1.6095 -3.1981
11608TIP3    H256240   1.916   5.073  14.278  0.2920  0.9813 -0.1476
11609TIP3   OH256241   1.987   6.389  11.023  0.8448  0.0213 -0.1172
11609TIP3    H156242   2.041   6.377  11.100 -0.9573  1.6905  1.5180
11609TIP3    H256243   1.934   6.310  11.017 -2.0121  1.4236  3.0341
11610TIP3   OH256244   2.359   0.390  12.274 -0.0671 -0.0418  1.3119
11610TIP3    H156245   2.299   0.325  12.308 -0.6374  0.2602  0.8970
11610TIP3    H256246   2.315   0.427  12.198 -0.0268  1.2444  1.8720
11611TIP3   OH256247   3.982   1.967   0.802 -0.1356 -0.3808  0.3679
11611TIP3    H156248   4.061   1.991   0.753 -0.1188 -0.7866  0.1960
11611TIP3    H256249   4.010   1.893   0.856 -0.1607  0.0444  0.9723
11612TIP3   OH256250   5.342   4.684   5.588  0.7152  0.4342  0.6971
11612TIP3    H156251   5.388   4.685   5.673  1.2873  1.7340  0.4068
11612TIP3    H256252   5.371   4.603   5.546  1.2226  0.2747  1.3288
11613TIP3   OH256253   1.293   2.950  14.406  0.1671 -0.1857  0.4421
11613TIP3    H156254   1.205   2.975  14.436  0.1775  0.5042 -0.0837
11613TIP3    H256255   1.333   3.032  14.378  0.3843 -0.7112 -0.8689
11614TIP3   OH256256   6.721   5.092   1.795 -0.1202  0.6979 -0.5069
11614TIP3    H156257   6.686   5.006   1.814  0.1365  0.5093 -0.8770
11614TIP3    H256258   6.741   5.129   1.881  1.7683 -0.4604 -0.3750
11615TIP3   OH256259   4.972   2.961  10.839 -0.4307  0.1672 -0.9195
11615TIP3    H156260   5.037   2.892  10.854  0.7865  0.8064 -2.8048
11615TIP3    H256261   5.020   3.029  10.792 -2.3145  0.9937 -1.7559
11616TIP3   OH256262   0.673   6.664   2.692  0.0025  0.2137 -0.6654
11616TIP3    H156263   0.656   6.714   2.612 -1.4458  1.1030  0.1690
11616TIP3    H256264   0.755   6.701   2.726  1.0434 -0.6851 -2.0972
11617TIP3   OH256265   3.444   4.062  14.505 -0.2201 -0.1753  0.1241
11617TIP3    H156266   3.383   3.988  14.503 -1.4550  0.7652  1.1815
11617TIP3    H256267   3.446   4.089  14.597 -0.0488  1.2988 -0.2799
11618TIP3   OH256268   0.389   0.102  12.905  0.1596 -0.2838  0.0265
11618TIP3    H156269   0.426   0.019  12.936  0.2744  0.5449  2.3018
11618TIP3    H256270   0.296   0.083  12.890  0.0680 -0.7304  1.0531
11619TIP3   OH256271   0.571   4.058   3.845 -0.0457 -0.0226 -0.2545
11619TIP3    H156272   0.631   4.124   3.877  0.2876  0.4749 -1.7984
11619TIP3    H256273   0.588   4.053   3.751  0.3400 -2.7060 -0.1405
11620TIP3   OH256274   4.014   0.984   4.186 -0.3177  0.2937  0.3707
11620TIP3    H156275   4.015   1.068   4.232  3.1744 -0.2906  1.6026
11620TIP3    H256276   4.052   0.922   4.247  1.1491 -1.3096 -1.9989
11621TIP3   OH256277   0.042   3.536  13.115  0.1581  0.0735  0.3553
11621TIP3    H156278   0.014   3.532  13.023  0.4118 -1.3737  0.3194
11621TIP3    H256279  -0.021   3.595  13.156 -0.0515  0.6331 -0.7090
11622TIP3   OH256280   0.970   1.955  17.080 -0.3721 -0.0805  0.1296
11622TIP3    H156281   1.015   1.893  17.021  0.4522  1.1735 -0.6135
11622TIP3    H256282   1.041   2.004  17.122 -1.0082  0.8653  0.1374
11623TIP3   OH256283   1.061   1.240  16.071 -0.1869 -0.2611  0.5574
11623TIP3    H156284   0.976   1.218  16.110 -1.0982  2.1595  0.0855
11623TIP3    H256285   1.040   1.293  15.994  1.7247  2.2647  1.6178
11624TIP3   OH256286   2.237   2.725   5.493  0.0573 -0.5853  0.6541
11624TIP3    H156287   2.259   2.816   5.470  0.1025 -0.7744 -0.0549
11624TIP3    H256288   2.287   2.709   5.573  2.2789 -0.8783 -0.7183
11625TIP3   OH256289   3.817   5.674  14.906  0.2313 -0.4566 -0.1648
11625TIP3    H156290   3.777   5.587  14.903 -0.2928 -0.2061 -3.4046
11625TIP3    H256291   3.743   5.735  14.911  0.4634 -0.1295 -0.6528
11626TIP3   OH256292   3.663   1.257  11.465  0.3276  0.0006  0.0995
11626TIP3    H156293   3.669   1.273  11.559  0.1814 -1.7800  0.4507
11626TIP3    H256294   3.670   1.343  11.425  0.4983  0.7764  1.7378
11627TIP3   OH256295   5.703   1.117  10.463 -0.4058 -0.1278  0.1330
11627TIP3    H156296   5.673   1.049  10.523 -1.2876 -0.1232 -0.2904
11627TIP3    H256297   5.629   1.178  10.457  0.4471  0.9896  0.6764
11628TIP3   OH256298   2.820   6.009   3.045 -0.2025 -0.1315  0.3365
11628TIP3    H156299   2.870   5.963   2.977  1.3206  0.4773  0.9889
11628TIP3    H256300   2.752   6.057   2.998  1.1421  0.6897 -0.8373
11629TIP3   OH256301   4.161   4.693  15.048 -0.1475 -0.2535 -0.2084
11629TIP3    H156302   4.131   4.646  15.125 -0.3248  0.7324  0.3496
11629TIP3    H256303   4.102   4.667  14.978 -2.9360  2.2022  1.0046
11630TIP3   OH256304   4.265   4.888   4.593 -0.2877  0.3452  0.5267
11630TIP3    H156305   4.344   4.914   4.641 -0.1728 -0.0616  0.5616
11630TIP3    H256306   4.265   4.945   4.516 -0.5278  1.0700  1.0538
11631TIP3   OH256307   0.599   2.453   4.324  0.2303  0.1022  0.1248
11631TIP3    H156308   0.541   2.443   4.400  0.8623  2.0141  0.9052
11631TIP3    H256309   0.685   2.425   4.356 -0.0200 -1.8881 -0.7798
11632TIP3   OH256310   2.446   5.502   3.610  0.1606 -0.4715  0.2283
11632TIP3    H156311   2.351   5.504   3.618  0.2162  1.4724  1.0548
11632TIP3    H256312   2.464   5.429   3.551 -1.9642  0.3823 -1.6029
11633TIP3   OH256313   2.600   5.669  11.115 -0.1102 -0.2343  0.4764
11633TIP3    H156314   2.679   5.701  11.159  0.2956 -0.1259 -0.3244
11633TIP3    H256315   2.626   5.586  11.075 -0.0305  0.4409 -0.8969
11634TIP3   OH256316   1.414   0.012   0.870 -0.3547  0.0929 -0.3413
11634TIP3    H156317   1.403   0.073   0.943 -2.2265 -2.1102  1.3491
11634TIP3    H256318   1.491  -0.040   0.892 -1.1918 -0.8823  0.3354
11635TIP3   OH256319   2.796   4.776   5.842 -0.3368 -0.2293  0.0551
11635TIP3    H156320   2.802   4.764   5.937 -1.5251 -1.0340  0.0538
11635TIP3    H256321   2.713   4.821   5.829  0.2727  0.7563 -0.5574
11636TIP3   OH256322   3.332   3.346   1.742 -0.2024  0.2850 -0.5493
11636TIP3    H156323   3.350   3.256   1.714  2.9573  1.2554 -1.9872
11636TIP3    H256324   3.343   3.344   1.837  0.1059 -0.7805 -0.5901
11637TIP3   OH256325   3.271   0.538  12.339 -0.4731 -0.1941 -0.1422
11637TIP3    H156326   3.269   0.449  12.303  2.8998 -0.3609 -0.3117
11637TIP3    H256327   3.214   0.589  12.282 -1.8772 -2.0825 -0.5064
11638TIP3   OH256328   0.422   4.547  13.483 -0.6195 -0.0231 -0.6598
11638TIP3    H156329   0.510   4.583  13.486 -1.1254  1.3966 -1.6069
11638TIP3    H256330   0.365   4.624  13.479 -1.8729 -0.9199 -0.6079
11639TIP3   OH256331   0.600   5.159  13.873  0.2599 -0.1483  0.1876
11639TIP3    H156332   0.694   5.176  13.881  0.1989  0.5746 -0.4880
11639TIP3    H256333   0.563   5.185  13.957 -0.1996  5.9146 -1.4196
11640TIP3   OH256334   0.636   1.645  12.151 -0.1730 -0.1378 -0.1711
11640TIP3    H156335   0.723   1.637  12.189  0.5098 -0.0545 -1.6444
11640TIP3    H256336   0.621   1.739  12.142 -1.0249 -0.0898  1.3362
11641TIP3   OH256337   0.908   0.518   5.491 -0.5893  0.0516 -0.3064
11641TIP3    H156338   0.951   0.523   5.406  0.7929  1.0752  0.4226
11641TIP3    H256339   0.860   0.601   5.498 -1.8307 -0.6067 -0.6338
11642TIP3   OH256340   2.006   6.141  12.563 -0.1537 -0.3906  0.1572
11642TIP3    H156341   2.065   6.078  12.604  0.5720 -0.7424 -1.3552
11642TIP3    H256342   2.017   6.221  12.614 -1.0437 -1.4217  2.0729
11643TIP3   OH256343   2.006   2.509   3.062  0.1427  0.2599 -0.2450
11643TIP3    H156344   2.003   2.477   3.153  0.8994 -1.5670 -0.8132
11643TIP3    H256345   1.917   2.500   3.030 -0.3191  1.7221  0.5464
11644TIP3   OH256346   1.735   5.735   0.178  0.2000  0.7716 -0.3889
11644TIP3    H156347   1.672   5.667   0.157 -1.5627  2.4906 -0.8952
11644TIP3    H256348   1.775   5.706   0.261  0.4086 -1.4216 -1.1971
11645TIP3   OH256349   5.627   6.648   1.522  0.8425 -0.4373 -0.4212
11645TIP3    H156350   5.552   6.595   1.496  1.5485 -1.0230 -1.3304
11645TIP3    H256351   5.591   6.712   1.583 -0.3539 -0.8285 -0.6854
11646TIP3   OH256352   3.760   3.958  11.117  0.4319 -0.1030  0.1310
11646TIP3    H156353   3.718   3.942  11.032 -3.3521 -0.4931  1.8597
11646TIP3    H256354   3.789   3.871  11.146  2.2734  0.1134 -0.9183
11647TIP3   OH256355   6.185   2.549  15.140  0.3205 -0.4702  0.2698
11647TIP3    H156356   6.123   2.622  15.135  0.6241 -0.0767  1.5846
11647TIP3    H256357   6.177   2.517  15.230  0.2765 -2.0057 -0.2537
11648TIP3   OH256358   3.839   2.907  11.554  0.2563  0.0830  0.3185
11648TIP3    H156359   3.817   2.818  11.582  0.9882 -0.1840  0.0674
11648TIP3    H256360   3.805   2.963  11.624  0.5656 -0.4607  0.9154
11649TIP3   OH256361   3.106   4.059  16.005 -0.2794 -0.0209  0.4115
11649TIP3    H156362   3.185   4.113  16.010 -0.1574 -0.1915  0.3505
11649TIP3    H256363   3.121   3.988  16.068 -0.2977 -0.1632  0.2565
11650TIP3   OH256364   3.165   4.922   2.210 -0.5767 -0.2410  0.1140
11650TIP3    H156365   3.214   5.004   2.210 -0.0199 -0.5160  2.2303
11650TIP3    H256366   3.089   4.939   2.155  1.3240  0.5266 -2.4259
11651TIP3   OH256367   4.217   3.444   3.668  0.0020 -0.1389 -0.0208
11651TIP3    H156368   4.294   3.499   3.678 -0.2577  0.2974 -0.3893
11651TIP3    H256369   4.149   3.504   3.637  0.1024 -0.9357 -1.8935
11652TIP3   OH256370   2.511   5.322  13.813  0.2390  0.6972 -0.8222
11652TIP3    H156371   2.549   5.248  13.861 -2.2143  0.3663  0.7878
11652TIP3    H256372   2.493   5.287  13.726 -1.0615 -0.7503 -0.0335
11653TIP3   OH256373   2.681   4.393  15.568 -0.4215 -0.0359 -0.4404
11653TIP3    H156374   2.716   4.317  15.521  0.7762  0.4658 -0.3870
11653TIP3    H256375   2.753   4.456  15.568 -1.5841  1.3206 -0.9621
11654TIP3   OH256376   3.129   6.122   3.795 -0.1930 -0.4175 -0.3860
11654TIP3    H156377   3.206   6.121   3.851 -0.0124  0.9745 -0.5921
11654TIP3    H256378   3.156   6.072   3.717  1.0189  1.2428 -1.0898
11655TIP3   OH256379   0.166   5.378   1.783  0.4337 -0.3193  0.6944
11655TIP3    H156380   0.103   5.441   1.817  0.0396 -0.1759 -0.2547
11655TIP3    H256381   0.196   5.417   1.700 -1.2670 -2.2353 -0.9298
11656TIP3   OH256382   0.944   1.965  10.891  0.1705  0.3118  0.2543
11656TIP3    H156383   0.915   2.032  10.829 -0.7646 -0.8911 -0.6574
11656TIP3    H256384   0.918   1.882  10.851 -0.1034 -0.5391  2.0700
11657TIP3   OH256385   6.009   4.020   3.170 -0.4550 -0.3243 -0.6257
11657TIP3    H156386   6.033   4.111   3.151  0.1826 -0.5423 -0.8697
11657TIP3    H256387   5.940   4.027   3.236  0.4960  0.3049  0.3358
11658TIP3   OH256388   1.080   3.385   1.723  0.2321  0.0451 -0.2685
11658TIP3    H156389   1.121   3.462   1.762 -1.8662  1.8953 -1.5330
11658TIP3    H256390   1.119   3.378   1.636  0.9083 -0.7786  0.0832
11659TIP3   OH256391   6.580   4.094  14.159  0.5021 -0.4715  0.0227
11659TIP3    H156392   6.587   4.125  14.068  0.9708  1.7425  0.7395
11659TIP3    H256393   6.659   4.126  14.201  0.1584 -1.2188  1.2929
11660TIP3   OH256394   3.798   1.325   2.979 -0.4260  0.1390 -0.4613
11660TIP3    H156395   3.734   1.293   3.043  1.1849 -1.1577  0.5950
11660TIP3    H256396   3.819   1.413   3.008 -1.8736  0.6632 -0.9519
11661TIP3   OH256397   3.254   4.389  15.930  0.9681 -0.0819  0.1151
11661TIP3    H156398   3.297   4.461  15.977  0.0333  0.7730 -0.3049
11661TIP3    H256399   3.317   4.317  15.934  1.8195  0.6733  0.7689
11662TIP3   OH256400   1.556   1.646  15.864 -0.3905 -0.0395  0.4677
11662TIP3    H156401   1.514   1.609  15.786  1.4354 -2.8013  0.6298
11662TIP3    H256402   1.493   1.631  15.934 -2.0462  2.4604 -0.3638
11663TIP3   OH256403   1.858   2.182   0.748 -0.0413 -0.2826  0.4886
11663TIP3    H156404   1.862   2.260   0.804 -0.0282 -0.5251  0.8279
11663TIP3    H256405   1.896   2.112   0.801  2.0714 -0.0566 -0.6126
11664TIP3   OH256406   3.664   2.692  16.637  0.2323 -0.0974 -0.4591
11664TIP3    H156407   3.700   2.675  16.550 -1.1141  0.2112 -1.1006
11664TIP3    H256408   3.714   2.766  16.670  0.1464  0.3806 -1.3682
11665TIP3   OH256409   1.537   4.497   1.289  0.2263  0.0632 -0.0288
11665TIP3    H156410   1.558   4.445   1.366 -2.2133 -1.4831 -0.3035
11665TIP3    H256411   1.573   4.448   1.215  3.2170  1.9052  0.0167
11666TIP3   OH256412   1.769   6.459   2.740 -0.2716  0.0860 -0.1540
11666TIP3    H156413   1.698   6.463   2.675 -1.6163  0.2935  1.2495
11666TIP3    H256414   1.747   6.383   2.794  0.1066  0.6413  0.8045
11667TIP3   OH256415   5.447   4.200   1.956  0.0304  0.2959 -0.1568
11667TIP3    H156416   5.538   4.223   1.977 -0.1556  2.3097 -1.2894
11667TIP3    H256417   5.396   4.240   2.027 -0.0842  0.8144 -0.5242
11668TIP3   OH256418   0.196   6.536  15.984 -0.5885  0.0094  0.2214
11668TIP3    H156419   0.105   6.506  15.993 -0.8302  0.3230 -1.0071
11668TIP3    H256420   0.201   6.615  16.038 -0.7700 -0.5269  1.0524
11669TIP3   OH256421   3.048   1.154  11.943  0.1743  0.1101  0.0077
11669TIP3    H156422   3.133   1.110  11.946 -0.8936 -2.1466 -0.4984
11669TIP3    H256423   2.992   1.103  12.002 -1.1462  0.7843 -0.6112
11670TIP3   OH256424   0.759   0.601   0.554  0.1567 -0.0948  0.4988
11670TIP3    H156425   0.830   0.552   0.595  0.2005  0.2766  0.8819
11670TIP3    H256426   0.789   0.692   0.557  0.9570 -0.2042 -1.9346
11671TIP3   OH256427   1.791   4.743  11.248  0.2017 -0.0797  0.5075
11671TIP3    H156428   1.873   4.758  11.295 -0.4809 -2.1364  2.5648
11671TIP3    H256429   1.726   4.792  11.299 -0.0125  0.9579 -0.7017
11672TIP3   OH256430   3.145   1.446  16.468 -0.3863  0.7600 -0.6545
11672TIP3    H156431   3.161   1.371  16.411 -0.8874  0.5858 -0.5666
11672TIP3    H256432   3.121   1.517  16.408 -2.6182  0.1385 -0.5881
11673TIP3   OH256433   6.179   3.705  13.828 -0.2736 -0.2561 -0.6084
11673TIP3    H156434   6.125   3.678  13.902 -1.8447 -1.2268 -2.0471
11673TIP3    H256435   6.263   3.660  13.842  0.3778  1.4916  1.7942
11674TIP3   OH256436   1.162   1.346  15.598  0.1552  0.0866  0.9227
11674TIP3    H156437   1.166   1.429  15.646  1.6609  1.9069 -2.0210
11674TIP3    H256438   1.241   1.299  15.626  0.7611  0.9010  0.6350
11675TIP3   OH256439   3.721   6.258  12.985 -0.0493  0.0481  0.0808
11675TIP3    H156440   3.674   6.337  12.957 -2.4849 -0.2304  2.8336
11675TIP3    H256441   3.694   6.190  12.923 -1.9630  0.3331  0.5429
11676TIP3   OH256442   0.551   5.020   3.264  0.3383  0.6166  0.1797
11676TIP3    H156443   0.638   5.024   3.304  1.0857  0.7894 -1.3789
11676TIP3    H256444   0.538   5.107   3.227  0.0952  0.1779 -0.7775
11677TIP3   OH256445   4.368   3.469  17.168 -0.2038  0.0383 -0.7172
11677TIP3    H156446   4.423   3.448  17.244  0.4069  0.3190 -1.0737
11677TIP3    H256447   4.372   3.391  17.113 -1.0163 -0.3416 -0.2562
11678TIP3   OH256448   3.517   3.712  16.689 -0.5822  0.2166 -0.0644
11678TIP3    H156449   3.609   3.686  16.679 -1.1587 -1.9318 -0.2926
11678TIP3    H256450   3.490   3.737  16.600 -0.4009  0.1914 -0.1285
11679TIP3   OH256451   2.095   1.256  13.537 -0.2281  0.3688 -0.0942
11679TIP3    H156452   2.008   1.293  13.553 -0.1255  0.6955 -0.2958
11679TIP3    H256453   2.136   1.252  13.623 -0.4494  0.1911  0.0052
11680TIP3   OH256454   4.162   1.067   1.048 -0.7107  0.0123 -0.0553
11680TIP3    H156455   4.114   1.129   1.103 -0.3291  0.8793 -0.6741
11680TIP3    H256456   4.228   1.120   1.004 -1.0487 -0.6311 -1.4024
11681TIP3   OH256457   3.477   2.124  14.820  0.0511 -0.1469 -0.4928
11681TIP3    H156458   3.416   2.049  14.819 -1.7277  1.2455 -1.5373
11681TIP3    H256459   3.523   2.118  14.736  1.9303 -1.5571  0.5507
11682TIP3   OH256460   6.023   2.509   1.252  0.0801  0.4015 -1.0646
11682TIP3    H156461   6.054   2.424   1.220 -1.6232 -0.4758 -0.5098
11682TIP3    H256462   6.097   2.545   1.300  0.7550 -0.8844 -1.0948
11683TIP3   OH256463   5.929   1.718  12.670 -0.1580  0.6334 -0.3928
11683TIP3    H156464   5.979   1.797  12.690  0.1283  0.1013  1.1061
11683TIP3    H256465   5.970   1.649  12.722  0.0842 -0.7088 -2.2349
11684TIP3   OH256466   2.812   5.202  11.463 -0.3914 -0.4711  0.2953
11684TIP3    H156467   2.826   5.119  11.507 -1.4309 -0.5115  0.5808
11684TIP3    H256468   2.718   5.203  11.441 -0.4583  0.7123  0.5173
11685TIP3   OH256469   1.676   2.043  14.172 -0.9459 -0.1106  0.2684
11685TIP3    H156470   1.616   2.056  14.098 -2.3410  2.3113  1.6992
11685TIP3    H256471   1.618   2.034  14.248  0.4685  0.3448  1.4352
11686TIP3   OH256472   2.476   0.950  16.967  0.0213  0.5094  0.3270
11686TIP3    H156473   2.483   0.867  16.920 -2.5757 -1.5452  3.1787
11686TIP3    H256474   2.531   0.938  17.045 -0.4621  1.4504  0.8224
11687TIP3   OH256475   1.481   1.795  15.190  0.2087 -0.0095  0.0338
11687TIP3    H156476   1.464   1.779  15.283  0.2892  2.7513  0.6067
11687TIP3    H256477   1.402   1.838  15.158  1.0263  1.0633 -0.5962
11688TIP3   OH256478   5.176   0.267  11.198  0.3411 -0.1892 -0.4232
11688TIP3    H156479   5.082   0.269  11.178  0.0341  1.3923  1.0461
11688TIP3    H256480   5.199   0.174  11.188 -1.3224 -0.5943 -0.9755
11689TIP3   OH256481   6.236   5.730   5.871 -0.8427 -0.4910 -0.1371
11689TIP3    H156482   6.177   5.732   5.947 -0.3383  0.4102  0.2566
11689TIP3    H256483   6.317   5.692   5.905 -0.2854  0.8036  0.0554
11690TIP3   OH256484   1.037   6.272   4.762  0.2245  0.3016  0.1562
11690TIP3    H156485   1.107   6.255   4.699 -0.9772 -3.0218 -0.4759
11690TIP3    H256486   1.052   6.362   4.790  3.6528  0.3345 -1.2644
11691TIP3   OH256487   4.501   2.697   2.542  0.7628 -0.2848  0.2186
11691TIP3    H156488   4.459   2.620   2.503  0.5352  0.5833 -1.3309
11691TIP3    H256489   4.479   2.769   2.482  2.6397  0.6134  0.5482
11692TIP3   OH256490   5.996   3.465   6.259 -0.5172 -0.1319 -0.5418
11692TIP3    H156491   6.028   3.499   6.176 -1.3893 -1.7376 -1.5773
11692TIP3    H256492   6.027   3.374   6.261 -2.8266 -0.9604 -0.4177
11693TIP3   OH256493   0.425   1.966   4.638  0.1526 -0.1867 -0.1868
11693TIP3    H156494   0.454   2.042   4.689 -0.3967 -0.3098  0.3239
11693TIP3    H256495   0.506   1.924   4.608  0.4731  0.1441  0.2126
11694TIP3   OH256496   0.272   1.840  16.659 -0.2955  0.2856 -0.1922
11694TIP3    H156497   0.198   1.792  16.696 -0.0602 -0.5075 -0.7528
11694TIP3    H256498   0.276   1.812  16.568  1.1922 -0.2914  0.0343
11695TIP3   OH256499   0.965   3.021   3.034  0.1775 -0.4803 -0.1671
11695TIP3    H156500   0.929   2.947   2.985 -0.6707 -0.9314  1.0779
11695TIP3    H256501   0.888   3.067   3.067  0.7225  0.2124  0.1551
11696TIP3   OH256502   6.761   2.697   4.504  0.4313 -0.3695  0.1659
11696TIP3    H156503   6.720   2.620   4.544  0.7994 -0.0553  1.1902
11696TIP3    H256504   6.763   2.762   4.574 -0.4565  0.8062 -0.8598
11697TIP3   OH256505   1.491   0.583   3.484 -0.4092  0.4848  0.0064
11697TIP3    H156506   1.530   0.571   3.397 -2.4602  0.6200 -1.0056
11697TIP3    H256507   1.514   0.672   3.509 -2.1450  1.5224 -1.7669
11698TIP3   OH256508   4.473   5.933   0.926  0.0174  0.7390 -0.2512
11698TIP3    H156509   4.479   5.919   0.832  2.8514  0.6159 -0.1320
11698TIP3    H256510   4.559   5.908   0.960 -0.8262  1.0413  2.3476
11699TIP3   OH256511   1.623   0.736   3.789 -0.0803 -0.1720 -0.3942
11699TIP3    H156512   1.591   0.822   3.817 -0.4690 -0.1983 -0.7373
11699TIP3    H256513   1.682   0.754   3.716  2.6207  0.0625  1.7300
11700TIP3   OH256514   5.074   0.502  14.204 -0.6197  0.1130  0.6896
11700TIP3    H156515   5.124   0.424  14.226 -0.6738  0.7404  3.5251
11700TIP3    H256516   5.004   0.471  14.146 -0.1068 -1.7527  1.0040
11701TIP3   OH256517   4.812   0.513   6.210 -0.3071  0.9860  0.0877
11701TIP3    H156518   4.872   0.454   6.255  0.0932  0.8754 -0.5686
11701TIP3    H256519   4.869   0.571   6.160 -0.7432  0.2240 -1.3605
11702TIP3   OH256520   3.995   4.732  16.194  0.0833 -0.6727  0.2250
11702TIP3    H156521   3.944   4.715  16.115  0.4611  0.4744 -0.2887
11702TIP3    H256522   3.933   4.721  16.266 -0.5725 -0.5254 -0.3112
11703TIP3   OH256523   4.333   6.492  12.907  0.1410 -0.3873  0.5701
11703TIP3    H156524   4.385   6.537  12.974 -1.8741 -0.1007  2.0289
11703TIP3    H256525   4.287   6.562  12.861  1.1772 -0.6177 -0.9042
11704TIP3   OH256526   1.227   0.677  13.794 -0.3357 -0.2517  0.3922
11704TIP3    H156527   1.233   0.772  13.798 -2.1581 -0.0933  0.3469
11704TIP3    H256528   1.307   0.646  13.837  0.6662  1.2704 -0.2687
11705TIP3   OH256529   4.706   5.272   4.516  0.1087  0.3808 -0.0050
11705TIP3    H156530   4.793   5.274   4.556 -1.5711 -0.2284  4.2576
11705TIP3    H256531   4.687   5.179   4.505  0.2507  0.5302 -1.7576
11706TIP3   OH256532   6.340   2.466   6.256  0.3226  0.0885  0.3680
11706TIP3    H156533   6.424   2.510   6.269  0.4369 -0.0587  0.1437
11706TIP3    H256534   6.285   2.497   6.328  0.2668  0.9371 -0.0269
11707TIP3   OH256535   3.281   6.514  12.329  0.1497 -0.0253  0.1877
11707TIP3    H156536   3.333   6.435  12.313  0.5460 -0.1552  1.9389
11707TIP3    H256537   3.193   6.492  12.298  0.6025 -0.6252 -0.6856
11708TIP3   OH256538   6.087   0.430  11.843  0.9098 -0.0256 -0.3386
11708TIP3    H156539   6.089   0.345  11.799  1.3185  0.1199 -0.6077
11708TIP3    H256540   6.029   0.484  11.791  0.7008 -0.1209 -0.2042
11709TIP3   OH256541   5.729   0.187   6.025  0.1792  0.3937 -0.4767
11709TIP3    H156542   5.651   0.148   6.065  1.1883 -0.8665  0.3390
11709TIP3    H256543   5.746   0.265   6.078  1.2950 -1.0655  1.4694
11710TIP3   OH256544   4.581   3.719   4.772 -0.3378  0.0328  0.0424
11710TIP3    H156545   4.508   3.658   4.779 -1.2941  0.8720 -1.8756
11710TIP3    H256546   4.562   3.786   4.838 -2.0220  0.9041 -1.2502
11711TIP3   OH256547   3.840   3.514  16.364  0.4896  0.2133  0.1662
11711TIP3    H156548   3.798   3.432  16.389  3.2064 -1.0795  0.8008
11711TIP3    H256549   3.887   3.494  16.283  0.8071  1.2954  0.0584
11712TIP3   OH256550   2.062   1.114  11.147 -0.2996  0.1432  0.4843
11712TIP3    H156551   2.052   1.186  11.085 -1.8140 -2.1924 -2.2480
11712TIP3    H256552   2.100   1.043  11.096 -2.0443 -2.0842  2.0564
11713TIP3   OH256553   6.486   5.206   0.903 -0.1585  0.0203  0.2368
11713TIP3    H156554   6.497   5.159   0.820 -1.5112 -0.0440  0.0721
11713TIP3    H256555   6.573   5.239   0.924  1.0331 -3.0128  0.6236
11714TIP3   OH256556   1.767   5.770   4.656 -0.0133 -0.0610 -0.0135
11714TIP3    H156557   1.811   5.799   4.576  1.6254  0.9970  1.2065
11714TIP3    H256558   1.808   5.687   4.677 -2.4934 -1.8996 -1.7653
11715TIP3   OH256559   3.106   1.997   4.693  0.0802 -0.1265 -0.1669
11715TIP3    H156560   3.091   1.958   4.607 -0.2953 -1.4370  0.4738
11715TIP3    H256561   3.178   2.059   4.678 -1.3794  1.2634 -1.8640
11716TIP3   OH256562   5.549   0.607  13.906 -0.1665  0.3412  0.0528
11716TIP3    H156563   5.473   0.571  13.860 -0.6857  0.8043  0.5453
11716TIP3    H256564   5.579   0.535  13.961 -0.1188  0.0902 -0.2969
11717TIP3   OH256565   3.835   4.013   2.909 -0.0141 -0.2152  0.4658
11717TIP3    H156566   3.775   4.065   2.856  0.4985 -0.0313  0.0614
11717TIP3    H256567   3.787   3.932   2.927 -1.6954  1.2122  2.9620
11718TIP3   OH256568   2.531   5.929  14.556 -0.0844 -1.1516 -0.4258
11718TIP3    H156569   2.623   5.948  14.536 -0.0589  0.2976  0.8147
11718TIP3    H256570   2.499   5.880  14.481  0.9935  0.6253 -2.1470
11719TIP3   OH256571   3.069   3.321   3.430  0.2556 -0.0458  0.3297
11719TIP3    H156572   3.050   3.273   3.511  1.4980  0.4072  0.9171
11719TIP3    H256573   3.149   3.280   3.397 -0.4615 -0.4861 -0.8911
11720TIP3   OH256574   4.578   6.550  15.888 -0.3133 -0.0732 -0.3671
11720TIP3    H156575   4.540   6.512  15.809  1.2668 -1.0947 -0.6871
11720TIP3    H256576   4.613   6.475  15.936 -0.1009  0.6649  0.6700
11721TIP3   OH256577   0.801   1.176  12.184 -0.1010 -0.1498  0.2421
11721TIP3    H156578   0.750   1.250  12.150  1.0758  1.8869  2.6447
11721TIP3    H256579   0.736   1.120  12.226 -0.8142  0.3164 -0.2077
11722TIP3   OH256580   5.753   5.682   5.273  0.2924 -0.3780 -0.0604
11722TIP3    H156581   5.739   5.727   5.357  0.2453  0.6838 -0.6138
11722TIP3    H256582   5.683   5.715   5.216  0.5617 -0.7794 -0.6379
11723TIP3   OH256583   2.019   1.030   4.671 -0.2303 -0.4798  0.5372
11723TIP3    H156584   1.951   1.087   4.707  0.4352  0.1063  0.9054
11723TIP3    H256585   2.000   1.025   4.578 -0.5217  0.0431  0.5637
11724TIP3   OH256586   1.990   0.842   4.876  0.0474  0.2203  0.2673
11724TIP3    H156587   1.904   0.845   4.834 -0.3125  0.2343  0.9935
11724TIP3    H256588   2.048   0.887   4.815 -0.2522 -0.6483 -0.6935
11725TIP3   OH256589   3.202   1.102  15.263  0.1537  0.3459 -0.0211
11725TIP3    H156590   3.180   1.046  15.337  0.1545  2.7060  1.8816
11725TIP3    H256591   3.136   1.172  15.266  0.1684  0.5307 -2.2673
11726TIP3   OH256592   2.465   6.332  12.505  0.0314  0.6147  0.4792
11726TIP3    H156593   2.446   6.254  12.557 -0.8025  1.8518  2.1420
11726TIP3    H256594   2.487   6.399  12.569 -0.2051  1.9999 -0.8168
11727TIP3   OH256595   1.398   0.284  11.690 -0.9069 -0.1680  0.4678
11727TIP3    H156596   1.309   0.301  11.723 -1.3555 -1.1883 -0.1711
11727TIP3    H256597   1.449   0.266  11.769 -1.8912 -2.2479  0.7109
11728TIP3   OH256598   2.627   3.376  14.453  0.6468 -0.0663  0.0840
11728TIP3    H156599   2.668   3.446  14.402  0.7271  0.2366  0.5557
11728TIP3    H256600   2.680   3.298  14.433 -0.4859 -0.4077 -1.8034
11729TIP3   OH256601   6.366   1.363   1.705  0.0512  0.0433 -0.5410
11729TIP3    H156602   6.403   1.275   1.692  0.4435  0.2488 -0.8467
11729TIP3    H256603   6.391   1.387   1.794 -2.0369 -1.0851  0.4323
11730TIP3   OH256604   4.565   0.831  14.225  0.3306 -0.6760  0.4686
11730TIP3    H156605   4.604   0.900  14.172 -0.0575 -0.4684  0.4486
11730TIP3    H256606   4.620   0.755  14.209  2.0878  0.1557  2.1735
11731TIP3   OH256607   1.095   5.549   3.505 -0.7322 -0.4640 -0.4181
11731TIP3    H156608   1.064   5.626   3.551 -2.1553  0.4824 -2.7587
11731TIP3    H256609   1.187   5.569   3.484 -1.0549  0.5954 -0.9173
11732TIP3   OH256610   1.627   4.246   4.920 -0.4960  0.0037 -0.4755
11732TIP3    H156611   1.594   4.323   4.874 -0.4296 -0.6915 -1.7513
11732TIP3    H256612   1.589   4.252   5.007  0.9116  2.3927  0.0641
11733TIP3   OH256613   5.492   0.101  13.540 -0.0152  0.4391  0.5280
11733TIP3    H156614   5.536   0.016  13.547 -2.1093 -0.7486  0.0877
11733TIP3    H256615   5.490   0.120  13.446  1.1804  1.4335  0.6734
11734TIP3   OH256616   4.182   3.125  15.239 -0.0018 -0.0197  0.0122
11734TIP3    H156617   4.192   3.215  15.268 -0.4767  0.3108 -0.8228
11734TIP3    H256618   4.153   3.077  15.317 -3.5783  1.2726 -0.3477
11735TIP3   OH256619   2.654   3.562   2.076  0.3295 -0.3345 -0.4974
11735TIP3    H156620   2.642   3.468   2.084  1.2840 -0.2861  2.5723
11735TIP3    H256621   2.589   3.600   2.136 -1.0669  1.1170 -2.7576
11736TIP3   OH256622   0.267   2.001  15.663  0.2190  0.3176  0.0542
11736TIP3    H156623   0.275   1.993  15.758  0.4374 -0.9556 -0.0546
11736TIP3    H256624   0.180   2.040  15.650 -0.0063  0.0776  0.7743
11737TIP3   OH256625   0.341   5.438  12.038 -0.0507 -0.2322  0.2913
11737TIP3    H156626   0.270   5.493  12.072  0.9614  1.5637 -0.4010
11737TIP3    H256627   0.308   5.348  12.048 -2.6021  0.5452 -0.4057
11738TIP3   OH256628   1.274   4.064   3.586 -0.3208  0.0160 -0.2240
11738TIP3    H156629   1.294   3.990   3.643 -0.8273  0.5965  0.7222
11738TIP3    H256630   1.229   4.024   3.511  0.3710 -0.7515 -0.2385
11739TIP3   OH256631   4.029   4.265  12.561 -0.2839  0.1468  0.0701
11739TIP3    H156632   4.124   4.251  12.560  0.0858  2.2933  0.0884
11739TIP3    H256633   4.008   4.291  12.471 -0.6447  0.7714  0.3294
11740TIP3   OH256634   1.312   6.339   4.743  0.0149  0.4009 -0.2589
11740TIP3    H156635   1.351   6.305   4.663  0.1729 -0.8380  0.3213
11740TIP3    H256636   1.382   6.336   4.808 -0.6366 -0.5060  0.4267
11741TIP3   OH256637   6.468   5.334   3.569  0.2077  0.6704 -0.4103
11741TIP3    H156638   6.480   5.257   3.514  0.0607 -0.5812  1.2509
11741TIP3    H256639   6.382   5.369   3.543 -0.1235 -0.2441 -0.5751
11742TIP3   OH256640   1.976   6.570   5.631  1.0103  0.2227 -0.4450
11742TIP3    H156641   2.038   6.628   5.674 -0.4920  1.1888  0.4983
11742TIP3    H256642   1.918   6.629   5.582  1.0123 -0.6714 -1.5663
11743TIP3   OH256643   0.474   4.983  14.822 -0.5175  0.4946 -0.3515
11743TIP3    H156644   0.439   5.024  14.901  0.2475 -0.6557  0.6164
11743TIP3    H256645   0.514   5.055  14.774  2.0514  0.7714  1.9713
11744TIP3   OH256646   3.730   6.410   3.378 -0.2936 -0.0196 -0.8223
11744TIP3    H156647   3.637   6.386   3.373 -0.1954 -0.3681 -0.9665
11744TIP3    H256648   3.771   6.363   3.306  0.5964 -2.5842  1.1788
11745TIP3   OH256649   4.993   0.922   4.984 -0.7031  0.0955  0.6079
11745TIP3    H156650   4.965   0.938   5.075 -0.2327  1.2142  0.5671
11745TIP3    H256651   4.942   0.984   4.933  0.6348  1.0054  0.3490
11746TIP3   OH256652   3.459   4.236   6.218  0.0996 -0.2081 -0.0697
11746TIP3    H156653   3.420   4.319   6.245  0.1086  0.0353 -0.7747
11746TIP3    H256654   3.412   4.170   6.269 -0.5282  0.1658 -0.1468
11747TIP3   OH256655   2.311   0.755   3.936 -0.0417  0.1486  0.1207
11747TIP3    H156656   2.232   0.721   3.978  0.1519 -1.2450 -0.5732
11747TIP3    H256657   2.368   0.779   4.009 -0.0564 -1.4080  0.7029
11748TIP3   OH256658   6.511   2.285  12.261  0.0618 -0.2445  0.1204
11748TIP3    H156659   6.525   2.342  12.337 -0.2809  1.7899 -1.2633
11748TIP3    H256660   6.417   2.268  12.261  0.0900 -0.4043  0.2493
11749TIP3   OH256661   4.109   2.334   3.781 -0.0840 -0.0109  0.5866
11749TIP3    H156662   4.171   2.284   3.833  1.9878  1.3153 -0.5060
11749TIP3    H256663   4.162   2.376   3.714 -1.7600  3.1531  1.0545
11750TIP3   OH256664   5.761   5.603   3.142  0.1827 -0.4296  0.0095
11750TIP3    H156665   5.708   5.548   3.200 -0.8344 -0.0580 -0.5442
11750TIP3    H256666   5.831   5.635   3.198 -1.4127  0.8536  1.4073
11751TIP3   OH256667   1.718   1.331   0.404  0.4750  0.5093 -0.1690
11751TIP3    H156668   1.803   1.330   0.448  0.4115  2.0087  0.0493
11751TIP3    H256669   1.655   1.312   0.473  0.5989 -0.3085 -0.2720
11752TIP3   OH256670   4.566   2.539  16.813  0.0747  0.2005  0.5780
11752TIP3    H156671   4.586   2.621  16.768 -0.2193  0.2036  0.4530
11752TIP3    H256672   4.589   2.470  16.750 -1.9330  0.2252 -0.2662
11753TIP3   OH256673   0.516   5.035   0.012  0.3167 -0.5312 -0.2937
11753TIP3    H156674   0.520   4.978  -0.064 -0.9574 -0.7391 -0.2150
11753TIP3    H256675   0.541   5.122  -0.022 -0.9865 -0.4564 -1.1282
11754TIP3   OH256676   4.359   5.389  16.378 -0.1259 -0.5854  0.0067
11754TIP3    H156677   4.411   5.330  16.323 -0.2025  0.2768 -1.0357
11754TIP3    H256678   4.269   5.360  16.365 -0.4956  1.3528 -2.7081
11755TIP3   OH256679   6.140   2.897  16.640 -0.1590 -0.0326 -0.3680
11755TIP3    H156680   6.120   2.933  16.553 -2.3644  0.3813  0.2475
11755TIP3    H256681   6.114   2.966  16.700  0.5497 -0.6520  0.6736
11756TIP3   OH256682   5.999   1.062   2.766  0.5496 -0.4343 -0.3852
11756TIP3    H156683   5.973   0.970   2.762  1.5271 -0.7080 -1.0166
11756TIP3    H256684   6.094   1.060   2.749  0.5643  0.6930 -0.4873
11757TIP3   OH256685   0.361   1.750  11.287 -0.4062 -0.9313 -0.3846
11757TIP3    H156686   0.451   1.736  11.316 -0.4252 -0.7007 -0.2073
11757TIP3    H256687   0.324   1.662  11.281 -0.8187 -0.9512  1.6390
11758TIP3   OH256688   2.864   5.893  13.628  0.3739  0.3489  0.0724
11758TIP3    H156689   2.858   5.959  13.559 -0.7878 -0.6987 -0.8790
11758TIP3    H256690   2.893   5.942  13.706  1.4437  1.6031 -1.0585
11759TIP3   OH256691   6.130   6.562   1.230  0.5312  0.1691  0.7243
11759TIP3    H156692   6.138   6.491   1.167 -0.4639  1.3556 -0.8037
11759TIP3    H256693   6.089   6.522   1.306  0.6170 -1.0287  0.1698
11760TIP3   OH256694   6.575   0.567   1.607  0.5306 -0.6308  0.3599
11760TIP3    H156695   6.530   0.482   1.604  2.1725 -1.5148 -0.7811
11760TIP3    H256696   6.621   0.573   1.523  1.0490  1.0725  0.7272
11761TIP3   OH256697   3.012   1.101  16.979  0.4131 -0.2141 -0.3115
11761TIP3    H156698   2.937   1.138  17.026  1.2869  0.1904  0.8277
11761TIP3    H256699   3.061   1.054  17.047  1.1655 -0.5135 -1.0468
11762TIP3   OH256700   3.093   6.496  14.124  0.7697  0.4244  0.4251
11762TIP3    H156701   3.016   6.550  14.140 -0.5650 -0.8551 -1.2912
11762TIP3    H256702   3.108   6.448  14.205 -0.7742  0.0710  0.5187
11763TIP3   OH256703   3.719   4.845  14.161  0.3171  0.0804  0.0166
11763TIP3    H156704   3.749   4.829  14.071 -0.5275 -0.2108 -0.2206
11763TIP3    H256705   3.745   4.936  14.178 -1.0021  0.7233 -1.1502
11764TIP3   OH256706   4.109   5.941   2.578  0.1899  0.1770  0.2384
11764TIP3    H156707   4.183   5.918   2.522  0.4054 -0.1237  0.6418
11764TIP3    H256708   4.044   5.978   2.519  1.9519  3.6655  0.2415
11765TIP3   OH256709   6.150   4.610  16.846  0.3224  0.0256  0.4026
11765TIP3    H156710   6.238   4.596  16.811 -0.6873 -1.1859 -1.9060
11765TIP3    H256711   6.096   4.624  16.769 -1.6196  0.1508  1.7259
11766TIP3   OH256712   1.731   0.619   5.155  0.0293  0.0537  0.1145
11766TIP3    H156713   1.670   0.629   5.081  0.6921  1.2546 -0.3004
11766TIP3    H256714   1.717   0.529   5.185 -0.4759 -0.3738 -1.2805
11767TIP3   OH256715   0.502   1.338   0.079  0.3100  0.0682  0.5195
11767TIP3    H156716   0.568   1.377   0.021  3.4370 -2.5168  2.0056
11767TIP3    H256717   0.473   1.260   0.032  0.2583 -0.1836  0.9712
11768TIP3   OH256718   0.932   5.117   2.222 -0.1279 -0.6689 -0.5904
11768TIP3    H156719   0.971   5.087   2.305 -0.0805  2.2960  0.5616
11768TIP3    H256720   0.838   5.119   2.239 -0.3015 -1.8672 -1.2957
11769TIP3   OH256721   3.263   2.978  11.911  0.2948 -0.2694  0.5496
11769TIP3    H156722   3.204   2.911  11.875  0.7363  0.0072 -0.7381
11769TIP3    H256723   3.209   3.024  11.976  0.1317 -2.1485  1.8167
11770TIP3   OH256724   6.104   0.612  14.334  0.2974 -0.9885 -0.0012
11770TIP3    H156725   6.011   0.595  14.350  0.0992 -1.0391 -1.1080
11770TIP3    H256726   6.125   0.558  14.257  0.3168  1.6489 -1.9795
11771TIP3   OH256727   6.720   2.426  12.775  0.6282  0.4592  0.0405
11771TIP3    H156728   6.666   2.476  12.836 -0.0698  0.5530 -0.6486
11771TIP3    H256729   6.803   2.473  12.773  0.4867  0.7353  0.5361
11772TIP3   OH256730   5.890   3.583  14.997  0.3988 -0.1863 -0.0894
11772TIP3    H156731   5.809   3.559  15.041  0.6339  0.3618  0.6742
11772TIP3    H256732   5.955   3.521  15.031  0.1814 -1.0390 -1.1862
11773TIP3   OH256733   6.008   0.969   5.026 -0.0706  0.0056 -0.2425
11773TIP3    H156734   6.036   1.032   4.960  3.0733 -0.0535  0.8596
11773TIP3    H256735   6.000   1.020   5.107 -2.8866 -0.1112 -0.3518
11774TIP3   OH256736   4.487   1.630  12.801 -0.2153  0.1015 -0.1467
11774TIP3    H156737   4.499   1.568  12.873  0.4103 -0.0107 -0.3373
11774TIP3    H256738   4.392   1.640  12.793 -0.3191 -0.6442  0.0563
11775TIP3   OH256739   3.181   5.023  11.399 -0.3580 -0.1176  0.2515
11775TIP3    H156740   3.147   4.934  11.391 -0.6311 -0.0548  0.7043
11775TIP3    H256741   3.260   5.013  11.452 -0.0718 -0.1608 -0.1724
11776TIP3   OH256742   5.336   5.757  13.617 -0.2609  0.3359  0.2647
11776TIP3    H156743   5.245   5.727  13.617 -0.0661 -0.2740 -0.0887
11776TIP3    H256744   5.388   5.677  13.627  0.2534  0.5966 -0.2338
11777TIP3   OH256745   2.145   4.322   3.215  0.2257  0.3598  0.1723
11777TIP3    H156746   2.135   4.308   3.309 -1.4600  1.5336  0.2052
11777TIP3    H256747   2.231   4.284   3.194 -0.8100 -3.0271  1.5086
11778TIP3   OH256748   2.196   2.928  13.516 -0.0548 -0.0699 -0.2584
11778TIP3    H156749   2.171   2.856  13.573  2.8798  0.1041  1.4104
11778TIP3    H256750   2.182   3.007  13.569  1.4194  0.2030 -0.2450
11779TIP3   OH256751   3.757   2.268  14.837 -0.3892  0.2477  0.2251
11779TIP3    H156752   3.740   2.297  14.747 -0.0577 -0.4872 -0.0741
11779TIP3    H256753   3.850   2.249  14.840  0.0753  2.2927  1.3186
11780TIP3   OH256754   0.136   1.438  13.798  0.0487 -0.4081 -0.3773
11780TIP3    H156755   0.093   1.358  13.828 -0.6843 -0.1105 -0.6277
11780TIP3    H256756   0.146   1.427  13.704  0.0557 -0.2573 -0.3956
11781TIP3   OH256757   6.663   6.533  12.793  0.4368 -0.1667  0.1382
11781TIP3    H156758   6.736   6.510  12.850  0.4583 -0.7227 -0.1114
11781TIP3    H256759   6.671   6.475  12.718  0.5229  0.6894 -0.5339
11782TIP3   OH256760   0.287   1.034  16.310  0.2776  0.0323  0.1980
11782TIP3    H156761   0.319   1.064  16.395  2.5889  0.7537 -0.8405
11782TIP3    H256762   0.363   0.993  16.269 -0.5031  0.5263 -1.8797
11783TIP3   OH256763   5.729   3.443  11.929 -0.2789  0.0032 -0.2346
11783TIP3    H156764   5.648   3.417  11.972 -1.1916  0.4634 -1.6203
11783TIP3    H256765   5.747   3.373  11.866  0.1893  0.0957 -0.2079
11784TIP3   OH256766   4.200   0.105   2.943 -0.4273 -0.2157  0.3803
11784TIP3    H156767   4.281   0.059   2.919 -0.8193 -0.2956 -0.8763
11784TIP3    H256768   4.189   0.170   2.874 -0.3954  1.1397  1.6250
11785TIP3   OH256769   0.054   2.437   1.496 -0.3867 -0.6007  0.3042
11785TIP3    H156770   0.092   2.518   1.459  0.9375 -0.9768  0.7876
11785TIP3    H256771   0.088   2.434   1.585  0.2919 -2.1271  0.0193
11786TIP3   OH256772   3.775   4.805  16.382  0.6072 -0.2398  0.2466
11786TIP3    H156773   3.769   4.756  16.465 -0.4795  1.1366  1.0048
11786TIP3    H256774   3.688   4.842  16.369  0.1181 -2.0692 -2.6158
11787TIP3   OH256775   5.773   5.679   0.560 -0.6305 -0.2185  0.0581
11787TIP3    H156776   5.798   5.613   0.496  0.5008 -0.3553  0.6139
11787TIP3    H256777   5.725   5.745   0.510  1.9397  0.7075 -1.3413
11788TIP3   OH256778   1.601   4.483  16.525  0.3989  0.0674 -0.4630
11788TIP3    H156779   1.697   4.492  16.522  0.3846  0.3373 -0.1662
11788TIP3    H256780   1.568   4.568  16.494  0.2560  0.0405 -0.3844
11789TIP3   OH256781   1.952   0.920   0.979  0.5186 -0.0937 -0.2476
11789TIP3    H156782   1.862   0.952   0.982  0.0891 -1.2303 -0.2607
11789TIP3    H256783   1.953   0.861   0.903  0.8641 -1.2100  0.5992
11790TIP3   OH256784   0.994   0.664  15.219  0.0024 -0.0930  0.3674
11790TIP3    H156785   0.925   0.604  15.249  0.7407 -1.7344 -1.0504
11790TIP3    H256786   1.014   0.718  15.295 -1.2016 -1.1657  1.4909
11791TIP3   OH256787   2.682   4.002   5.809 -0.0261 -0.6349  0.1001
11791TIP3    H156788   2.587   4.002   5.795 -0.0153 -0.1851 -0.0000
11791TIP3    H256789   2.692   3.978   5.901 -0.1967 -1.4950 -0.1051
11792TIP3   OH256790   1.151   6.075  13.644  0.5991 -0.0692  0.6162
11792TIP3    H156791   1.130   6.153  13.695  0.7474 -0.0616  0.6688
11792TIP3    H256792   1.239   6.092  13.609 -0.8431  1.4841 -2.6232
11793TIP3   OH256793   2.890   3.148   4.877  0.4391  0.0662  0.1391
11793TIP3    H156794   2.849   3.229   4.845  0.1152  0.5760  1.7725
11793TIP3    H256795   2.965   3.136   4.819  0.4238  1.4762 -0.2179
11794TIP3   OH256796   6.273   3.636  16.313 -0.3266  0.1628 -0.1398
11794TIP3    H156797   6.205   3.648  16.247  0.9066 -0.3134 -1.5348
11794TIP3    H256798   6.349   3.605  16.265  1.1707  1.4598  1.2625
11795TIP3   OH256799   2.125   5.134  15.558  0.5950 -0.1924 -0.0654
11795TIP3    H156800   2.160   5.145  15.647 -0.8500 -0.3771  0.5538
11795TIP3    H256801   2.190   5.175  15.502  0.4187  2.1013  1.2803
11796TIP3   OH256802   1.744   5.879  13.536  0.6609 -0.1635  0.0732
11796TIP3    H156803   1.837   5.855  13.544  0.9428  0.1002 -1.7915
11796TIP3    H256804   1.696   5.799  13.558  1.3580 -0.4969  0.4159
11797TIP3   OH256805   3.573   2.893  13.495 -0.2275 -0.1470 -0.4114
11797TIP3    H156806   3.480   2.914  13.501 -0.1587  0.5089 -1.4266
11797TIP3    H256807   3.611   2.932  13.574 -0.3678  2.2585 -1.4416
11798TIP3   OH256808   4.991   2.060   2.587  0.5688 -0.2633  0.1716
11798TIP3    H156809   4.931   2.047   2.514  1.3702 -2.0296 -0.2113
11798TIP3    H256810   5.078   2.046   2.550  1.0497 -0.3479  1.2876
11799TIP3   OH256811   0.118   1.507   1.760 -0.3103 -0.4016  0.5239
11799TIP3    H156812   0.036   1.459   1.749 -0.3133 -0.3055  0.0813
11799TIP3    H256813   0.144   1.530   1.671  1.0793 -1.8967  0.4928
11800TIP3   OH256814   1.903   6.441  10.334  0.4761 -0.2445  0.4931
11800TIP3    H156815   1.968   6.495  10.378  0.8206  0.6545 -1.0251
11800TIP3    H256816   1.953   6.371  10.292  0.7582  1.2655 -1.9046
11801TIP3   OH256817   3.595   5.340  11.974  0.0553  0.0148 -0.0454
11801TIP3    H156818   3.618   5.252  11.945 -0.8694 -0.0360 -0.6412
11801TIP3    H256819   3.629   5.398  11.905 -0.6602  0.0124 -0.4057
11802TIP3   OH256820   6.288   4.306  12.476  0.4762 -0.3047  0.1445
11802TIP3    H156821   6.277   4.335  12.385 -0.4228 -1.6264 -0.1859
11802TIP3    H256822   6.199   4.300  12.510  0.8383  1.4755  1.5729
11803TIP3   OH256823   5.527   1.434   5.532  0.0726  0.3056 -0.0525
11803TIP3    H156824   5.572   1.349   5.530 -0.5960 -0.0503 -0.3560
11803TIP3    H256825   5.547   1.470   5.618 -0.8996 -0.8598  0.6969
11804TIP3   OH256826   5.080   4.563   1.629 -0.4083  0.3470 -0.0087
11804TIP3    H156827   5.171   4.577   1.603 -0.4563 -0.3027 -0.5286
11804TIP3    H256828   5.040   4.517   1.555 -1.1603  0.6323  0.2158
11805TIP3   OH256829   2.131   4.611  11.727  0.1421  0.0995 -0.4218
11805TIP3    H156830   2.043   4.592  11.694 -0.3045 -1.2563  1.4037
11805TIP3    H256831   2.184   4.535  11.701  0.2151 -0.1352  0.3898
11806TIP3   OH256832   1.888   5.535  15.698  0.0140 -0.1914  0.5265
11806TIP3    H156833   1.792   5.532  15.695  0.0007  0.5153 -0.4602
11806TIP3    H256834   1.914   5.454  15.741 -1.0399 -0.2596  1.0518
11807TIP3   OH256835   0.527   3.341   0.685 -0.2631 -0.3517  0.3479
11807TIP3    H156836   0.514   3.247   0.700  1.1335 -0.7902 -1.0408
11807TIP3    H256837   0.525   3.351   0.590  0.1341  0.9434  0.4619
11808TIP3   OH256838   5.992   5.601  13.006  0.5743 -0.2338 -0.5254
11808TIP3    H156839   6.050   5.526  13.020  0.5110 -0.3538 -0.9203
11808TIP3    H256840   6.043   5.662  12.952  0.3206 -0.3519 -0.8968
11809TIP3   OH256841   1.432   1.101   0.950 -0.1049  0.1359 -0.0656
11809TIP3    H156842   1.409   1.083   0.858  1.3807  1.8968 -0.8449
11809TIP3    H256843   1.389   1.184   0.969  0.6828  0.4363  0.4081
11810TIP3   OH256844   5.315   4.202  13.547  0.4325  0.5270 -0.8545
11810TIP3    H156845   5.363   4.249  13.616  0.8355 -0.4198 -0.4802
11810TIP3    H256846   5.250   4.150  13.594  1.4457 -1.0020 -1.0561
11811TIP3   OH256847   4.858   0.945  16.784  0.0948  0.2330  0.1359
11811TIP3    H156848   4.928   0.992  16.739 -1.1095  0.6393 -1.4172
11811TIP3    H256849   4.878   0.852  16.769 -0.9829  0.3509 -2.5361
11812TIP3   OH256850   4.331   5.333  16.866  0.5981 -0.0947 -0.0408
11812TIP3    H156851   4.414   5.373  16.891 -0.0836  1.1200  0.3663
11812TIP3    H256852   4.269   5.405  16.863 -0.5471 -1.0317  0.0637
11813TIP3   OH256853   1.608   3.565   1.160 -0.1728 -0.4361  0.3575
11813TIP3    H156854   1.640   3.655   1.150  1.0224 -1.0731 -2.2131
11813TIP3    H256855   1.564   3.566   1.245 -0.6440  2.6865  0.2187
11814TIP3   OH256856   6.393   5.566  11.717 -0.3896  0.1719  0.2441
11814TIP3    H156857   6.335   5.503  11.675 -0.1150 -0.5011  0.8513
11814TIP3    H256858   6.422   5.623  11.646  1.2872 -1.8737 -0.8214
11815TIP3   OH256859   3.533   1.818  13.488  0.0199 -0.3762 -0.3428
11815TIP3    H156860   3.545   1.912  13.474 -2.1009  0.0059  0.0780
11815TIP3    H256861   3.555   1.804  13.580  1.6202 -0.5660 -0.7294
11816TIP3   OH256862   0.036   6.532  13.533 -0.0078  0.3785  0.7196
11816TIP3    H156863   0.001   6.596  13.595 -0.0038  1.3446 -0.2541
11816TIP3    H256864   0.075   6.585  13.463  1.2699 -0.6774  0.5921
11817TIP3   OH256865   0.019   1.419   4.501  0.0156  0.3201 -0.6580
11817TIP3    H156866   0.090   1.481   4.484  1.1753 -0.8182 -0.1384
11817TIP3    H256867  -0.031   1.417   4.419 -2.3583  4.6995  0.4141
11818TIP3   OH256868   6.577   2.085   0.268  0.1070 -0.1202  0.2411
11818TIP3    H156869   6.628   2.005   0.276 -1.4711 -1.3421 -1.1047
11818TIP3    H256870   6.638   2.149   0.231  1.4198 -0.6313  1.4191
11819TIP3   OH256871   2.606   0.153   5.472  0.0642 -0.5231  0.5144
11819TIP3    H156872   2.542   0.082   5.465 -2.1927  1.5300 -1.8904
11819TIP3    H256873   2.571   0.209   5.541 -1.5792  1.2051 -1.5739
11820TIP3   OH256874   2.064   5.591   6.029 -0.5691 -0.6143  0.4618
11820TIP3    H156875   2.107   5.676   6.033 -1.7137  0.0628 -0.9633
11820TIP3    H256876   1.973   5.611   6.007 -0.9895 -2.1825  0.6695
11821TIP3   OH256877   0.516   3.370   3.423  0.1912  0.2195  0.3430
11821TIP3    H156878   0.549   3.458   3.409 -1.6298  0.8755 -0.0647
11821TIP3    H256879   0.523   3.328   3.337 -1.1881  0.7903 -0.0719
11822TIP3   OH256880   5.202   2.595   2.960 -0.0671  0.2453 -0.0879
11822TIP3    H156881   5.265   2.666   2.971 -0.3521  0.1978  2.3368
11822TIP3    H256882   5.170   2.577   3.048 -1.3774 -1.6601 -0.8811
11823TIP3   OH256883   0.281   0.672  14.646 -0.3926 -0.1612  0.4259
11823TIP3    H156884   0.292   0.762  14.615 -0.0470 -0.2980  0.1438
11823TIP3    H256885   0.238   0.627  14.573 -0.4793 -0.2491  0.5304
11824TIP3   OH256886   6.239   5.377  13.773  0.6353  0.5541 -0.4978
11824TIP3    H156887   6.167   5.335  13.726  0.0521  0.1105  0.7499
11824TIP3    H256888   6.196   5.432  13.838  1.4225  0.7918 -0.1759
11825TIP3   OH256889   4.488   0.254  12.768 -0.1108 -0.2418  0.6631
11825TIP3    H156890   4.493   0.296  12.682 -1.6236  1.6528  1.4345
11825TIP3    H256891   4.478   0.161  12.748 -0.5222  0.1581 -1.2166
11826TIP3   OH256892   2.818   4.877   2.356 -0.2096  0.1348 -0.0392
11826TIP3    H156893   2.854   4.955   2.315  1.6231 -0.1538  0.9024
11826TIP3    H256894   2.848   4.881   2.447 -0.0869 -1.6127  0.0471
11827TIP3   OH256895   5.784   4.189   2.895  0.6983  0.3139  0.2619
11827TIP3    H156896   5.822   4.188   2.807 -0.5243 -1.2695 -0.2965
11827TIP3    H256897   5.761   4.097   2.912 -0.1643  0.7761  1.7638
11828TIP3   OH256898   1.487   5.018  13.909  0.6996 -0.0604 -0.2580
11828TIP3    H156899   1.488   5.048  13.818 -0.3398  0.8041 -0.0127
11828TIP3    H256900   1.428   4.943  13.909  1.2050 -0.4571 -0.4090
11829TIP3   OH256901   5.563   6.331  11.068 -0.0037 -1.0711  0.2962
11829TIP3    H156902   5.591   6.385  10.994 -1.5758 -0.3239  0.2029
11829TIP3    H256903   5.586   6.242  11.043  1.4486 -0.6065 -0.1275
11830TIP3   OH256904   4.417   6.408   3.783  0.0075 -0.2154 -0.1263
11830TIP3    H156905   4.493   6.466   3.777 -0.1569 -0.0355 -0.5391
11830TIP3    H256906   4.443   6.340   3.845 -0.1983  0.9026  1.2278
11831TIP3   OH256907   0.821   3.648  15.014 -0.1129 -0.6502  0.3545
11831TIP3    H156908   0.782   3.575  14.964 -2.0150  1.0195 -0.7554
11831TIP3    H256909   0.746   3.705  15.034  1.3670  1.2326  0.7699
11832TIP3   OH256910   2.219   2.474   5.641  0.1839  0.0324  0.5659
11832TIP3    H156911   2.296   2.530   5.649 -0.0308  0.3443  0.4462
11832TIP3    H256912   2.243   2.393   5.687  0.1395  0.5872  1.5819
11833TIP3   OH256913   1.520   5.358   4.437  0.0103 -0.3254 -0.4927
11833TIP3    H156914   1.607   5.340   4.473  1.4566  1.1992 -2.9136
11833TIP3    H256915   1.479   5.415   4.503  2.0822  1.4301 -0.5840
11834TIP3   OH256916   4.770   4.995  11.817  0.5120  0.3674  1.0927
11834TIP3    H156917   4.750   5.048  11.740  0.2509 -0.9421  0.2350
11834TIP3    H256918   4.858   4.960  11.800  1.1108  1.2986  2.1172
11835TIP3   OH256919   1.289   0.447  13.302 -0.2781 -0.1683 -0.3731
11835TIP3    H156920   1.315   0.535  13.278 -2.5344  0.6116 -0.1809
11835TIP3    H256921   1.193   0.449  13.304 -0.3943 -1.7122  2.8916
11836TIP3   OH256922   0.355   2.289   3.059 -0.3201  0.2242 -0.3011
11836TIP3    H156923   0.268   2.326   3.043 -0.5592 -0.4663 -0.6952
11836TIP3    H256924   0.380   2.322   3.145 -0.9926  0.4040 -0.1624
11837TIP3   OH256925   3.866   3.609   3.980  0.5651 -0.6873 -0.5489
11837TIP3    H156926   3.775   3.636   3.977 -0.0005 -1.9899  2.2654
11837TIP3    H256927   3.864   3.515   3.965  1.1657 -1.0606  1.4157
11838TIP3   OH256928   6.545   3.255   2.955  0.2139  0.4781 -0.1457
11838TIP3    H156929   6.553   3.186   3.021  1.0071  1.0658  0.3908
11838TIP3    H256930   6.591   3.221   2.879  0.9683  0.5685  0.2594
11839TIP3   OH256931   3.545   2.348  13.840  0.2701 -0.0533  0.1187
11839TIP3    H156932   3.553   2.426  13.785  1.1191  0.0817  0.4196
11839TIP3    H256933   3.453   2.347  13.867  0.1129  0.5076 -0.3716
11840TIP3   OH256934   0.791   2.744  14.707 -0.6133  0.2096 -0.4755
11840TIP3    H156935   0.721   2.690  14.669  0.0280 -0.3896 -0.8400
11840TIP3    H256936   0.865   2.733  14.646  0.6097 -1.1962  1.1645
11841TIP3   OH256937   6.485   4.925   6.241  0.2307 -0.3872 -0.1511
11841TIP3    H156938   6.465   4.999   6.183 -0.3417 -0.7763 -0.4628
11841TIP3    H256939   6.405   4.914   6.294  0.9285  0.2970  1.0979
11842TIP3   OH256940   0.586   4.444   5.239  0.1351 -0.3053  0.1681
11842TIP3    H156941   0.512   4.501   5.258 -0.1242 -0.2401 -0.9743
11842TIP3    H256942   0.600   4.395   5.320 -0.8663 -0.0048  0.5378
11843TIP3   OH256943   0.533   5.271  14.414  0.2159  0.0590 -0.1464
11843TIP3    H156944   0.537   5.336  14.484  1.0057 -0.0007 -0.1183
11843TIP3    H256945   0.492   5.195  14.454 -0.4976  0.4525 -0.1124
11844TIP3   OH256946   2.215   6.584  11.596  0.2139  0.3681  0.8025
11844TIP3    H156947   2.163   6.664  11.584  2.2713  1.7407  0.3574
11844TIP3    H256948   2.254   6.593  11.683 -1.8063 -1.6348  2.0006
11845TIP3   OH256949   3.960   2.704   4.999 -0.7961 -0.1048  0.0775
11845TIP3    H156950   3.888   2.655   4.961 -2.0991  0.5683  1.5575
11845TIP3    H256951   4.027   2.707   4.930 -1.4354 -2.2751 -0.6950
11846TIP3   OH256952   0.682   6.675  15.664  0.2126 -0.4157  0.1503
11846TIP3    H156953   0.715   6.655  15.577 -1.4395 -0.0129 -0.6159
11846TIP3    H256954   0.673   6.771  15.665  1.2491 -0.3068  1.1791
11847TIP3   OH256955   2.508   3.147  11.425 -0.3802  0.0470  0.0908
11847TIP3    H156956   2.468   3.181  11.345  0.0019  0.1010 -0.0794
11847TIP3    H256957   2.450   3.075  11.451 -0.2644 -0.2597 -0.4803
11848TIP3   OH256958   1.296   5.365  17.166 -0.6161 -0.1008  0.0495
11848TIP3    H156959   1.251   5.301  17.111 -3.3893  1.0678  0.7825
11848TIP3    H256960   1.347   5.312  17.228  1.7206 -1.4417 -2.7962
11849TIP3   OH256961   4.637   1.605   0.097  0.7416  0.1583  0.0917
11849TIP3    H156962   4.639   1.562   0.182 -0.1568 -1.4444 -0.6628
11849TIP3    H256963   4.729   1.606   0.069  0.6256 -4.0750 -1.1427
11850TIP3   OH256964   3.578   1.065   1.892  0.0556  0.0182  0.5455
11850TIP3    H156965   3.490   1.030   1.883  0.0909 -1.1515  3.5510
11850TIP3    H256966   3.571   1.157   1.867 -1.7592 -0.3106 -0.2411
11851TIP3   OH256967   6.541   6.771  10.388  0.3197 -0.3293  0.1956
11851TIP3    H156968   6.593   6.754  10.466  1.3213 -0.0556 -0.4042
11851TIP3    H256969   6.515   6.863  10.396  1.2498 -0.0125 -0.2577
11852TIP3   OH256970   1.989   4.458   0.724 -0.2655  0.1369 -0.0184
11852TIP3    H156971   1.920   4.523   0.740  0.2265  0.9804 -1.1653
11852TIP3    H256972   2.054   4.474   0.792 -0.4433  0.4251  0.0826
11853TIP3   OH256973   4.785   3.144  11.768  0.2560 -0.2285  0.1277
11853TIP3    H156974   4.780   3.131  11.673  1.7719 -1.9074  0.2323
11853TIP3    H256975   4.737   3.070  11.805  0.9967 -0.4477  0.6719
11854TIP3   OH256976   2.681   4.169  11.805  0.2799  0.3652 -0.3371
11854TIP3    H156977   2.699   4.149  11.713  1.3131  0.3037 -0.1381
11854TIP3    H256978   2.759   4.216  11.834 -1.3060  3.2096 -0.3111
11855TIP3   OH256979   4.467   1.471   4.857  0.3682 -0.0791  0.2642
11855TIP3    H156980   4.381   1.499   4.887  0.3667 -0.8331  0.9944
11855TIP3    H256981   4.527   1.538   4.890  0.0925  0.3556 -0.0992
11856TIP3   OH256982   5.224   5.127  11.222 -0.3597 -0.0714  0.0544
11856TIP3    H156983   5.149   5.153  11.169 -1.5979 -0.5154  1.5429
11856TIP3    H256984   5.261   5.210  11.253  0.9239  0.2638 -2.1043
11857TIP3   OH256985   6.729   4.879   0.859  0.1670 -0.0351  0.3217
11857TIP3    H156986   6.688   4.958   0.823 -0.4679 -0.0718  0.9502
11857TIP3    H256987   6.786   4.913   0.929  1.3749  0.0347 -0.6610
11858TIP3   OH256988   2.029   0.363  12.529 -0.0045  0.2299  0.0110
11858TIP3    H156989   2.018   0.320  12.444 -0.9599 -1.7735  1.0685
11858TIP3    H256990   2.112   0.330  12.562  0.1327  0.6290  0.0709
11859TIP3   OH256991   5.623   0.040  12.102  0.0082  0.1582  0.2575
11859TIP3    H156992   5.645   0.109  12.039 -2.4707  1.7527  0.9810
11859TIP3    H256993   5.691   0.047  12.169  0.2769  1.3538 -0.1140
11860TIP3   OH256994   2.815   1.688  16.914  0.1615  0.6106  0.5516
11860TIP3    H156995   2.804   1.594  16.923  2.6865  0.2313  0.3898
11860TIP3    H256996   2.744   1.726  16.966 -1.0919 -1.3442  0.3523
11861TIP3   OH256997   4.711   5.505   2.804  0.3999  0.8057 -0.1590
11861TIP3    H156998   4.712   5.562   2.881  1.4323  0.2401  0.2623
11861TIP3    H256999   4.619   5.505   2.776 -0.7460 -1.4989  2.9824
11862TIP3   OH257000   4.738   4.341   1.529 -0.2455 -0.0789  0.3272
11862TIP3    H157001   4.751   4.428   1.565  0.9168  0.3993 -1.1324
11862TIP3    H257002   4.647   4.339   1.501 -0.1313  0.8856 -0.1514
11863TIP3   OH257003   6.177   2.647  11.993  0.2409 -0.0646  0.0028
11863TIP3    H157004   6.226   2.569  11.966 -0.5233 -0.9094  0.9985
11863TIP3    H257005   6.166   2.697  11.912  1.5549 -0.5079 -0.4870
11864TIP3   OH257006   4.917   2.638  16.756 -0.4192 -0.5043  0.0321
11864TIP3    H157007   4.963   2.678  16.830  0.2712 -0.6406 -0.3207
11864TIP3    H257008   4.971   2.563  16.732  0.1132  0.3356 -1.5041
11865TIP3   OH257009   1.195   4.253  16.660 -0.4022 -0.2090  0.5023
11865TIP3    H157010   1.269   4.234  16.602 -0.3207  0.1448  0.4862
11865TIP3    H257011   1.119   4.219  16.613 -0.5185  1.2775 -0.4628
11866TIP3   OH257012   1.380   5.588   6.064  0.1227 -0.3253 -0.3155
11866TIP3    H157013   1.358   5.681   6.068  2.2978  0.1972  1.0668
11866TIP3    H257014   1.383   5.559   6.155 -1.8924 -2.1631 -0.7524
11867TIP3   OH257015   0.925   5.227   1.747  0.1901  0.3343 -0.1214
11867TIP3    H157016   1.008   5.205   1.789  0.1604 -0.8711 -0.6543
11867TIP3    H257017   0.947   5.238   1.655  0.0626  1.8701  0.0056
11868TIP3   OH257018   3.184   5.535   2.405 -0.0592  0.0298 -0.0171
11868TIP3    H157019   3.240   5.518   2.330  1.0327 -0.6713  0.9349
11868TIP3    H257020   3.169   5.449   2.444 -2.4960  0.0605 -0.6940
11869TIP3   OH257021   1.287   5.629  12.516  0.3061 -0.2776  0.3052
11869TIP3    H157022   1.324   5.559  12.463  1.1839  0.9118 -0.7414
11869TIP3    H257023   1.361   5.685  12.538  0.0334 -0.9312  3.2127
11870TIP3   OH257024   1.229   3.889   6.136  0.4650  0.2125  0.0038
11870TIP3    H157025   1.185   3.877   6.052 -3.5780  2.9831  1.3940
11870TIP3    H257026   1.238   3.983   6.145  0.2940  0.0484  2.8293
11871TIP3   OH257027   2.169   5.062  13.397 -0.3652  0.2052  0.4205
11871TIP3    H157028   2.213   5.147  13.405  0.5591 -0.1678 -0.5929
11871TIP3    H257029   2.190   5.016  13.478 -0.5200  0.7695  0.7890
11872TIP3   OH257030   4.649   0.184  17.185  0.4847 -0.1110  0.0946
11872TIP3    H157031   4.709   0.167  17.113  1.6921 -0.7913  1.2071
11872TIP3    H257032   4.704   0.182  17.263 -0.9621 -0.5877  1.1542
11873TIP3   OH257033   6.243   6.380   1.685  0.1532  0.5674  0.3774
11873TIP3    H157034   6.153   6.382   1.717 -0.3413 -1.1914 -0.7502
11873TIP3    H257035   6.272   6.290   1.703  1.1938  0.7163 -0.5024
11874TIP3   OH257036   0.552   4.672   0.643 -0.1584 -0.6083 -0.2562
11874TIP3    H157037   0.593   4.586   0.632 -0.1021 -0.5610 -0.4205
11874TIP3    H257038   0.613   4.721   0.698 -0.5332 -0.9101  0.4360
11875TIP3   OH257039   0.315   6.754  16.446 -0.2953  0.3501  0.4690
11875TIP3    H157040   0.331   6.697  16.370  0.6917  0.3344  0.6641
11875TIP3    H257041   0.369   6.715  16.515  0.3777  1.4968  0.6131
11876TIP3   OH257042   6.087   6.476  14.940 -0.2351 -1.0554  0.3438
11876TIP3    H157043   6.057   6.566  14.957  1.3599 -0.3643 -0.3085
11876TIP3    H257044   6.032   6.446  14.868  1.1531  0.5212 -1.4725
11877TIP3   OH257045   5.189   6.403  10.176  0.1360 -0.3758 -0.1693
11877TIP3    H157046   5.187   6.461  10.100  0.0850  0.4460  0.4447
11877TIP3    H257047   5.213   6.460  10.249  0.7192 -1.2585  0.3445
11878TIP3   OH257048   3.455   5.423  13.224 -0.3666 -0.1800 -0.2894
11878TIP3    H157049   3.388   5.454  13.163 -1.6641 -1.9955  0.1281
11878TIP3    H257050   3.408   5.364  13.283  1.5160 -1.1246  0.3313
11879TIP3   OH257051   5.541   1.349   0.876  0.0919  0.2515 -0.1068
11879TIP3    H157052   5.447   1.366   0.887  0.0553 -0.9244  2.0165
11879TIP3    H257053   5.555   1.347   0.781 -1.6029  2.5300 -0.4791
11880TIP3   OH257054   5.692   3.538   4.900 -0.3489  0.0526  0.6188
11880TIP3    H157055   5.662   3.550   4.990 -3.1187 -0.4624 -0.1645
11880TIP3    H257056   5.728   3.624   4.876  0.2004  0.2724  2.0951
11881TIP3   OH257057   0.691   1.853   5.065  0.0374 -0.2549 -0.5660
11881TIP3    H157058   0.716   1.945   5.060  1.2700 -0.5071  0.5791
11881TIP3    H257059   0.707   1.819   4.977  1.2508  0.2348 -0.5527
11882TIP3   OH257060   4.729   6.191  15.676  0.0120 -0.6845 -0.1695
11882TIP3    H157061   4.685   6.185  15.760 -1.8717  1.3359 -0.9066
11882TIP3    H257062   4.666   6.234  15.619  1.9170 -0.2844 -2.1192
11883TIP3   OH257063   3.429   6.481   1.573 -0.0886 -0.0207 -0.5534
11883TIP3    H157064   3.385   6.480   1.659  2.5760  0.2684  0.9138
11883TIP3    H257065   3.376   6.540   1.519 -2.0358 -0.4824  0.7544
11884TIP3   OH257066   1.631   0.851  11.922  0.0969  0.2957  0.5240
11884TIP3    H157067   1.665   0.844  11.833 -0.3904  0.8941  0.2870
11884TIP3    H257068   1.706   0.877  11.975  0.8197 -1.7371  0.6097
11885TIP3   OH257069   4.974   4.472  12.221  0.0543  0.3319 -0.8085
11885TIP3    H157070   5.024   4.394  12.245  1.1413  0.8586 -1.3045
11885TIP3    H257071   4.931   4.449  12.139  0.3037  0.2267 -0.9094
11886TIP3   OH257072   5.785   5.537   0.324 -0.3298  0.3246 -0.6728
11886TIP3    H157073   5.746   5.450   0.313  2.4393 -1.0286 -0.5257
11886TIP3    H257074   5.803   5.567   0.234 -0.7842  0.5462 -0.6970
11887TIP3   OH257075   5.137   2.032  16.957  0.4237  0.4520 -0.2107
11887TIP3    H157076   5.050   1.992  16.962  1.2214 -1.3926 -0.0833
11887TIP3    H257077   5.187   1.988  17.026  1.8108  0.5025 -1.1419
11888TIP3   OH257078   1.994   3.833   4.466  0.0602  0.4389  0.1359
11888TIP3    H157079   2.079   3.791   4.447 -0.7430 -0.5307 -1.6000
11888TIP3    H257080   1.980   3.892   4.392 -1.2360 -0.1820 -0.1384
11889TIP3   OH257081   6.073   4.092  10.794 -0.0639  0.4162 -0.5987
11889TIP3    H157082   6.028   4.148  10.730 -1.1905 -0.1188 -0.3117
11889TIP3    H257083   6.028   4.008  10.787 -2.0429  1.0086  2.6345
11890TIP3   OH257084   3.767   6.497   6.081 -0.3168  0.2934  0.1017
11890TIP3    H157085   3.822   6.483   6.158  2.5021  0.3943 -1.7619
11890TIP3    H257086   3.691   6.545   6.115  1.1376  0.9961  2.6653
11891TIP3   OH257087   0.417   1.324  12.089 -0.9982 -0.1364 -0.1933
11891TIP3    H157088   0.366   1.371  12.023 -0.9947  0.6325  0.3292
11891TIP3    H257089   0.502   1.310  12.048 -0.9561  0.4486 -0.3239
11892TIP3   OH257090   6.185   5.689  14.771 -0.2512 -0.1913 -0.4091
11892TIP3    H157091   6.104   5.720  14.732  0.5182  0.2183 -1.7330
11892TIP3    H257092   6.240   5.767  14.776  0.7125 -0.8007 -1.2186
11893TIP3   OH257093   1.788   1.823   1.813 -0.7094  0.2147  0.1997
11893TIP3    H157094   1.822   1.736   1.795 -1.7181 -0.1077 -0.2031
11893TIP3    H257095   1.861   1.882   1.792  0.2363 -0.5516  1.2106
11894TIP3   OH257096   1.818   4.154  13.208  0.5665 -0.4248 -0.2271
11894TIP3    H157097   1.891   4.185  13.154  0.6697 -1.0730 -0.4699
11894TIP3    H257098   1.777   4.085  13.155 -0.8830  0.6473 -0.5588
11895TIP3   OH257099   4.026   0.276   4.525 -0.0719  0.5898 -0.1231
11895TIP3    H157100   3.962   0.213   4.558 -2.0179  1.3721 -2.1399
11895TIP3    H257101   4.109   0.250   4.566 -0.9778 -2.6445 -0.0875
11896TIP3   OH257102   4.942   3.987   2.764 -0.1456 -0.6713 -0.3078
11896TIP3    H157103   5.035   4.005   2.748 -0.3918  1.5918  0.4941
11896TIP3    H257104   4.933   3.991   2.859 -0.9265 -1.7536 -0.3237
11897TIP3   OH257105   5.407   3.731  10.365  0.1185 -0.2771  0.1745
11897TIP3    H157106   5.345   3.670  10.406  0.3524 -0.7756 -0.2094
11897TIP3    H257107   5.395   3.812  10.414 -0.9411 -0.3194  0.0124
11898TIP3   OH257108   1.223   4.134  14.850 -0.1559  0.0428  0.3592
11898TIP3    H157109   1.267   4.200  14.795 -2.0892  0.8720 -0.2872
11898TIP3    H257110   1.173   4.186  14.914 -0.2176 -0.8591  1.0590
11899TIP3   OH257111   3.475   3.524  16.334  0.1311 -0.4324  0.4283
11899TIP3    H157112   3.510   3.436  16.321 -2.6232 -1.5328 -0.2603
11899TIP3    H257113   3.534   3.581  16.285  2.2899 -1.7691  1.3307
11900TIP3   OH257114   5.668   6.615  14.672 -0.7548 -0.5173 -0.5188
11900TIP3    H157115   5.681   6.630  14.578 -2.1568  0.5912 -0.5609
11900TIP3    H257116   5.577   6.588  14.680 -0.4553 -1.3219  0.4748
11901TIP3   OH257117   5.654   6.345   3.290 -0.1073 -0.0505  0.7176
11901TIP3    H157118   5.660   6.415   3.226 -0.0500 -1.2912 -0.7032
11901TIP3    H257119   5.737   6.297   3.282 -0.6322 -0.9979  0.7512
11902TIP3   OH257120   5.812   2.465   6.340 -0.1309 -0.3490  0.2912
11902TIP3    H157121   5.835   2.374   6.320  2.1053  0.4325 -1.1062
11902TIP3    H257122   5.896   2.510   6.348 -1.1718  1.7504  0.1978
11903TIP3   OH257123   0.683   5.794   0.549  0.0223  0.6188 -0.4412
11903TIP3    H157124   0.751   5.749   0.498 -0.8919 -1.1728 -0.1786
11903TIP3    H257125   0.730   5.864   0.595  1.3630  0.5066 -1.5560
11904TIP3   OH257126   6.446   4.291   3.574 -0.1391  0.2781  0.0612
11904TIP3    H157127   6.390   4.276   3.498 -0.0839 -2.2155  0.4443
11904TIP3    H257128   6.510   4.220   3.572  2.8644  2.7980 -0.1373
11905TIP3   OH257129   6.325   1.847  14.762  0.4627 -0.2189 -0.1981
11905TIP3    H157130   6.280   1.886  14.687 -0.5727 -0.9566  0.0278
11905TIP3    H257131   6.418   1.854  14.739  0.2642  1.2370 -0.7148
11906TIP3   OH257132   5.612   0.281  10.591 -0.1011  0.1190 -0.6177
11906TIP3    H157133   5.552   0.355  10.590 -0.6836 -0.3401 -1.9413
11906TIP3    H257134   5.557   0.206  10.614  0.2861 -0.0564 -0.2525
11907TIP3   OH257135   2.445   1.426   3.641 -0.1274 -0.1161 -0.2407
11907TIP3    H157136   2.539   1.419   3.660  0.2422  1.1452 -1.3849
11907TIP3    H257137   2.403   1.420   3.727  0.9620 -1.0433  0.2604
11908TIP3   OH257138   1.140   2.862   0.093 -0.8305 -0.2113 -0.1576
11908TIP3    H157139   1.113   2.816   0.172 -0.8096  0.0899  0.0283
11908TIP3    H257140   1.096   2.815   0.022 -0.8753 -0.4632  0.0356
11909TIP3   OH257141   3.379   1.258   5.741  0.4203 -0.0273  0.2573
11909TIP3    H157142   3.430   1.317   5.684  0.9368  1.4855  2.1806
11909TIP3    H257143   3.311   1.314   5.778 -1.1195 -1.4492 -0.3158
11910TIP3   OH257144   1.939   3.200  16.888  0.3863 -0.2281 -0.9077
11910TIP3    H157145   1.895   3.120  16.858 -1.1212  1.2417 -2.8792
11910TIP3    H257146   2.022   3.201  16.842  0.6132 -0.8588 -0.5264
11911TIP3   OH257147   4.680   2.453  12.744  0.5799 -0.2138 -0.5187
11911TIP3    H157148   4.648   2.536  12.778  0.2932 -0.7587  0.5784
11911TIP3    H257149   4.664   2.390  12.814  2.9947 -0.7409 -0.3380
11912TIP3   OH257150   2.535   0.597  15.399 -0.3155 -0.2973 -0.6103
11912TIP3    H157151   2.483   0.575  15.322 -0.8472 -0.9237 -0.0873
11912TIP3    H257152   2.505   0.536  15.466  1.4805 -1.0769 -0.4337
11913TIP3   OH257153   1.330   4.848   0.080  0.3626  0.2341  0.3353
11913TIP3    H157154   1.282   4.899   0.014 -0.3496 -0.3519  0.3833
11913TIP3    H257155   1.344   4.909   0.152 -2.9509 -0.2713  1.6009
11914TIP3   OH257156   1.585   2.083  12.059 -0.3681 -0.6213  0.2452
11914TIP3    H157157   1.573   2.061  12.151 -1.3890 -1.1981 -0.0124
11914TIP3    H257158   1.649   2.155  12.059 -0.1532 -0.8040  1.3728
11915TIP3   OH257159   2.377   2.055   4.607  0.5455  0.2842  0.0076
11915TIP3    H157160   2.357   1.997   4.681  1.3465  0.9117  0.7389
11915TIP3    H257161   2.295   2.062   4.559  0.0632 -0.3034  0.7227
11916TIP3   OH257162   4.590   6.389   4.452  0.0458 -0.5900  0.1197
11916TIP3    H157163   4.634   6.304   4.447 -1.6090 -1.7946  3.5219
11916TIP3    H257164   4.649   6.444   4.504 -0.8200 -1.1403  1.7542
11917TIP3   OH257165   0.284   5.639   4.844 -0.0962  0.6391  0.1401
11917TIP3    H157166   0.236   5.654   4.763  0.3502 -1.8800 -0.6909
11917TIP3    H257167   0.308   5.546   4.841 -1.2795  0.0538  3.8245
11918TIP3   OH257168   4.409   5.021  12.472  0.2806  0.8797  0.7651
11918TIP3    H157169   4.387   4.930  12.492  1.8975  0.3581  0.3047
11918TIP3    H257170   4.367   5.038  12.388  0.7605  0.2330  0.3821
11919TIP3   OH257171   5.450   5.405   1.284  0.4459  0.0452 -0.4160
11919TIP3    H157172   5.536   5.447   1.274  0.3869  0.4076  0.5261
11919TIP3    H257173   5.429   5.415   1.376 -0.0881 -1.0797 -0.3981
11920TIP3   OH257174   4.170   5.247  15.073  0.7619 -0.2728 -0.0223
11920TIP3    H157175   4.200   5.335  15.050  1.2527 -0.5870 -0.5780
11920TIP3    H257176   4.074   5.255  15.074  0.8024  0.2998  0.0835
11921TIP3   OH257177   3.675   2.094  10.175  0.7256 -0.3942 -0.2295
11921TIP3    H157178   3.637   2.176  10.205 -0.5208 -0.7112 -0.8536
11921TIP3    H257179   3.697   2.047  10.255  1.1692  0.4212  0.1331
11922TIP3   OH257180   1.144   3.601   4.803 -0.3938  0.8696 -0.5441
11922TIP3    H157181   1.076   3.669   4.796 -1.4863 -0.2614 -1.3392
11922TIP3    H257182   1.225   3.647   4.782 -1.0757  1.9724 -0.8892
11923TIP3   OH257183   5.837   3.288  13.969 -0.5007  0.3161 -0.4680
11923TIP3    H157184   5.909   3.307  13.909  0.9209 -0.0633  1.0290
11923TIP3    H257185   5.848   3.196  13.992 -0.1453  0.7656  1.3814
11924TIP3   OH257186   0.423   0.945   5.185  0.1561 -0.8021 -0.4196
11924TIP3    H157187   0.510   0.919   5.216  0.6016 -0.8495 -1.6402
11924TIP3    H257188   0.435   0.961   5.091 -0.3408  2.6506 -0.0276
11925TIP3   OH257189   4.583   3.031   2.465  0.1715 -0.3428  0.3962
11925TIP3    H157190   4.582   3.076   2.380  0.0660  0.6142  0.8926
11925TIP3    H257191   4.495   2.994   2.474  0.3770 -0.9906 -0.1872
11926TIP3   OH257192   5.595   2.707   2.636 -0.3622  0.0879 -0.9982
11926TIP3    H157193   5.666   2.713   2.700  0.2298 -0.1861 -1.6178
11926TIP3    H257194   5.534   2.776   2.662 -0.7850 -0.8490  0.6337
11927TIP3   OH257195   2.806   1.441  13.692  0.4513  0.0804  0.1531
11927TIP3    H157196   2.852   1.390  13.625  0.0222 -0.8014  0.5003
11927TIP3    H257197   2.718   1.453  13.656 -0.4980 -2.3010  1.4038
11928TIP3   OH257198   5.685   4.496   5.792  0.3782  0.0291 -0.1253
11928TIP3    H157199   5.755   4.435   5.813  0.4475 -0.4518 -1.6315
11928TIP3    H257200   5.706   4.575   5.843  2.3107  0.0850 -0.8961
11929TIP3   OH257201   2.373   5.319   4.665  0.2113 -0.0854  0.1637
11929TIP3    H157202   2.450   5.264   4.677  1.3772  1.6847  1.3714
11929TIP3    H257203   2.350   5.309   4.573  1.3387 -1.3361 -0.0112
11930TIP3   OH257204   5.265   2.170   3.321 -0.1159  0.4591  0.6326
11930TIP3    H157205   5.218   2.211   3.394 -1.0120  0.7955 -0.1037
11930TIP3    H257206   5.204   2.176   3.248  0.8464  0.3241 -0.2026
11931TIP3   OH257207   3.004   3.446  16.168  0.2134  0.2490  0.2081
11931TIP3    H157208   3.005   3.459  16.073  0.0462  0.2690  0.2086
11931TIP3    H257209   2.968   3.528  16.202  1.8826  0.9310  0.3990
11932TIP3   OH257210   2.161   2.694   4.187 -0.1729 -0.0603  0.2883
11932TIP3    H157211   2.222   2.629   4.151  0.3468  0.3892  0.3470
11932TIP3    H257212   2.200   2.719   4.270 -0.1481  0.6393  0.0703
11933TIP3   OH257213   5.338   2.446   0.083  0.4955 -0.7844  0.0234
11933TIP3    H157214   5.371   2.379   0.144  0.5264 -0.1029  0.7818
11933TIP3    H257215   5.247   2.421   0.067  0.5318 -1.0583  0.2254
11934TIP3   OH257216   5.148   4.557   2.135 -0.4048 -0.4881  0.0469
11934TIP3    H157217   5.226   4.549   2.189 -1.2720  1.0329  1.6222
11934TIP3    H257218   5.172   4.622   2.069 -0.3144 -0.0608  0.4955
11935TIP3   OH257219   1.829   4.765   5.470  0.8104 -0.2166 -0.1304
11935TIP3    H157220   1.778   4.696   5.512  1.6389 -0.3332  0.7239
11935TIP3    H257221   1.865   4.815   5.543  1.0656  0.4930 -0.7341
11936TIP3   OH257222   4.694   0.974   1.349  0.2147 -0.7432 -0.4517
11936TIP3    H157223   4.662   0.930   1.429 -0.4566  0.8841  0.2117
11936TIP3    H257224   4.755   1.040   1.381  0.6483 -0.6768 -1.3838
11937TIP3   OH257225   1.006   2.994  17.032  0.9350 -0.0477  0.4393
11937TIP3    H157226   0.971   2.927  17.091  0.3024  0.8071  1.0605
11937TIP3    H257227   1.091   2.959  17.004  0.1586 -1.5846 -0.1003
11938TIP3   OH257228   6.164   2.236  16.463  0.5976 -0.0443 -0.3660
11938TIP3    H157229   6.234   2.269  16.519 -0.1582  0.3186  0.3938
11938TIP3    H257230   6.094   2.212  16.524 -0.2038  0.2620 -1.1419
11939TIP3   OH257231   1.611   5.798  17.051  0.0132 -0.9498 -0.1205
11939TIP3    H157232   1.516   5.793  17.039 -0.2504  1.3121  0.5628
11939TIP3    H257233   1.631   5.727  17.112 -1.0329 -2.2190 -1.1951
11940TIP3   OH257234   5.643   1.745  13.211  0.3999  0.3763 -0.1843
11940TIP3    H157235   5.610   1.720  13.125 -1.3096  0.4611  0.4241
11940TIP3    H257236   5.605   1.831  13.228  0.1327  0.0482  0.9685
11941TIP3   OH257237   4.823   1.465  12.122 -0.0603 -0.0282  0.1866
11941TIP3    H157238   4.890   1.451  12.056  0.5498  0.2323  0.7411
11941TIP3    H257239   4.774   1.541  12.090  1.4057  1.2855  0.9209
11942TIP3   OH257240   1.431   0.057   3.620 -0.4338  0.1795  0.2384
11942TIP3    H157241   1.432   0.075   3.526 -1.0657 -1.3330 -0.0775
11942TIP3    H257242   1.522   0.067   3.647  0.0398 -0.8947 -0.8594
11943TIP3   OH257243   1.662   2.654   5.720 -0.1217  0.1493 -0.0127
11943TIP3    H157244   1.675   2.743   5.686 -1.0147  0.4724  0.4667
11943TIP3    H257245   1.678   2.597   5.645  0.4301  0.7131 -0.3355
11944TIP3   OH257246   1.106   3.114  15.840  0.0285  0.4543  0.1636
11944TIP3    H157247   1.151   3.198  15.836 -2.2969  1.7917 -4.0144
11944TIP3    H257248   1.161   3.056  15.787 -0.2541  0.4034 -0.0713
11945TIP3   OH257249   5.697   4.363  12.169 -0.5926 -0.6537  0.0088
11945TIP3    H157250   5.726   4.454  12.162  2.2114 -1.4628 -0.2744
11945TIP3    H257251   5.659   4.343  12.084  0.3580 -0.2030 -0.5374
11946TIP3   OH257252   3.107   6.427  13.850  0.1249 -0.3015  0.0678
11946TIP3    H157253   3.129   6.441  13.942  0.2882  2.5317 -0.3373
11946TIP3    H257254   3.028   6.478  13.835 -0.5287 -1.5851 -1.1571
11947TIP3   OH257255   5.954   4.502  14.419  0.1731  0.1750  0.0927
11947TIP3    H157256   6.016   4.574  14.431  0.0748  0.7012 -2.2232
11947TIP3    H257257   5.870   4.545  14.405  0.2603 -0.2921 -2.2086
11948TIP3   OH257258   1.285   5.129  16.453 -0.2040  0.1246  0.4120
11948TIP3    H157259   1.368   5.151  16.411 -0.4581 -1.5504 -1.0931
11948TIP3    H257260   1.228   5.203  16.434  0.3930  0.4441 -0.1561
11949TIP3   OH257261   5.483   4.552   5.235 -0.0786  0.2706  0.2423
11949TIP3    H157262   5.567   4.573   5.195  0.4854 -1.5454  0.3537
11949TIP3    H257263   5.422   4.616   5.199  1.1163  0.8856 -0.7574
11950TIP3   OH257264   4.575   5.403   3.365  0.5690 -0.0535 -0.0944
11950TIP3    H157265   4.657   5.415   3.318  0.4758 -1.2279 -0.5986
11950TIP3    H257266   4.508   5.399   3.297  0.1233  0.5883  0.2924
11951TIP3   OH257267   2.846   0.719   3.256 -0.1559  0.4693  0.1310
11951TIP3    H157268   2.782   0.785   3.283  0.1335  0.8318 -0.0550
11951TIP3    H257269   2.837   0.715   3.161 -0.7816 -0.3973  0.2128
11952TIP3   OH257270   4.619   3.167   2.239 -0.1163 -0.4095  0.8628
11952TIP3    H157271   4.622   3.263   2.235 -0.6127 -0.4160  0.1975
11952TIP3    H257272   4.693   3.138   2.184 -1.7177 -0.4131 -1.4284
11953TIP3   OH257273   4.089   2.146  12.109 -0.2556  0.4135 -0.3087
11953TIP3    H157274   4.128   2.202  12.041  1.1253  0.6601  0.6420
11953TIP3    H257275   4.000   2.179  12.118  0.2301  1.8545 -0.4376
11954TIP3   OH257276   4.379   6.193   1.398 -0.1140  0.0838 -0.0276
11954TIP3    H157277   4.408   6.158   1.314 -0.3520  0.3622 -0.2266
11954TIP3    H257278   4.329   6.121   1.437 -1.0409  0.3705 -0.6644
11955TIP3   OH257279   6.748   1.123  16.272 -0.0821 -0.0828  0.1008
11955TIP3    H157280   6.740   1.136  16.367 -1.1042  0.4412 -0.0414
11955TIP3    H257281   6.804   1.195  16.243  0.8386 -0.6668  0.3924
11956TIP3   OH257282   6.749   5.484  11.247 -0.0153  0.6355 -0.2898
11956TIP3    H157283   6.824   5.516  11.195  0.0488  2.2603  0.7521
11956TIP3    H257284   6.786   5.466  11.333 -0.4829 -0.3682 -0.2848
11957TIP3   OH257285   4.000   0.419  14.224 -0.1290  0.3454  0.3085
11957TIP3    H157286   3.922   0.417  14.168  0.7187  0.9153 -0.9336
11957TIP3    H257287   4.008   0.329  14.256 -1.5044  0.3641  0.7881
11958TIP3   OH257288   0.457   5.674   0.479 -0.3019  0.7670  0.8168
11958TIP3    H157289   0.391   5.647   0.543  2.1800 -1.3832  2.6875
11958TIP3    H257290   0.523   5.720   0.530  0.0064  2.3410 -0.8994
11959TIP3   OH257291   3.547   4.015  12.400  0.4216 -0.2243 -0.7532
11959TIP3    H157292   3.513   3.973  12.321  0.3557 -1.7253  0.0286
11959TIP3    H257293   3.469   4.040  12.450  0.4498 -0.7912 -0.4140
11960TIP3   OH257294   5.686   5.741   2.307  0.3213  0.5746 -0.4417
11960TIP3    H157295   5.639   5.807   2.357  0.3905  1.2778 -1.2824
11960TIP3    H257296   5.627   5.718   2.235 -0.6394 -1.8954  0.9996
11961TIP3   OH257297   4.125   5.639   2.671  0.1286  0.3139 -0.2800
11961TIP3    H157298   4.099   5.700   2.740  0.6445  0.8983 -0.5853
11961TIP3    H257299   4.193   5.686   2.623  1.2382 -0.8849  0.0677
11962TIP3   OH257300   0.723   5.487   2.798  0.2037  0.4234  0.3561
11962TIP3    H157301   0.781   5.412   2.811  0.5390  0.9358  2.0140
11962TIP3    H257302   0.760   5.556   2.852 -0.6424  1.5061 -0.4016
11963TIP3   OH257303   3.629   0.498   5.247 -0.2871  0.3191  0.0862
11963TIP3    H157304   3.677   0.416   5.243 -1.1600 -0.1715 -1.3785
11963TIP3    H257305   3.539   0.472   5.268 -0.4934  0.9278 -0.0153
11964TIP3   OH257306   1.212   2.839  15.384  0.2009 -0.3432  0.2319
11964TIP3    H157307   1.151   2.828  15.311  2.1550 -0.8065 -1.4208
11964TIP3    H257308   1.203   2.931  15.409  0.1726  0.0676 -1.2238
11965TIP3   OH257309   4.410   3.477  14.727 -0.0759  0.4306 -0.6830
11965TIP3    H157310   4.476   3.434  14.781 -0.3018  0.7609 -0.1328
11965TIP3    H257311   4.454   3.554  14.691 -0.7967  2.0312  1.6323
11966TIP3   OH257312   1.257   1.235  13.360 -0.8030 -0.1105  0.2985
11966TIP3    H157313   1.349   1.252  13.342 -0.8211 -0.9873 -0.7513
11966TIP3    H257314   1.211   1.312  13.329 -0.5175 -0.1422 -0.2018
11967TIP3   OH257315   1.377   1.893  13.714  0.7378 -0.4038  0.2484
11967TIP3    H157316   1.357   1.811  13.759 -0.1285  0.2445  1.1082
11967TIP3    H257317   1.339   1.883  13.627 -0.7888 -0.3310  0.8780
11968TIP3   OH257318   0.198   4.019   4.430 -0.1353 -0.0735  0.6148
11968TIP3    H157319   0.110   4.009   4.465 -0.5969 -1.9360 -0.8820
11968TIP3    H257320   0.199   3.963   4.352  2.6666 -0.8878  1.1316
11969TIP3   OH257321   2.796   2.569  14.304  0.4839 -0.1432  0.3820
11969TIP3    H157322   2.794   2.511  14.228 -0.8061  2.6306 -1.8922
11969TIP3    H257323   2.886   2.601  14.306  0.7109 -0.7681  0.4890
11970TIP3   OH257324   0.400   4.932  11.915  0.1813 -0.4685  0.0459
11970TIP3    H157325   0.423   4.888  11.833 -0.3480  4.8125 -3.4211
11970TIP3    H257326   0.463   5.004  11.922 -1.6604  1.0701  2.6636
11971TIP3   OH257327   4.042   6.496  16.682  0.1337 -0.0980 -0.0686
11971TIP3    H157328   4.038   6.416  16.733  0.3976  0.0300  0.1565
11971TIP3    H257329   3.964   6.494  16.627  1.1311 -1.4734 -1.4967
11972TIP3   OH257330   1.153   6.521   6.385  0.3024 -0.5601 -0.4967
11972TIP3    H157331   1.146   6.587   6.316 -1.7981 -0.4157 -0.2116
11972TIP3    H257332   1.172   6.439   6.339 -0.4531 -0.3440 -1.2153
11973TIP3   OH257333   5.056   5.386  14.830 -0.4121 -0.4412  0.4795
11973TIP3    H157334   5.038   5.477  14.804  2.6186  0.0728 -0.2073
11973TIP3    H257335   5.065   5.390  14.925 -0.0588  0.0575  0.4336
11974TIP3   OH257336   4.256   3.776   5.066  0.1653  0.3325  0.0056
11974TIP3    H157337   4.302   3.830   5.002 -0.5364  1.2682  0.2691
11974TIP3    H257338   4.315   3.772   5.142  1.2113 -1.1677 -0.8190
11975TIP3   OH257339   2.479   6.386   0.328  0.0453 -0.1275 -0.3022
11975TIP3    H157340   2.460   6.473   0.294  0.2031 -0.0771 -0.2615
11975TIP3    H257341   2.542   6.349   0.266  0.8584  0.2226  0.3015
11976TIP3   OH257342   0.066   1.494   5.437  0.2636 -0.1329  0.4580
11976TIP3    H157343  -0.023   1.490   5.404 -0.3377 -0.8840  2.0251
11976TIP3    H257344   0.072   1.578   5.483  0.0365 -0.4900  1.1576
11977TIP3   OH257345   1.853   6.642  11.786  0.2066  0.1579 -0.2756
11977TIP3    H157346   1.889   6.691  11.861  1.8529 -0.3179 -0.7283
11977TIP3    H257347   1.889   6.686  11.709  0.0577 -0.5381 -0.7452
11978TIP3   OH257348   1.882   6.511   4.777 -0.3345  0.0712 -0.3409
11978TIP3    H157349   1.859   6.467   4.858 -0.3913  0.7204 -0.0029
11978TIP3    H257350   1.799   6.528   4.733 -0.5216  1.8869  0.6067
11979TIP3   OH257351   2.168   3.800  14.572 -0.0271  0.1070  0.3542
11979TIP3    H157352   2.218   3.748  14.635 -0.8335 -0.3625  0.6245
11979TIP3    H257353   2.096   3.742  14.545 -0.9013  1.0435  0.6074
11980TIP3   OH257354   4.709   4.338  14.348 -0.2363  0.3486 -0.2624
11980TIP3    H157355   4.741   4.269  14.406  0.0989 -0.0761 -0.9287
11980TIP3    H257356   4.777   4.346  14.281 -1.3727 -0.3644 -1.5539
11981TIP3   OH257357   2.728   3.613  12.221 -0.0565  0.2021 -0.9122
11981TIP3    H157358   2.716   3.650  12.133  0.9364  1.6347 -0.4818
11981TIP3    H257359   2.789   3.540  12.208 -1.3221 -0.7697 -1.6446
11982TIP3   OH257360   0.439   3.598  15.436 -0.5730 -0.0995  0.4030
11982TIP3    H157361   0.414   3.651  15.361  0.1619  0.5675  0.6149
11982TIP3    H257362   0.358   3.589  15.487 -0.5930  1.2863  0.6409
11983TIP3   OH257363   5.872   2.853  11.982  0.7237 -0.1547  0.2742
11983TIP3    H157364   5.893   2.904  12.060 -0.6792  0.3229  0.3669
11983TIP3    H257365   5.857   2.764  12.014 -1.4824  0.3605  0.8590
11984TIP3   OH257366   1.895   6.394  15.758 -0.3242  0.5290 -0.3843
11984TIP3    H157367   1.910   6.329  15.689  0.0859  0.7535 -0.5144
11984TIP3    H257368   1.811   6.370  15.796 -0.2359 -0.0040 -0.5121
11985TIP3   OH257369   1.810   1.532  13.738 -0.3175  0.2245  0.0876
11985TIP3    H157370   1.865   1.529  13.660 -2.1166  0.6708 -1.2543
11985TIP3    H257371   1.870   1.558  13.808  1.0294  1.4792 -1.4449
11986TIP3   OH257372   4.849   0.285   0.153 -0.3068 -0.0741 -0.6196
11986TIP3    H157373   4.840   0.380   0.143 -0.0431  0.2653  1.8044
11986TIP3    H257374   4.937   0.273   0.190 -1.1132 -1.0343  1.1037
11987TIP3   OH257375   3.530   1.274  16.910  0.4448 -0.2388 -0.6155
11987TIP3    H157376   3.597   1.226  16.862  1.4987 -1.3752  1.7991
11987TIP3    H257377   3.530   1.234  16.997 -2.3882  0.6929 -0.0882
11988TIP3   OH257378   1.340   4.987  16.658 -0.2219 -0.3856 -0.6133
11988TIP3    H157379   1.309   5.024  16.575 -0.3851 -0.0992 -0.4238
11988TIP3    H257380   1.335   4.892  16.644 -2.3123 -0.3915 -0.1933
11989TIP3   OH257381   1.509   0.418  16.325  0.0813  0.0234  0.6122
11989TIP3    H157382   1.456   0.384  16.253 -0.1304 -1.5816  1.4779
11989TIP3    H257383   1.498   0.513  16.320 -1.0458 -0.1421 -0.6080
11990TIP3   OH257384   3.382   4.218  11.242 -0.4795 -0.2828  0.6098
11990TIP3    H157385   3.462   4.253  11.280 -1.5414  2.0592  0.8312
11990TIP3    H257386   3.383   4.125  11.266  1.6351 -0.0828  1.4849
11991TIP3   OH257387   6.119   5.940  12.688 -0.4986 -0.1763 -0.3264
11991TIP3    H157388   6.162   5.876  12.631  0.5359  0.1397  0.0876
11991TIP3    H257389   6.038   5.896  12.714 -0.0731 -1.0998 -0.4942
11992TIP3   OH257390   4.180   5.489   5.539  0.1430  0.4792 -0.6101
11992TIP3    H157391   4.186   5.521   5.449 -2.1048  0.0324 -0.9838
11992TIP3    H257392   4.126   5.554   5.585  2.3037  1.3666  0.8048
11993TIP3   OH257393   6.658   0.082   4.870 -0.3418 -0.0413 -0.3227
11993TIP3    H157394   6.731   0.094   4.931 -2.1603  0.3884  1.9080
11993TIP3    H257395   6.583   0.119   4.916 -2.5794 -3.1291 -1.1980
11994TIP3   OH257396   0.144   1.366  15.477 -0.4785 -0.2272 -0.5725
11994TIP3    H157397   0.152   1.455  15.512  0.5669 -0.7834  0.6952
11994TIP3    H257398   0.106   1.316  15.549 -4.6692 -0.1622 -2.4577
11995TIP3   OH257399   1.241   1.158  14.978 -0.0618  0.2965 -0.4231
11995TIP3    H157400   1.285   1.164  15.063  0.0431 -0.2843 -0.4342
11995TIP3    H257401   1.182   1.083  14.987  0.5407 -0.2773 -1.1260
11996TIP3   OH257402   0.117   4.069  12.236  0.4602  0.1199 -0.1898
11996TIP3    H157403   0.204   4.047  12.269  1.3797  3.3718 -0.0478
11996TIP3    H257404   0.110   4.164  12.249 -2.3297  0.2890 -2.0272
11997TIP3   OH257405   2.270   1.681   4.320  0.1007  0.7308  0.1255
11997TIP3    H157406   2.364   1.661   4.322 -0.3547 -1.7394 -0.1827
11997TIP3    H257407   2.241   1.646   4.236 -1.3561  0.0780  0.8722
11998TIP3   OH257408   5.329   1.816  13.329 -0.8917 -0.1538 -0.2241
11998TIP3    H157409   5.398   1.833  13.394 -2.1632  0.5033  1.0330
11998TIP3    H257410   5.301   1.903  13.301 -0.2010 -0.4385 -1.8771
11999TIP3   OH257411   4.826   2.341  14.854  0.2295 -0.4023  0.0417
11999TIP3    H157412   4.859   2.307  14.938 -0.0814 -1.4095 -0.2325
11999TIP3    H257413   4.872   2.424  14.843 -0.3862  0.2010  1.6482
12000TIP3   OH257414   5.997   4.462  11.030  0.0292  0.2562 -0.2888
12000TIP3    H157415   5.980   4.485  11.122  0.9018  0.0207 -0.0584
12000TIP3    H257416   5.913   4.433  10.997 -0.5159  1.2540  0.1620
12001TIP3   OH257417   1.049   0.620   6.284  0.2626  0.2130  0.1357
12001TIP3    H157418   0.984   0.585   6.346 -0.5410  0.7009 -0.4092
12001TIP3    H257419   1.052   0.555   6.214  0.6785 -0.0175  0.3695
12002TIP3   OH257420   2.791   6.026  11.826  0.5689  0.5563  0.3543
12002TIP3    H157421   2.718   6.030  11.764 -0.0328 -0.6727  0.9511
12002TIP3    H257422   2.762   6.076  11.902  0.3878  0.1594  0.5477
12003TIP3   OH257423   5.691   3.437  15.653  0.4162 -0.5602  0.0248
12003TIP3    H157424   5.741   3.402  15.579 -0.1995 -0.8964 -0.2343
12003TIP3    H257425   5.672   3.360  15.707 -0.3338 -0.5306 -0.1850
12004TIP3   OH257426   3.697   5.643   3.142  0.3937  0.4484  0.4615
12004TIP3    H157427   3.636   5.650   3.068  2.7830  0.1353 -1.6921
12004TIP3    H257428   3.704   5.548   3.158 -0.6460  0.5409  1.6408
12005TIP3   OH257429   1.447   4.248   5.117  0.1088  0.1387 -0.6314
12005TIP3    H157430   1.475   4.233   5.208  1.9883  2.4770 -0.7108
12005TIP3    H257431   1.367   4.299   5.125 -0.1659 -0.3409 -0.2935
12006TIP3   OH257432   5.744   2.127   1.542  0.7246 -0.9626  0.0033
12006TIP3    H157433   5.806   2.197   1.520 -1.3600  1.0464  0.1900
12006TIP3    H257434   5.742   2.127   1.638 -1.1038  0.4928  0.0061
12007TIP3   OH257435   5.446   1.530   2.809 -0.2395 -0.8195 -0.0875
12007TIP3    H157436   5.391   1.536   2.886  0.1540 -0.9681  0.2068
12007TIP3    H257437   5.455   1.436   2.793 -1.0124 -0.7796 -0.8158
12008TIP3   OH257438   6.173   6.092   1.960 -0.4383  0.6262  0.0896
12008TIP3    H157439   6.218   6.010   1.939  0.0540  0.6622  0.9491
12008TIP3    H257440   6.152   6.084   2.053 -3.3839  0.0656 -0.5363
12009TIP3   OH257441   6.328   5.431  16.362  0.2263 -0.1960 -0.4946
12009TIP3    H157442   6.340   5.485  16.440  0.8016 -0.3547 -0.4648
12009TIP3    H257443   6.416   5.398  16.342  0.0798 -0.1742 -1.1994
12010TIP3   OH257444   2.204   0.013   2.650  0.3361  0.1623 -0.1580
12010TIP3    H157445   2.200  -0.056   2.716  2.6038  0.3733  0.3121
12010TIP3    H257446   2.189   0.094   2.699  0.8323  0.2264 -0.1047
12011TIP3   OH257447   3.471   0.109   2.387  0.1874 -0.2131 -0.0322
12011TIP3    H157448   3.485   0.095   2.481 -2.1165 -1.6583  0.1694
12011TIP3    H257449   3.559   0.105   2.350  1.1080 -0.2072  1.9830
12012TIP3   OH257450   4.941   5.649   5.257  0.0508  0.0999 -0.1261
12012TIP3    H157451   4.923   5.622   5.167 -0.3683 -0.8850  0.2355
12012TIP3    H257452   5.007   5.587   5.288 -0.1309  0.1579  0.3859
12013TIP3   OH257453   6.348   4.154   4.740 -0.5131 -0.1633  0.3682
12013TIP3    H157454   6.290   4.083   4.711 -0.5852 -0.6954  1.7109
12013TIP3    H257455   6.310   4.233   4.702 -0.6379 -0.7912 -0.8609
12014TIP3   OH257456   0.908   1.019  12.548  0.5884 -0.1091  0.1579
12014TIP3    H157457   0.911   1.109  12.580  0.9640 -0.4370  1.0722
12014TIP3    H257458   0.991   0.981  12.576  1.4546 -0.1045 -2.2073
12015TIP3   OH257459   0.184   0.522   1.507 -0.7970  0.2698  0.7542
12015TIP3    H157460   0.262   0.522   1.562  0.8523 -0.7682 -1.4576
12015TIP3    H257461   0.149   0.433   1.515 -0.2707 -0.0324 -0.2197
12016TIP3   OH257462   2.494   2.573  17.025 -0.6466 -0.1124  0.4373
12016TIP3    H157463   2.541   2.508  16.973  0.2579  1.1315 -0.3750
12016TIP3    H257464   2.507   2.546  17.116 -1.5690 -1.8760  0.0947
12017TIP3   OH257465   4.421   0.189  16.267 -0.1361  0.2548 -0.0405
12017TIP3    H157466   4.515   0.206  16.273 -0.0809 -0.1164  0.1853
12017TIP3    H257467   4.387   0.263  16.216  0.3749  0.0464 -0.7122
12018TIP3   OH257468   4.288   2.303   2.712  0.0390  0.5405  0.1168
12018TIP3    H157469   4.272   2.386   2.757  0.2984  0.2598  0.7457
12018TIP3    H257470   4.363   2.265   2.758  0.1449  0.1180 -0.3915
12019TIP3   OH257471   0.762   3.523   5.582  0.1754  0.0999  0.0598
12019TIP3    H157472   0.686   3.515   5.640  0.0956  1.5155  0.1687
12019TIP3    H257473   0.806   3.438   5.589  0.8701  0.5864  3.2098
12020TIP3   OH257474   2.063   3.648  11.921 -0.0034  0.2772 -0.1288
12020TIP3    H157475   2.050   3.648  11.826  1.8038  0.7976 -0.4165
12020TIP3    H257476   1.976   3.667  11.957 -0.6766  0.2890 -1.6797
12021TIP3   OH257477   1.876   1.195   3.952  0.1195 -0.0503  0.0443
12021TIP3    H157478   1.792   1.229   3.922 -0.1160 -1.5560 -1.1622
12021TIP3    H257479   1.861   1.172   4.044 -1.3418 -1.7839 -0.5605
12022TIP3   OH257480   2.555   4.926   4.622  0.2470 -0.0310  0.6285
12022TIP3    H157481   2.571   4.902   4.713  1.1028  0.3561  0.5873
12022TIP3    H257482   2.470   4.888   4.602  0.0264 -0.0746  1.6038
12023TIP3   OH257483   3.050   1.396  14.677  0.1824 -0.0828  0.0265
12023TIP3    H157484   3.139   1.362  14.663 -0.3431 -1.5131  0.0390
12023TIP3    H257485   3.011   1.335  14.739 -0.7192  0.7218  0.2677
12024TIP3   OH257486   0.302   2.672  14.451 -0.4134  0.1391 -0.1582
12024TIP3    H157487   0.254   2.691  14.371 -1.8520 -0.0062  0.6431
12024TIP3    H257488   0.256   2.721  14.519  0.8255  0.3133  0.5779
12025TIP3   OH257489   0.030   1.079  16.750  0.2039 -0.5560 -0.3682
12025TIP3    H157490   0.001   1.035  16.670 -0.6440  1.0290 -0.9743
12025TIP3    H257491   0.055   1.167  16.722 -1.2300  0.4496  1.2282
12026TIP3   OH257492   2.424   1.626   2.901 -0.0050  0.9155 -0.6458
12026TIP3    H157493   2.354   1.640   2.964  0.0967  2.3923 -0.8425
12026TIP3    H257494   2.385   1.568   2.835  0.1394 -1.3428  1.1281
12027TIP3   OH257495   4.801   4.587   1.631  0.4328 -0.4301 -0.0664
12027TIP3    H157496   4.753   4.663   1.664  1.0728 -0.6688  1.5519
12027TIP3    H257497   4.893   4.607   1.649  0.7570 -0.8632 -1.1928
12028TIP3   OH257498   3.157   3.207   5.043 -0.0653  0.4519  0.1234
12028TIP3    H157499   3.087   3.244   5.095 -1.5981 -0.9434 -0.8510
12028TIP3    H257500   3.143   3.112   5.047  1.5269  0.1521 -0.4345
12029TIP3   OH257501   5.377   1.015   6.137  0.0451  0.1954 -0.3302
12029TIP3    H157502   5.472   1.013   6.145 -0.0445 -0.5726  0.8112
12029TIP3    H257503   5.345   0.985   6.223 -1.2202  0.3713 -0.7177
12030TIP3   OH257504   4.254   5.722   5.986  0.2935 -0.5665 -0.1183
12030TIP3    H157505   4.324   5.752   6.045 -1.4833 -1.1409  2.4282
12030TIP3    H257506   4.202   5.800   5.968  1.2994 -0.2105 -1.7431
12031TIP3   OH257507   5.202   3.363  12.004  0.2483  0.0479  0.2764
12031TIP3    H157508   5.224   3.272  11.986  0.0554 -0.2127  1.3134
12031TIP3    H257509   5.279   3.412  11.975 -0.8725 -0.0690 -3.3620
12032TIP3   OH257510   1.865   4.271  16.823 -0.4017  0.8234 -0.1245
12032TIP3    H157511   1.816   4.219  16.759 -0.7310  1.5441 -0.4739
12032TIP3    H257512   1.910   4.337  16.770 -0.9382  1.6387  0.4025
12033TIP3   OH257513   5.891   3.616  16.838 -0.2035 -0.0118  0.1676
12033TIP3    H157514   5.877   3.546  16.902 -0.8080  0.2600  0.3389
12033TIP3    H257515   5.805   3.631  16.800 -0.1351  0.8351  0.3276
12034TIP3   OH257516   0.163   1.907  10.414  0.1007  0.3096 -0.0637
12034TIP3    H157517   0.201   1.991  10.388 -0.5934  1.0256  1.1251
12034TIP3    H257518   0.209   1.842  10.361  0.9257  1.4019 -0.7291
12035TIP3   OH257519   5.554   4.909  15.605 -0.1938  0.4864 -0.4554
12035TIP3    H157520   5.639   4.910  15.561 -0.1595  2.4556 -0.4676
12035TIP3    H257521   5.515   4.994  15.582 -2.1817 -0.3884 -0.4743
12036TIP3   OH257522   5.677   6.005  14.711  0.5543 -0.9076  0.1849
12036TIP3    H157523   5.602   6.047  14.753  1.1232 -0.8931  1.2113
12036TIP3    H257524   5.747   6.071  14.717  1.4357 -1.9326  1.7468
12037TIP3   OH257525   2.179   1.529  11.339 -0.0574 -0.0435 -0.2041
12037TIP3    H157526   2.234   1.502  11.412 -0.9547 -0.9031  0.1758
12037TIP3    H257527   2.112   1.585  11.379 -1.3026 -1.5305 -0.1274
12038TIP3   OH257528   6.503   3.355   5.257  0.6678  0.1587 -0.0688
12038TIP3    H157529   6.594   3.383   5.245  0.7703  0.1767  0.7197
12038TIP3    H257530   6.465   3.423   5.314  0.0820  0.3044 -0.6261
12039TIP3   OH257531   0.371   4.784  12.298  0.8976 -0.8456 -0.2527
12039TIP3    H157532   0.456   4.809  12.263  0.3477  1.9689  0.2032
12039TIP3    H257533   0.313   4.781  12.222  0.8313  0.0072 -0.2430
12040TIP3   OH257534   1.045   6.370  13.426  0.0116  0.3340  0.6078
12040TIP3    H157535   1.059   6.456  13.387  0.8584 -0.7251 -1.6494
12040TIP3    H257536   1.117   6.360  13.488  1.3126  0.4244 -0.8001
12041TIP3   OH257537   0.447   3.884  14.748 -0.1660 -0.0618  0.0944
12041TIP3    H157538   0.388   3.929  14.809 -1.2705 -0.3223 -0.7451
12041TIP3    H257539   0.455   3.943  14.674 -1.6968 -1.2189 -1.0582
12042TIP3   OH257540   0.935   3.149   1.870 -0.9541 -0.2714 -0.0081
12042TIP3    H157541   0.983   3.201   1.806 -1.5153  0.5139  0.1943
12042TIP3    H257542   0.867   3.105   1.819  0.9671 -2.8013 -0.6219
12043TIP3   OH257543   3.899   2.552   4.704  0.3692 -0.5491 -0.5443
12043TIP3    H157544   3.983   2.595   4.687 -0.1528  0.2134 -1.2989
12043TIP3    H257545   3.918   2.458   4.696  0.9958 -0.3567 -1.5308
12044TIP3   OH257546   3.325   2.423   2.860  0.4981 -0.4547 -0.5801
12044TIP3    H157547   3.273   2.479   2.803  0.2424 -1.6743 -1.5975
12044TIP3    H257548   3.373   2.484   2.916  0.1658  0.7761 -1.5757
12045TIP3   OH257549   6.677   6.540   0.201 -0.0620  0.1159  0.4936
12045TIP3    H157550   6.617   6.535   0.127 -0.5880  0.5241  0.8890
12045TIP3    H257551   6.726   6.457   0.198  2.1709  1.3532 -2.1863
12046TIP3   OH257552   0.771   2.099   3.661  0.1746 -0.5796  0.2134
12046TIP3    H157553   0.689   2.063   3.628 -0.7116 -0.7174  2.4022
12046TIP3    H257554   0.799   2.037   3.729  0.9138  0.5841  1.0136
12047TIP3   OH257555   4.693   6.194   1.185 -0.0944  0.3630  0.0824
12047TIP3    H157556   4.651   6.118   1.146  1.8335 -0.2318 -0.9755
12047TIP3    H257557   4.646   6.270   1.149 -0.6968 -0.2769 -0.4919
12048TIP3   OH257558   5.764   5.064   3.690 -0.1043 -0.6461 -0.0224
12048TIP3    H157559   5.764   4.969   3.681  0.3574 -0.5298 -1.5075
12048TIP3    H257560   5.845   5.093   3.648 -0.6914  0.4650 -0.4313
12049TIP3   OH257561   3.727   5.493   5.514 -0.0256  0.4754 -0.0880
12049TIP3    H157562   3.633   5.503   5.498  0.0030  0.3180 -0.3749
12049TIP3    H257563   3.747   5.404   5.485 -0.0163  0.0735  1.1321
12050TIP3   OH257564   1.837   1.508  12.022 -0.1258 -0.2122  0.2284
12050TIP3    H157565   1.768   1.459  11.977 -1.2866 -0.9605  2.6201
12050TIP3    H257566   1.918   1.467  11.993 -0.8599 -1.1395 -0.5848
12051TIP3   OH257567   6.075   6.360   4.731 -0.4632  0.0557 -0.0100
12051TIP3    H157568   6.154   6.332   4.685  0.3678 -0.7387  1.8235
12051TIP3    H257569   6.009   6.294   4.709 -0.2308 -0.0322 -0.4536
12052TIP3   OH257570   0.813   4.038   1.114  0.6267  0.4508 -0.3927
12052TIP3    H157571   0.878   4.015   1.047  1.1531 -0.7003  0.4810
12052TIP3    H257572   0.850   4.113   1.159  1.7767 -0.6733  0.6143
12053TIP3   OH257573   0.479   3.567   0.840 -0.3076  0.9359  0.0258
12053TIP3    H157574   0.486   3.482   0.798 -1.3706 -0.3083  2.2107
12053TIP3    H257575   0.448   3.625   0.771  0.4985 -0.3887 -1.5280
12054TIP3   OH257576   5.152   2.035   5.129  0.2505  0.4215  0.4071
12054TIP3    H157577   5.086   2.067   5.191  0.0063  0.6284  0.0512
12054TIP3    H257578   5.210   1.980   5.181 -1.0481 -0.9629  0.4523
12055TIP3   OH257579   5.508   2.339  16.597 -0.8858  0.1142  0.0913
12055TIP3    H157580   5.425   2.290  16.596 -1.0620  0.4089 -0.6333
12055TIP3    H257581   5.569   2.283  16.550 -0.6829 -0.0673  0.5591
12056TIP3   OH257582   6.608   4.082   5.576  0.0381  0.4804  0.5031
12056TIP3    H157583   6.518   4.083   5.608 -0.8852 -0.5679 -1.8221
12056TIP3    H257584   6.650   4.012   5.626 -1.1320 -0.6049  0.0206
12057TIP3   OH257585   2.789   2.406   5.782  0.2618  0.5834  0.2209
12057TIP3    H157586   2.799   2.478   5.844 -0.1322  0.7330  0.1165
12057TIP3    H257587   2.746   2.446   5.706  0.2651  0.2910  0.0642
12058TIP3   OH257588   2.652   5.688   1.848  0.5824  0.3423 -0.6742
12058TIP3    H157589   2.583   5.652   1.792 -0.6671 -0.3889  1.2307
12058TIP3    H257590   2.615   5.771   1.880  1.1029  0.5485 -0.5995
12059TIP3   OH257591   1.629   5.986   0.235 -0.2424 -0.5421 -0.2681
12059TIP3    H157592   1.645   5.893   0.222  1.1181 -0.7221  2.0810
12059TIP3    H257593   1.542   5.990   0.274  0.1332 -0.9677  0.6468
12060TIP3   OH257594   4.950   2.187   1.349 -0.7027 -0.2665 -0.2786
12060TIP3    H157595   5.032   2.237   1.352 -1.8163  1.6518  2.1264
12060TIP3    H257596   4.972   2.103   1.388  0.7641 -1.0140 -2.5464
12061TIP3   OH257597   5.028   3.267  10.918  0.0081 -0.4106 -0.0545
12061TIP3    H157598   4.971   3.339  10.946 -0.9368 -1.0843 -0.1865
12061TIP3    H257599   5.003   3.252  10.827  2.0650  0.8296 -0.8911
12062TIP3   OH257600   2.824   5.517  13.097 -0.2005  0.1174 -0.1119
12062TIP3    H157601   2.778   5.574  13.158  1.6931  0.4463  1.0688
12062TIP3    H257602   2.899   5.568  13.068  1.3357 -1.5809  0.6678
12063TIP3   OH257603   2.925   3.502  13.152  0.1419 -0.4165 -0.6704
12063TIP3    H157604   2.880   3.480  13.234 -1.0584 -0.5599 -1.3321
12063TIP3    H257605   2.924   3.598  13.149 -0.4371 -0.4199 -0.8249
12064TIP3   OH257606   3.639   2.839  11.241 -0.4917 -0.1545 -0.6604
12064TIP3    H157607   3.677   2.887  11.168 -0.1604 -0.3482 -0.6151
12064TIP3    H257608   3.652   2.747  11.220 -0.1147 -0.2110 -0.2165
12065TIP3   OH257609   4.144   6.497   3.715 -0.1598 -0.2455  0.3193
12065TIP3    H157610   4.222   6.469   3.764  1.3121 -1.0552 -2.2896
12065TIP3    H257611   4.092   6.417   3.707 -0.6013 -0.0200  0.8669
12066TIP3   OH257612   3.473   5.374   0.877  0.0522 -0.0638 -0.1327
12066TIP3    H157613   3.550   5.430   0.877 -0.4381  0.6271 -0.6738
12066TIP3    H257614   3.454   5.359   0.785 -0.1751 -0.6245  0.0027
12067TIP3   OH257615   3.151   2.163   3.144  0.0583 -0.1241  0.3600
12067TIP3    H157616   3.135   2.145   3.236 -2.2797 -1.1727 -0.1924
12067TIP3    H257617   3.069   2.200   3.111  0.1369 -1.6140 -1.7288
12068TIP3   OH257618   5.209   3.356  15.739 -0.5315  0.6075  0.1573
12068TIP3    H157619   5.197   3.343  15.645  1.1197 -0.3275  0.0376
12068TIP3    H257620   5.194   3.270  15.778 -0.6512  0.8652  0.6940
12069TIP3   OH257621   4.797   2.226  13.637 -0.1599  0.4687  0.3267
12069TIP3    H157622   4.743   2.304  13.622 -2.0029 -0.5339  1.3681
12069TIP3    H257623   4.806   2.185  13.551 -1.0873  0.6487  0.1394
12070TIP3   OH257624   6.726   0.455  14.765 -0.4742  0.6601 -0.0496
12070TIP3    H157625   6.802   0.398  14.757 -0.3657  0.9890 -1.8165
12070TIP3    H257626   6.655   0.397  14.794 -0.0019 -0.0504 -0.2933
12071TIP3   OH257627   0.394   3.576  15.037  0.8960  0.0047 -0.5311
12071TIP3    H157628   0.422   3.496  14.993 -1.1848 -0.9121 -0.3050
12071TIP3    H257629   0.330   3.547  15.102 -0.0410  1.8512 -0.5531
12072TIP3   OH257630   5.698   0.267   4.299 -0.7181 -0.3158 -0.0020
12072TIP3    H157631   5.672   0.212   4.226  0.8275 -1.4850  0.2779
12072TIP3    H257632   5.726   0.349   4.258 -3.2897  0.4527 -0.3986
12073TIP3   OH257633   2.486   2.676  13.971 -0.3223  0.0135  0.8365
12073TIP3    H157634   2.470   2.756  13.921  1.9487 -0.6638 -1.1388
12073TIP3    H257635   2.399   2.637  13.982 -1.1230  1.2038 -0.8521
12074TIP3   OH257636   5.507   1.053   3.018 -0.3729 -0.4702  0.3534
12074TIP3    H157637   5.483   1.104   2.940  0.6194 -0.1152  0.2717
12074TIP3    H257638   5.574   0.993   2.987 -0.6542 -0.9868  0.7344
12075TIP3   OH257639   6.592   2.581   4.126 -0.6365 -0.7399 -0.0355
12075TIP3    H157640   6.570   2.599   4.217 -0.3136 -0.2168 -0.0544
12075TIP3    H257641   6.666   2.521   4.130 -0.6132 -0.7055  0.0469
12076TIP3   OH257642   6.709   6.077   4.875 -0.3498  0.0980  0.0605
12076TIP3    H157643   6.651   6.138   4.829 -0.4022 -0.9948 -1.3943
12076TIP3    H257644   6.655   5.999   4.890  0.1160 -0.1217  0.6649
12077TIP3   OH257645   2.463   0.196  15.907 -0.0652  0.1080 -0.4631
12077TIP3    H157646   2.532   0.258  15.931  3.0764 -1.7507 -3.7060
12077TIP3    H257647   2.443   0.150  15.989  0.9238  2.1615  1.0193
12078TIP3   OH257648   3.787   1.466   5.413  0.3772 -0.8093 -0.1909
12078TIP3    H157649   3.774   1.550   5.369 -0.0144 -0.3401  0.7887
12078TIP3    H257650   3.848   1.485   5.484  1.4329 -1.6711 -0.8326
12079TIP3   OH257651   0.542   2.188  13.871 -0.3987  0.5188  0.0084
12079TIP3    H157652   0.530   2.258  13.807 -0.0988  1.3975  0.8832
12079TIP3    H257653   0.512   2.109  13.827  3.2901  0.3328 -2.6421
12080TIP3   OH257654   4.025   3.022  10.890 -0.2619 -0.0047 -0.3274
12080TIP3    H157655   4.092   3.087  10.913 -0.8735  0.6968 -0.4980
12080TIP3    H257656   4.074   2.941  10.877  0.5017  0.3947  0.0045
12081TIP3   OH257657   3.700   2.266   1.631  0.4687 -0.6808  0.4211
12081TIP3    H157658   3.719   2.235   1.719  0.7972 -1.5306  0.0631
12081TIP3    H257659   3.766   2.223   1.576  0.0842 -0.3968 -0.2771
12082TIP3   OH257660   0.189   4.586  12.608  0.6698 -0.5098  0.4128
12082TIP3    H157661   0.163   4.511  12.662  0.4445  0.4475  1.7096
12082TIP3    H257662   0.110   4.609  12.560  0.6492 -0.9109  0.2527
12083TIP3   OH257663   6.270   6.141   5.400  0.5298  0.0653 -0.2407
12083TIP3    H157664   6.270   6.237   5.409 -1.8138  0.1836 -0.9187
12083TIP3    H257665   6.331   6.111   5.468  1.2133  2.0165  0.0762
12084TIP3   OH257666   2.635   1.997  14.963 -0.4464 -0.3616  0.5441
12084TIP3    H157667   2.661   1.906  14.978 -0.3426 -0.0140  2.6911
12084TIP3    H257668   2.597   1.996  14.875 -1.9792 -2.8195  1.1170
12085TIP3   OH257669   4.970   3.831   4.180 -0.2704 -0.4627  1.0096
12085TIP3    H157670   4.995   3.738   4.184  2.9944  0.0072 -2.6046
12085TIP3    H257671   4.908   3.836   4.107 -1.9964  0.0537  2.4390
12086TIP3   OH257672   3.699   4.346   1.474 -0.0090  0.0212  0.3269
12086TIP3    H157673   3.604   4.353   1.470  0.0068 -0.3950 -2.0051
12086TIP3    H257674   3.718   4.256   1.445  1.1223  0.3634 -0.0668
12087TIP3   OH257675   1.642   2.545  13.174  0.1319 -0.3153 -0.1099
12087TIP3    H157676   1.636   2.450  13.165  0.9287 -0.6915  2.3511
12087TIP3    H257677   1.633   2.560  13.268 -3.2631  2.3673 -0.6879
12088TIP3   OH257678   2.721   4.313  13.726  0.0073  0.5922  0.2614
12088TIP3    H157679   2.628   4.304  13.746 -0.3834 -0.2589 -1.7353
12088TIP3    H257680   2.762   4.238  13.768 -0.3060  0.5667  0.5233
12089TIP3   OH257681   2.649   1.647   2.318 -1.1407 -0.0217 -0.1856
12089TIP3    H157682   2.611   1.690   2.242 -1.0699 -0.2936 -0.3770
12089TIP3    H257683   2.582   1.654   2.386 -0.3947  2.0721  0.3933
12090TIP3   OH257684   1.423   1.993   4.024  0.2695 -0.0950  0.3463
12090TIP3    H157685   1.434   2.047   3.945 -1.3936  0.2217  0.3018
12090TIP3    H257686   1.445   1.905   3.995  2.4663  0.4164  0.2749
12091TIP3   OH257687   6.621   5.924   1.910  0.7525  0.0104  0.0905
12091TIP3    H157688   6.665   5.873   1.842 -0.3497 -1.9088  0.7152
12091TIP3    H257689   6.575   5.858   1.963 -0.1088  1.6158  1.4446
12092TIP3   OH257690   6.655   5.343  14.451 -0.6194  0.2098  0.1771
12092TIP3    H157691   6.651   5.357  14.357 -0.5634  1.0866  0.2973
12092TIP3    H257692   6.673   5.249  14.461  1.3096  0.4360 -0.7263
12093TIP3   OH257693   2.529   3.198   2.694  0.4681  0.2826 -0.4037
12093TIP3    H157694   2.495   3.187   2.605 -2.4951  1.5610  0.4266
12093TIP3    H257695   2.451   3.213   2.747  2.2013  0.2848  2.3165
12094TIP3   OH257696   1.792   3.689  12.102 -0.3719  0.2576  0.1512
12094TIP3    H157697   1.851   3.754  12.138  1.5256 -0.1244 -2.0390
12094TIP3    H257698   1.801   3.613  12.159  1.4379  0.1638 -0.1951
12095TIP3   OH257699   3.049   2.519  16.328  0.3098 -0.5335  0.3407
12095TIP3    H157700   3.138   2.511  16.361  0.5331 -1.4651 -0.4264
12095TIP3    H257701   2.993   2.518  16.406  0.9929  1.1160  0.9087
12096TIP3   OH257702   0.636   0.931  15.607  0.1220  0.1806 -0.1263
12096TIP3    H157703   0.679   0.851  15.578 -1.1930 -0.9203  0.7975
12096TIP3    H257704   0.579   0.902  15.679 -1.3621  1.7151 -0.6164
12097TIP3   OH257705   2.022   4.767  14.651  0.0851 -0.0578 -0.2958
12097TIP3    H157706   1.999   4.710  14.577  0.1615 -0.8399  0.2692
12097TIP3    H257707   2.118   4.771  14.648  0.2770 -2.0486  1.1449
12098TIP3   OH257708   3.116   1.562   2.029 -0.6060 -0.3468  0.0152
12098TIP3    H157709   3.073   1.531   2.109 -0.1761  2.1208  1.3182
12098TIP3    H257710   3.108   1.658   2.033  0.6252 -0.0692 -2.2426
12099TIP3   OH257711   4.353   0.722  12.542  0.4713  0.0551 -0.3713
12099TIP3    H157712   4.445   0.747  12.537 -0.3048  3.1650 -1.4213
12099TIP3    H257713   4.322   0.726  12.451 -0.5562 -1.7695 -0.1516
12100TIP3   OH257714   2.593   4.629   2.865  0.2578  0.2290  0.0243
12100TIP3    H157715   2.588   4.697   2.798  0.1658  0.9546  0.7553
12100TIP3    H257716   2.681   4.592   2.856 -0.5905 -1.4947 -2.2152
12101TIP3   OH257717   2.028   2.307   2.263 -0.0097  0.0452  0.5992
12101TIP3    H157718   1.970   2.377   2.293 -0.4643 -0.7529  1.6918
12101TIP3    H257719   2.086   2.348   2.199 -0.6967  1.2503  0.7258
12102TIP3   OH257720   4.627   3.160  17.203 -0.4480 -0.1504 -0.0027
12102TIP3    H157721   4.561   3.124  17.144 -0.7300 -0.3952  0.4585
12102TIP3    H257722   4.678   3.220  17.148 -0.8322 -0.2229 -0.4438
12103TIP3   OH257723   6.154   2.636   0.589  0.1623  0.2687  0.1979
12103TIP3    H157724   6.079   2.639   0.648  0.1483  1.3366  0.1322
12103TIP3    H257725   6.189   2.547   0.601 -1.0284 -0.2122  0.3133
12104TIP3   OH257726   6.620   1.562   1.720 -0.4248  0.1162 -0.0121
12104TIP3    H157727   6.585   1.624   1.784 -1.0474 -0.4702  0.2341
12104TIP3    H257728   6.638   1.482   1.771  3.0322  0.9076  0.2654
12105TIP3   OH257729   6.255   4.244   2.150 -0.1384  0.3055  0.2276
12105TIP3    H157730   6.277   4.166   2.100  0.7588  0.4158  0.4410
12105TIP3    H257731   6.224   4.307   2.085 -2.7005 -0.8119  0.2262
12106TIP3   OH257732   4.632   5.560  16.662 -0.1572 -0.8399  0.0009
12106TIP3    H157733   4.696   5.546  16.731 -0.1948  0.9115  0.4301
12106TIP3    H257734   4.645   5.486  16.602  1.4520 -1.1400  0.6742
12107TIP3   OH257735   2.408   1.508   5.045 -0.1222  0.1148 -0.3453
12107TIP3    H157736   2.432   1.465   4.962  1.1636  0.1235  0.0026
12107TIP3    H257737   2.371   1.437   5.098 -0.9601  0.1101 -0.9186
12108TIP3   OH257738   6.311   3.007  11.859 -0.5990  0.6140 -0.2166
12108TIP3    H157739   6.362   3.018  11.940  0.5948 -2.7005 -0.3647
12108TIP3    H257740   6.331   3.085  11.808  1.6424  1.0395  1.1633
12109TIP3   OH257741   2.853   3.493   3.057 -0.0508  0.5071 -0.2034
12109TIP3    H157742   2.777   3.473   3.003  0.8396  0.3763 -1.4572
12109TIP3    H257743   2.850   3.588   3.070 -0.1918  0.5613 -0.6300
12110TIP3   OH257744   2.300   0.157  10.742  0.1198  0.2679  0.0193
12110TIP3    H157745   2.225   0.210  10.716 -0.8444 -1.5636 -1.2019
12110TIP3    H257746   2.282   0.070  10.705  2.2894 -0.5485  0.6901
12111TIP3   OH257747   4.323   0.648  11.394 -0.3672  0.2344 -0.0014
12111TIP3    H157748   4.345   0.604  11.475  0.6570  0.6868 -0.0128
12111TIP3    H257749   4.408   0.673  11.356 -0.8420  0.4814 -0.9502
12112TIP3   OH257750   3.768   6.512   2.510 -0.0545  0.6821  0.2238
12112TIP3    H157751   3.803   6.521   2.599 -0.1205 -0.8881  0.4322
12112TIP3    H257752   3.674   6.500   2.522  0.2668 -2.8739  0.2678
12113TIP3   OH257753   1.312   4.967   1.568  0.4061 -0.1600 -0.1974
12113TIP3    H157754   1.258   4.902   1.524  2.6845 -1.2446 -1.5886
12113TIP3    H257755   1.250   5.034   1.598 -1.4791 -0.0180 -3.8864
12114TIP3   OH257756   4.053   2.292   1.957  0.2956  0.4761 -0.1085
12114TIP3    H157757   4.006   2.245   1.888 -0.3728 -0.2049  0.7884
12114TIP3    H257758   3.985   2.324   2.016  0.8360  1.3142  0.0859
12115TIP3   OH257759   3.900   4.162   2.622  0.1288 -0.5877  0.1629
12115TIP3    H157760   3.918   4.077   2.663 -0.7237 -0.2683  1.2593
12115TIP3    H257761   3.805   4.162   2.608 -0.1787  0.8720  1.8580
12116TIP3   OH257762   5.215   4.576   3.946  0.4226 -0.1922 -0.5696
12116TIP3    H157763   5.230   4.484   3.965  0.6389  0.0039  0.2570
12116TIP3    H257764   5.293   4.605   3.899 -0.3324 -0.8070 -2.2653
12117TIP3   OH257765   4.927   6.521   5.121 -0.6971 -0.0882  0.1870
12117TIP3    H157766   4.950   6.428   5.116 -5.3331 -1.4204 -3.6490
12117TIP3    H257767   4.969   6.560   5.044 -1.0345  0.3514  0.2240
12118TIP3   OH257768   6.124   1.216  16.566  0.6881  0.0858 -0.6464
12118TIP3    H157769   6.082   1.130  16.567  0.2503  0.3004 -0.4887
12118TIP3    H257770   6.158   1.224  16.477  1.5196 -0.6277 -0.4088
12119TIP3   OH257771   0.287   3.999  14.273  0.1247  0.0114 -0.0583
12119TIP3    H157772   0.229   4.075  14.264 -3.8747 -2.7748 -0.1929
12119TIP3    H257773   0.358   4.016  14.211 -2.5469  2.0305 -2.8946
12120TIP3   OH257774   3.904   5.599   6.613  0.4669  0.3047  0.0185
12120TIP3    H157775   3.967   5.649   6.562 -1.2550  2.0570 -0.5046
12120TIP3    H257776   3.949   5.579   6.695  1.4958  2.0152 -0.1003
12121TIP3   OH257777   5.201   3.134  12.555  0.1632  0.2380 -0.2997
12121TIP3    H157778   5.241   3.105  12.473 -1.1430 -1.0891 -0.5159
12121TIP3    H257779   5.112   3.100  12.551 -0.5873  1.9604  0.7528
12122TIP3   OH257780   3.672   6.345  12.378 -0.4154  0.2786 -0.5054
12122TIP3    H157781   3.663   6.345  12.283 -0.9430  0.3153 -0.4573
12122TIP3    H257782   3.582   6.345  12.411 -0.2511 -0.8125 -0.0031
12123TIP3   OH257783   2.742   3.061  13.514  0.3216 -0.4372 -0.1532
12123TIP3    H157784   2.679   2.994  13.490 -1.2650  1.3545 -1.2476
12123TIP3    H257785   2.770   3.037  13.603 -3.2073 -0.4351  1.1105
12124TIP3   OH257786   0.621   0.577   4.336 -0.3564  0.5390  0.0775
12124TIP3    H157787   0.607   0.513   4.267 -0.3522  0.3197  0.2792
12124TIP3    H257788   0.648   0.526   4.412  0.8317  0.8821 -0.0910
12125TIP3   OH257789   6.725   2.929   5.535  0.5947  0.0978 -0.1862
12125TIP3    H157790   6.690   2.942   5.447 -1.0372  2.8484  0.7423
12125TIP3    H257791   6.727   2.834   5.545 -4.0112 -0.4040 -1.4819
12126TIP3   OH257792   0.234   5.431   0.042 -0.3501 -0.4997 -0.4939
12126TIP3    H157793   0.189   5.347   0.032  1.7807 -1.6121 -1.5468
12126TIP3    H257794   0.272   5.427   0.130 -1.6726  0.1314  0.1194
12127TIP3   OH257795   5.426   2.663   2.097  0.3226  0.5723  0.3633
12127TIP3    H157796   5.408   2.596   2.162 -2.2711  0.7822 -0.0444
12127TIP3    H257797   5.425   2.745   2.147  0.9118  0.5247  0.4561
12128TIP3   OH257798   0.344   4.347  11.713 -0.3042  0.0488 -0.2736
12128TIP3    H157799   0.416   4.373  11.656  0.5818  1.2141  1.3185
12128TIP3    H257800   0.266   4.352  11.657  0.6167  0.4160 -1.5618
12129TIP3   OH257801   5.408   5.118   4.231  0.6766 -0.3351  0.2867
12129TIP3    H157802   5.448   5.035   4.206 -0.7977 -0.8704 -0.4764
12129TIP3    H257803   5.314   5.102   4.221  0.2516  0.8412  2.0039
12130TIP3   OH257804   1.373   4.445  14.763 -0.3240  0.0043  0.6120
12130TIP3    H157805   1.373   4.395  14.681 -1.6371  0.5816  0.2222
12130TIP3    H257806   1.327   4.527  14.741  1.4613  1.2542  1.3187
12131TIP3   OH257807   2.675   0.082  15.145 -0.7148 -0.1760 -0.2047
12131TIP3    H157808   2.724   0.156  15.110  0.4664 -0.5703  0.5547
12131TIP3    H257809   2.703   0.007  15.091 -0.2858 -0.4446  0.3816
12132TIP3   OH257810   1.783   5.935  11.685  0.0347 -0.9899  0.6742
12132TIP3    H157811   1.836   5.864  11.647  0.4090 -0.5798  0.4236
12132TIP3    H257812   1.819   6.015  11.647  0.1315 -0.6011  1.5638
12133TIP3   OH257813   3.009   0.185  13.433  0.1972  0.5874  0.3480
12133TIP3    H157814   3.027   0.274  13.403  1.3703  0.1430 -0.3709
12133TIP3    H257815   3.067   0.130  13.380 -0.5776 -0.6180  0.6986
12134TIP3   OH257816   6.751   6.674   0.432 -0.2313  0.2671  0.0995
12134TIP3    H157817   6.716   6.636   0.351  0.7681  0.7303 -0.5657
12134TIP3    H257818   6.674   6.709   0.477 -0.8378 -0.2758 -0.5025
12135TIP3   OH257819   2.904   5.632   0.394 -0.2990 -0.0356  0.2364
12135TIP3    H157820   2.828   5.689   0.411 -0.8069 -0.1599 -1.4387
12135TIP3    H257821   2.927   5.650   0.303  1.3950 -0.3793  0.5655
12136TIP3   OH257822   4.982   4.051  15.119  0.4234  0.4681 -0.5105
12136TIP3    H157823   4.891   4.031  15.141  0.8540 -0.3988  0.5676
12136TIP3    H257824   4.990   4.145  15.135  0.1929  0.2237  1.2400
12137TIP3   OH257825   0.394   1.389  13.861  0.4141 -0.2005 -0.1939
12137TIP3    H157826   0.307   1.406  13.825  1.0670 -0.7223 -2.1916
12137TIP3    H257827   0.387   1.301  13.899  0.4947 -1.1128 -2.1236
12138TIP3   OH257828   4.925   1.259  13.104  0.5301 -0.3410 -0.5704
12138TIP3    H157829   4.857   1.280  13.040  1.2045 -2.1185 -1.9302
12138TIP3    H257830   4.884   1.194  13.162  0.2706  0.4856  0.2043
12139TIP3   OH257831   5.091   2.074  15.680  0.3678 -0.1355  0.2263
12139TIP3    H157832   5.175   2.040  15.714  0.2762 -0.1642  0.4256
12139TIP3    H257833   5.025   2.016  15.719  0.2442 -0.0176  0.1899
12140TIP3   OH257834   0.698   2.621   3.118  0.1826  0.0062  0.0254
12140TIP3    H157835   0.726   2.677   3.045  0.3132 -0.5328 -0.3423
12140TIP3    H257836   0.647   2.552   3.077  0.1041 -0.2028  0.4682
12141TIP3   OH257837   0.510   2.160  12.136 -0.2358  0.2787  0.7334
12141TIP3    H157838   0.602   2.158  12.162  0.7247 -3.3465 -2.1057
12141TIP3    H257839   0.491   2.252  12.119  3.2380  1.0065  0.2020
12142TIP3   OH257840   0.036   3.986   6.246 -0.1882 -0.3515 -0.5790
12142TIP3    H157841   0.102   3.965   6.180  1.7598 -0.1521  1.2205
12142TIP3    H257842   0.017   3.902   6.289  2.7774  0.2280  2.2620
12143TIP3   OH257843   5.318   1.522  12.439  0.2664  0.5150  0.0928
12143TIP3    H157844   5.352   1.606  12.406 -1.3119  1.0238 -0.3639
12143TIP3    H257845   5.289   1.476  12.360 -0.2229  0.1830  0.4617
12144TIP3   OH257846   4.009   1.964  13.003  0.1558  0.4414 -0.2988
12144TIP3    H157847   3.969   1.877  13.003 -1.5943  1.2088  0.4982
12144TIP3    H257848   3.955   2.016  12.944  1.1460  1.0191 -0.7166
12145TIP3   OH257849   3.330   5.253  13.380  0.6777  0.2204 -0.5247
12145TIP3    H157850   3.244   5.263  13.419  0.6971 -4.0850  1.1342
12145TIP3    H257851   3.391   5.263  13.453  1.0335 -2.7357 -0.2628
12146TIP3   OH257852   6.323   3.324   0.065 -0.2078 -0.0721  0.2082
12146TIP3    H157853   6.317   3.351  -0.027  0.5539  2.2487  0.7662
12146TIP3    H257854   6.241   3.353   0.105 -0.2346 -0.4054  0.3941
12147TIP3   OH257855   1.139   6.601   6.799 -0.8550  0.3381  0.0737
12147TIP3    H157856   1.227   6.637   6.784  0.2763 -1.8822  0.8527
12147TIP3    H257857   1.089   6.628   6.723  0.8708  0.5985 -1.0301
12148TIP3   OH257858   2.926   5.959  15.628 -0.4604 -0.0979  0.1386
12148TIP3    H157859   2.896   5.896  15.563  0.6743 -1.7238  1.1237
12148TIP3    H257860   2.881   5.934  15.709  0.5651 -0.1414  0.7171
12149TIP3   OH257861   4.806   5.672  11.924 -0.6984 -0.0434  0.2139
12149TIP3    H157862   4.847   5.757  11.912 -0.9864 -0.0572 -1.0701
12149TIP3    H257863   4.731   5.673  11.865  1.0872 -2.3100 -2.3393
12150TIP3   OH257864   3.530   5.151  15.434 -0.0452 -0.1011 -0.1746
12150TIP3    H157865   3.558   5.208  15.505  2.2177  0.9699 -1.8154
12150TIP3    H257866   3.497   5.072  15.478 -1.5030  1.6572  2.0781
12151TIP3   OH257867   6.390   1.002  12.711 -0.0335  0.2832 -0.2288
12151TIP3    H157868   6.473   0.997  12.758  0.5801  0.1956 -1.2938
12151TIP3    H257869   6.391   1.088  12.669 -0.9444  0.7023  0.5587
12152TIP3   OH257870   4.563   5.844  13.233 -0.2866  0.1346  0.2813
12152TIP3    H157871   4.587   5.913  13.171 -1.2574 -1.0876 -1.5931
12152TIP3    H257872   4.483   5.806  13.195 -0.4138 -1.2552  1.8442
12153TIP3   OH257873   5.861   1.617  16.602  0.0485  0.6018 -0.3425
12153TIP3    H157874   5.809   1.594  16.679  0.8712  0.8138  0.2856
12153TIP3    H257875   5.947   1.578  16.618  0.5475  1.5382 -0.6642
12154TIP3   OH257876   6.405   0.144  15.142 -1.2020 -0.3015 -0.3760
12154TIP3    H157877   6.498   0.162  15.123 -1.2786 -1.7989 -2.5196
12154TIP3    H257878   6.403   0.130  15.237  0.2302  2.4315  0.1857
12155TIP3   OH257879   4.626   1.867   3.534 -0.2439 -0.0055  0.9030
12155TIP3    H157880   4.675   1.948   3.547  1.4290 -0.9184  0.5361
12155TIP3    H257881   4.689   1.798   3.552 -1.3400 -1.2327  0.1770
12156TIP3   OH257882   3.258   3.885   0.168 -0.2653  0.1824 -0.4355
12156TIP3    H157883   3.293   3.853   0.085 -0.4218  0.2524 -0.5304
12156TIP3    H257884   3.201   3.958   0.143 -0.6164 -0.0417 -0.3024
12157TIP3   OH257885   3.919   3.042   1.611 -0.2076  0.3473 -0.0354
12157TIP3    H157886   4.004   2.999   1.601  0.2400  0.4995  2.5585
12157TIP3    H257887   3.938   3.135   1.599 -0.3732  0.2498 -1.2078
12158TIP3   OH257888   5.175   6.577  16.765 -0.7612  0.3068  0.4326
12158TIP3    H157889   5.129   6.571  16.848  0.7048  2.4486  1.4871
12158TIP3    H257890   5.262   6.540  16.783 -0.6180  0.2702 -0.2975
12159TIP3   OH257891   0.988   0.947  10.972 -0.5212  0.4636 -0.5918
12159TIP3    H157892   0.956   0.934  10.882  0.3995 -0.3935 -0.8002
12159TIP3    H257893   0.912   0.982  11.019 -0.5972  2.4436 -2.0561
12160TIP3   OH257894   3.814   5.698   1.583 -0.3054  0.0153 -0.7723
12160TIP3    H157895   3.749   5.629   1.584  0.7099 -1.0109 -1.9124
12160TIP3    H257896   3.776   5.769   1.635 -1.4901 -1.2752  0.1606
12161TIP3   OH257897   6.558   5.027  14.876  0.5276  0.1465 -0.5256
12161TIP3    H157898   6.525   5.111  14.909  0.2296  0.1303 -0.7744
12161TIP3    H257899   6.620   5.051  14.807 -0.4393  0.1543 -1.4174
12162TIP3   OH257900   4.927   4.330  14.187 -0.3089 -0.1518 -0.1331
12162TIP3    H157901   4.986   4.256  14.201 -0.2045  0.1834  1.3894
12162TIP3    H257902   4.986   4.406  14.183 -0.6173  0.2654  2.0420
12163TIP3   OH257903   2.582   6.766   0.712  0.1335 -0.1264 -0.5403
12163TIP3    H157904   2.525   6.825   0.761  1.3917  1.6311 -1.0797
12163TIP3    H257905   2.592   6.689   0.769  0.0206  1.0167  1.1091
12164TIP3   OH257906   4.883   3.374  15.655 -0.2136 -0.5155  0.3849
12164TIP3    H157907   4.979   3.369  15.657 -0.2212 -0.5633  0.8572
12164TIP3    H257908   4.858   3.322  15.579  0.1926  0.5119 -0.4651
12165TIP3   OH257909   4.745   2.948  11.008 -0.1427  0.0065 -0.1508
12165TIP3    H157910   4.714   2.860  11.030  0.6785 -0.1030  0.6161
12165TIP3    H257911   4.828   2.933  10.963  0.1585  0.3938  0.2691
12166TIP3   OH257912   6.768   5.450  15.631  0.0854 -0.2754  0.2606
12166TIP3    H157913   6.833   5.516  15.655 -0.3405 -0.1820  1.1838
12166TIP3    H257914   6.728   5.484  15.550  0.5102  0.1376  0.2220
12167TIP3   OH257915   3.529   1.040   3.814 -0.4644  0.1794  0.0360
12167TIP3    H157916   3.508   1.103   3.746  1.9239 -0.3278 -1.2547
12167TIP3    H257917   3.572   0.968   3.768 -2.6865 -2.2681  1.5036
12168TIP3   OH257918   0.108   1.972  13.921  0.0374  0.3538  0.0541
12168TIP3    H157919   0.174   1.941  13.859  0.5818  0.0389  0.7672
12168TIP3    H257920   0.057   1.894  13.943  0.3023  0.3106  0.5346
12169TIP3   OH257921   1.419   6.418  11.502 -0.5723 -0.4631  0.4669
12169TIP3    H157922   1.460   6.459  11.578 -0.7789 -2.4037  1.6994
12169TIP3    H257923   1.427   6.483  11.433  0.7511  0.8867  1.8003
12170TIP3   OH257924   5.025   1.014  12.390  0.1492 -0.2398  0.0847
12170TIP3    H157925   5.063   1.023  12.302 -1.7014 -0.7256 -0.8038
12170TIP3    H257926   5.090   0.962  12.438 -0.2969 -3.0446 -2.0533
12171TIP3   OH257927   5.291   0.610  16.922  0.5432  0.1247  0.5501
12171TIP3    H157928   5.288   0.607  16.826 -1.4040 -0.5784  0.5896
12171TIP3    H257929   5.266   0.522  16.949  0.1801  0.5690  1.7061
12172TIP3   OH257930   4.679   5.194  17.229  0.3975 -0.1552  0.3205
12172TIP3    H157931   4.772   5.176  17.220 -0.0638 -3.4497  0.9406
12172TIP3    H257932   4.645   5.195  17.139  0.5772 -2.1470  0.1972
12173TIP3   OH257933   1.787   2.582   0.730 -0.4302  0.2207  0.2430
12173TIP3    H157934   1.826   2.660   0.769 -0.2493  0.4335 -0.3420
12173TIP3    H257935   1.736   2.616   0.656 -1.6907 -0.0562  0.9545
12174TIP3   OH257936   0.661   5.767  17.004  0.0592  0.0962 -0.2499
12174TIP3    H157937   0.594   5.704  16.979  0.3579  0.3662 -1.8226
12174TIP3    H257938   0.633   5.849  16.965  0.6612  0.5115  0.1636
12175TIP3   OH257939   5.227   3.522  12.712  0.1128  0.4579 -0.4214
12175TIP3    H157940   5.221   3.428  12.730 -1.1666  0.3037 -1.5267
12175TIP3    H257941   5.298   3.529  12.648 -0.3136  0.1429 -0.9372
12176TIP3   OH257942   2.683   4.141   4.173  0.0065 -0.7338 -0.1142
12176TIP3    H157943   2.762   4.192   4.159 -0.1012 -0.3330  0.6930
12176TIP3    H257944   2.706   4.080   4.244  0.1001 -1.7372 -0.9854
12177TIP3   OH257945   1.961   3.527   2.982  0.3346  0.2581 -0.3576
12177TIP3    H157946   1.983   3.511   3.074  0.6399  0.8632 -0.3232
12177TIP3    H257947   1.883   3.582   2.985 -0.2400 -0.5283 -0.4745
12178TIP3   OH257948   6.342   0.308  16.868  0.6666 -0.1067  0.5839
12178TIP3    H157949   6.260   0.330  16.912  0.0876 -0.3981 -0.3212
12178TIP3    H257950   6.388   0.250  16.930 -0.5520 -1.2859  0.4436
12179TIP3   OH257951   3.867   1.712   1.015 -0.1295 -0.1569 -0.0429
12179TIP3    H157952   3.952   1.683   1.048 -0.3573 -0.5318  0.2116
12179TIP3    H257953   3.861   1.673   0.928 -0.3658 -0.7435  0.2357
12180TIP3   OH257954   4.698   0.730  15.716  0.3134 -0.4067 -0.2515
12180TIP3    H157955   4.704   0.668  15.643  2.3135 -0.0741 -0.4125
12180TIP3    H257956   4.679   0.676  15.792 -0.9995 -0.8471 -0.8508
12181TIP3   OH257957   2.159   2.433   5.329  0.4100 -0.1157  0.1888
12181TIP3    H157958   2.204   2.356   5.295 -3.3330 -3.1086  1.3696
12181TIP3    H257959   2.180   2.435   5.422 -0.7179 -0.7091  0.4707
12182TIP3   OH257960   6.249   4.243  10.489 -0.2601  0.2592 -0.1468
12182TIP3    H157961   6.344   4.230  10.497 -0.0419  0.5332 -1.8962
12182TIP3    H257962   6.235   4.334  10.514 -0.1255  0.1114  0.4867
12183TIP3   OH257963   4.481   4.926  10.916 -0.2328 -0.3466  0.6335
12183TIP3    H157964   4.445   4.839  10.933 -1.5067  0.2724  1.2387
12183TIP3    H257965   4.444   4.951  10.831 -1.1932  0.2426  1.2021
12184TIP3   OH257966   5.747   1.075  16.764 -0.5206 -0.2191 -0.0965
12184TIP3    H157967   5.773   0.983  16.756  0.8198  0.0488  0.8349
12184TIP3    H257968   5.710   1.098  16.679 -0.0646 -1.3699 -0.6180
12185TIP3   OH257969   0.579   4.487   3.766  0.3584  0.7132  0.3543
12185TIP3    H157970   0.566   4.582   3.776  0.8753  0.9402 -0.9866
12185TIP3    H257971   0.591   4.474   3.672 -0.3943 -0.7821  0.4310
12186TIP3   OH257972   1.643   6.320  14.634 -0.3290  0.4612  0.5152
12186TIP3    H157973   1.681   6.280  14.555  0.8473  0.7508  0.9186
12186TIP3    H257974   1.610   6.246  14.685 -2.1115  0.3257 -0.7122
12187TIP3   OH257975   0.131   3.129   4.121 -0.2038 -0.6456 -0.0076
12187TIP3    H157976   0.164   3.040   4.135  2.1950  0.0030 -1.0099
12187TIP3    H257977   0.118   3.135   4.027  1.6473  0.6243 -0.2460
12188TIP3   OH257978   2.545   5.737   3.281  0.2371  0.1673  0.6913
12188TIP3    H157979   2.627   5.714   3.325  1.2135 -0.1249 -1.1341
12188TIP3    H257980   2.501   5.797   3.341  1.1985 -0.6344  2.2672
12189TIP3   OH257981   3.820   2.640   2.311 -0.4830  0.0236  0.0029
12189TIP3    H157982   3.735   2.681   2.297 -0.4931 -0.4055 -1.2808
12189TIP3    H257983   3.882   2.699   2.270 -0.4506 -0.9637 -1.4263
12190TIP3   OH257984   0.922   0.596  16.875 -0.2873  0.0077 -0.7640
12190TIP3    H157985   0.871   0.569  16.951 -0.0765 -0.1622 -0.6832
12190TIP3    H257986   0.959   0.681  16.900  0.1431 -0.2505 -0.5041
12191TIP3   OH257987   4.397   6.128   3.497  0.3421  0.8097 -0.4425
12191TIP3    H157988   4.349   6.206   3.473  0.7538  1.4165  0.6275
12191TIP3    H257989   4.352   6.094   3.574  0.8574  0.6701 -0.1925
12192TIP3   OH257990   6.188   3.805   5.643 -0.8050  0.4306  0.0306
12192TIP3    H157991   6.144   3.723   5.664 -0.4577  0.0682 -0.6126
12192TIP3    H257992   6.234   3.787   5.560  1.0037  0.5888  0.9369
12193TIP3   OH257993   5.950   3.030   5.679  0.1821 -0.4270 -0.1668
12193TIP3    H157994   5.864   3.072   5.667  0.8522  1.4423  1.1671
12193TIP3    H257995   5.982   3.018   5.589 -0.6472  0.6434 -0.6358
12194TIP3   OH257996   6.349   3.000   1.788 -0.0565 -0.3583  0.2721
12194TIP3    H157997   6.426   2.943   1.797 -0.9738 -2.0654 -1.7897
12194TIP3    H257998   6.384   3.082   1.753  1.2540  0.3168  2.9557
12195TIP3   OH257999   2.864   4.303  11.933  0.3585  0.3811 -0.1509
12195TIP3    H158000   2.956   4.278  11.948  0.2677  0.0637 -0.1238
12195TIP3    H258001   2.868   4.397  11.913  0.7712  0.2314 -0.8273
12196TIP3   OH258002   1.292   5.953   5.602 -0.5825 -0.3565 -0.2235
12196TIP3    H158003   1.306   6.048   5.601  0.4638 -0.5018 -1.4755
12196TIP3    H258004   1.359   5.920   5.663  0.8160 -0.4940 -1.7517
12197TIP3   OH258005   2.636   1.347   5.555 -0.7634  0.3186 -0.7210
12197TIP3    H158006   2.682   1.393   5.625 -2.2005  1.0317 -0.2063
12197TIP3    H258007   2.686   1.368   5.476  0.0452  0.6941 -0.1201
12198TIP3   OH258008   6.477   0.222   5.048  0.9690  0.3924  0.9659
12198TIP3    H158009   6.505   0.306   5.011 -0.6074  0.5003 -0.0572
12198TIP3    H258010   6.386   0.213   5.021  0.2980 -0.4163  3.2864
12199TIP3   OH258011   2.476   2.607  15.456 -0.0972 -0.1226 -0.1821
12199TIP3    H158012   2.543   2.614  15.524  1.1346 -2.5243 -1.0397
12199TIP3    H258013   2.409   2.551  15.495 -0.4478  0.2679 -0.2115
12200TIP3   OH258014   1.514   0.557   0.088 -0.6698 -0.0549  0.0900
12200TIP3    H158015   1.578   0.507   0.139 -0.7578 -0.6615 -0.3820
12200TIP3    H258016   1.526   0.648   0.117 -0.3811 -0.3228  0.8227
12201TIP3   OH258017   1.553   3.140   3.841 -0.2672  0.0203 -0.3738
12201TIP3    H158018   1.572   3.088   3.763 -1.6692 -1.1653  0.0171
12201TIP3    H258019   1.638   3.154   3.882  0.5057  0.7136 -2.1142
12202TIP3   OH258020   5.996   5.678  17.131 -0.0803 -0.2950  0.7188
12202TIP3    H158021   6.057   5.604  17.123 -0.6981 -1.1258  2.8736
12202TIP3    H258022   5.930   5.662  17.064  1.1438 -0.2905 -0.5260
12203TIP3   OH258023   5.592   4.238  12.650 -0.3360 -0.1609 -0.7705
12203TIP3    H158024   5.659   4.304  12.671  1.4681 -2.5667  1.8804
12203TIP3    H258025   5.610   4.214  12.559  1.2513  0.5820 -0.6985
12204TIP3   OH258026   3.077   4.417  12.068  0.5348 -0.1408 -0.4453
12204TIP3    H158027   3.101   4.466  11.989  1.3140 -0.9617 -0.7214
12204TIP3    H258028   3.057   4.485  12.133  1.7560  0.5549 -0.7764
12205TIP3   OH258029   5.436   3.615   6.036  0.2518  0.1081 -0.1518
12205TIP3    H158030   5.359   3.667   6.012  0.1429  0.2238  0.4237
12205TIP3    H258031   5.452   3.638   6.127 -0.0221 -1.1504  0.2311
12206TIP3   OH258032   5.479   5.499   1.613  0.2727  0.1879  0.3130
12206TIP3    H158033   5.572   5.516   1.632  0.6384  0.1643 -1.3007
12206TIP3    H258034   5.459   5.418   1.659  0.5714  1.0301  2.0263
12207TIP3   OH258035   5.178   6.453  15.006  0.1000 -0.6348 -0.1180
12207TIP3    H158036   5.219   6.406  15.079 -0.3050 -0.8515 -0.0266
12207TIP3    H258037   5.244   6.449  14.936 -0.2393 -2.0871 -0.3932
12208TIP3   OH258038   2.840   0.307   4.144 -0.1820 -0.8223 -0.1532
12208TIP3    H158039   2.821   0.225   4.097 -1.3603 -0.8496  0.3363
12208TIP3    H258040   2.931   0.297   4.173  0.3587 -1.0915 -1.8010
12209TIP3   OH258041   2.757   2.866  17.149  0.2631 -0.1593  0.1047
12209TIP3    H158042   2.852   2.879  17.152  0.1068  1.4280 -0.6116
12209TIP3    H258043   2.721   2.947  17.184 -0.8331 -0.7067  0.2798
12210TIP3   OH258044   1.541   1.591   0.027 -0.4680  0.0813 -0.7109
12210TIP3    H158045   1.500   1.504   0.027 -1.2291  0.4221  0.6285
12210TIP3    H258046   1.509   1.633  -0.053 -1.5759 -0.1948 -0.4204
12211TIP3   OH258047   6.664   3.303  15.690  0.4471 -0.4252 -0.0616
12211TIP3    H158048   6.678   3.214  15.722 -0.4707 -0.9372 -1.0333
12211TIP3    H258049   6.732   3.317  15.624  0.5534 -0.4218  0.0489
12212TIP3   OH258050   5.046   5.780  13.308  0.0084 -0.4309  0.2240
12212TIP3    H158051   5.093   5.702  13.339  2.9442  0.7272 -0.9467
12212TIP3    H258052   4.970   5.786  13.365  0.9630 -2.8195  1.9166
12213TIP3   OH258053   1.076   0.799  15.441  0.6057 -0.0047  0.1467
12213TIP3    H158054   1.110   0.795  15.530 -0.8262 -0.4287  0.7018
12213TIP3    H258055   1.012   0.871  15.443  0.4177 -0.1465 -0.4825
12214TIP3   OH258056   3.631   5.740   2.720 -0.3738 -0.0550 -0.1101
12214TIP3    H158057   3.571   5.698   2.781  0.5010  0.8252  1.4128
12214TIP3    H258058   3.611   5.833   2.725  0.6884  0.1877 -0.0444
12215TIP3   OH258059   2.707   6.686  12.499  0.0301  0.1855 -0.7403
12215TIP3    H158060   2.714   6.774  12.461  1.6382  0.5598  0.3384
12215TIP3    H258061   2.767   6.687  12.574  2.7240 -2.8492 -2.6081
12216TIP3   OH258062   0.907   5.404   2.199 -0.0961 -0.2079  0.3399
12216TIP3    H158063   0.846   5.394   2.272 -1.8555 -1.5549 -1.2039
12216TIP3    H258064   0.950   5.319   2.191 -0.2280 -0.2144 -0.4131
12217TIP3   OH258065   4.925   1.578  15.791  0.4055 -0.5585  0.2738
12217TIP3    H158066   4.974   1.638  15.735 -0.0551 -0.2930  0.1485
12217TIP3    H258067   4.936   1.613  15.880  1.1776 -1.0088  0.3582
12218TIP3   OH258068   2.728   0.760  13.362  0.0823  0.0491  0.1504
12218TIP3    H158069   2.759   0.850  13.369 -1.2907  0.5869 -0.3435
12218TIP3    H258070   2.804   0.706  13.385  1.3334  1.2914 -0.9110
12219TIP3   OH258071   3.730   1.898   4.456 -0.7773 -0.1467  0.2521
12219TIP3    H158072   3.691   1.982   4.430  0.9283  0.6278  0.0913
12219TIP3    H258073   3.732   1.847   4.375  0.4137  0.5913 -0.2082
12220TIP3   OH258074   0.971   5.960  11.557 -0.2753 -0.1468 -0.1663
12220TIP3    H158075   0.986   5.903  11.632 -0.7278  0.7532  0.6265
12220TIP3    H258076   0.913   6.029  11.590 -0.8291  0.0315 -1.4549
12221TIP3   OH258077   3.116   6.502  11.639 -0.0892  0.6013 -0.1378
12221TIP3    H158078   3.072   6.418  11.650 -1.6719  1.4827  0.8433
12221TIP3    H258079   3.208   6.481  11.625 -0.7164 -1.3410 -1.7347
12222TIP3   OH258080   2.186   4.231  17.217  0.1181 -0.0864 -0.5900
12222TIP3    H158081   2.217   4.321  17.226  0.0597  0.0294 -1.4618
12222TIP3    H258082   2.111   4.237  17.158  1.8323 -1.0144 -3.0364
12223TIP3   OH258083   5.568   0.858  12.631  0.2134 -0.0177  0.2235
12223TIP3    H158084   5.492   0.851  12.689 -0.1856  0.7980 -0.1899
12223TIP3    H258085   5.586   0.952  12.626  0.9428 -0.1680 -0.0864
12224TIP3   OH258086   4.127   5.940  13.292 -0.2527  0.0538 -0.4159
12224TIP3    H158087   4.068   5.896  13.354  0.0088  2.3304  1.5868
12224TIP3    H258088   4.080   5.939  13.209 -1.4638 -1.4439  0.2378
12225TIP3   OH258089   4.830   2.677   3.502  0.0392  0.2401 -0.2600
12225TIP3    H158090   4.838   2.712   3.413  1.9897 -2.1122 -1.1254
12225TIP3    H258091   4.889   2.732   3.554  1.2079 -0.1907 -1.0786
12226TIP3   OH258092   6.701   2.567  15.430  0.0937 -0.1425  0.1416
12226TIP3    H158093   6.627   2.507  15.422 -0.5173  0.1304  2.8973
12226TIP3    H258094   6.740   2.546  15.515  0.6832  2.4583  0.5943
12227TIP3   OH258095   5.495   0.009  15.420  0.0816  0.1563  0.5249
12227TIP3    H158096   5.433   0.068  15.464 -1.5981 -0.8261 -0.4155
12227TIP3    H258097   5.549  -0.027  15.490 -2.5656 -1.4524  1.9019
12228TIP3   OH258098   3.593   1.939  16.227  0.2101  0.8581 -0.4238
12228TIP3    H158099   3.656   1.997  16.269 -0.5788  1.7608 -0.4488
12228TIP3    H258100   3.638   1.854  16.222  0.8145  1.0708  0.9939
12229TIP3   OH258101   3.734   1.074  16.786  0.4172 -0.0196 -0.2425
12229TIP3    H158102   3.703   0.995  16.743  1.2318 -0.0857 -0.7319
12229TIP3    H258103   3.805   1.044  16.844  0.8031  0.3589 -0.5094
12230TIP3   OH258104   5.904   3.086  10.862 -0.1162  0.0649  0.3121
12230TIP3    H158105   5.913   3.002  10.817  2.5606  1.4824 -2.1615
12230TIP3    H258106   5.987   3.131  10.844 -0.7292  2.5644  3.0373
12231TIP3   OH258107   2.758   3.897  16.381 -0.5906  0.1164 -0.0638
12231TIP3    H158108   2.683   3.941  16.420 -0.9740 -1.0067  0.5064
12231TIP3    H258109   2.728   3.808  16.363  0.1735  0.0558 -1.1618
12232TIP3   OH258110   4.182   6.601   1.625 -0.2892  0.5358 -0.7781
12232TIP3    H158111   4.113   6.552   1.670  0.8475  1.6855  2.6003
12232TIP3    H258112   4.210   6.544   1.554 -0.4032 -2.9109  1.6638
12233TIP3   OH258113   4.511   5.716  13.707  0.0486 -0.0460 -0.1779
12233TIP3    H158114   4.584   5.663  13.675  1.9521  1.5302  1.2935
12233TIP3    H258115   4.500   5.783  13.639 -0.9728 -1.0550 -1.0417
12234TIP3   OH258116   5.304   1.197   5.658  0.2826 -0.4332 -0.5381
12234TIP3    H158117   5.280   1.105   5.665  3.0792 -1.3286 -1.1605
12234TIP3    H258118   5.315   1.211   5.564  1.1080  0.1535 -0.3649
12235TIP3   OH258119   1.205   2.639  11.521  0.2194  0.1115 -0.0519
12235TIP3    H158120   1.191   2.550  11.551 -1.6108 -0.0491 -1.2468
12235TIP3    H258121   1.244   2.684  11.597  0.8420 -1.5877  0.6755
12236TIP3   OH258122   4.958   4.526  16.868 -0.6431 -0.4027 -0.3766
12236TIP3    H158123   4.982   4.445  16.823 -1.2991 -0.3426 -0.8648
12236TIP3    H258124   4.913   4.497  16.948 -0.1211 -0.5172 -0.1244
12237TIP3   OH258125   1.923   1.344  14.173 -0.0261  0.0805  0.1783
12237TIP3    H158126   1.995   1.344  14.236  0.9347 -0.6476 -0.8657
12237TIP3    H258127   1.916   1.252  14.145 -1.5510  0.0930  0.4566
12238TIP3   OH258128   3.360   1.804  16.760 -0.2138  0.2035  0.6739
12238TIP3    H158129   3.382   1.766  16.845  1.4165 -1.4529 -0.4147
12238TIP3    H258130   3.276   1.765  16.737 -0.2973  0.0756  1.1991
12239TIP3   OH258131   0.922   0.381  14.580  0.5119 -0.4515 -0.7280
12239TIP3    H158132   0.935   0.287  14.565 -0.3832 -0.7665  0.3780
12239TIP3    H258133   0.944   0.394  14.672 -0.6593  0.1762 -0.5261
12240TIP3   OH258134   2.762   1.826   6.558 -0.1418 -0.5503  0.1514
12240TIP3    H158135   2.735   1.910   6.522  0.5287 -0.2579  0.3161
12240TIP3    H258136   2.839   1.846   6.611  0.3679 -1.3534 -0.2710
12241TIP3   OH258137   0.843   3.266  10.972 -0.0702 -0.0188 -0.2934
12241TIP3    H158138   0.922   3.215  10.954  0.9987  1.5352 -0.1885
12241TIP3    H258139   0.786   3.251  10.896  1.0213  0.1475 -1.1647
12242TIP3   OH258140   6.632   4.812   2.006  0.0331  0.4001 -0.2558
12242TIP3    H158141   6.581   4.774   1.934  1.9228 -2.6442 -0.1392
12242TIP3    H258142   6.566   4.845   2.067 -1.7487 -0.9669 -1.3366
12243TIP3   OH258143   0.899   5.166   0.167 -0.1545 -0.3756 -0.1567
12243TIP3    H158144   0.896   5.206   0.080 -1.8141 -2.2158 -1.0320
12243TIP3    H258145   0.854   5.082   0.156 -1.4318 -0.1817  2.7569
12244TIP3   OH258146   5.528   1.682  15.229 -0.1580 -0.5950  0.9226
12244TIP3    H158147   5.605   1.627  15.237 -0.0834 -0.6293  0.0492
12244TIP3    H258148   5.467   1.649  15.295  1.2315  0.5869  2.8881
12245TIP3   OH258149   4.233   3.808  13.050 -0.2935 -0.5534  0.5130
12245TIP3    H158150   4.305   3.777  13.105  0.0223 -0.7922 -0.0230
12245TIP3    H258151   4.208   3.731  12.998 -0.2731 -0.2140 -0.0098
12246TIP3   OH258152   3.407   3.205   0.075 -0.3181 -0.2680 -0.3255
12246TIP3    H158153   3.431   3.136   0.135 -0.7311 -0.1412 -0.0106
12246TIP3    H258154   3.472   3.201   0.005  0.4766 -0.0696  0.3985
12247TIP3   OH258155   2.576   2.067  11.700  0.2676 -0.2247 -0.3744
12247TIP3    H158156   2.647   2.074  11.636  2.4951  3.5036  2.1332
12247TIP3    H258157   2.499   2.099  11.654  1.4500  0.9401 -1.6484
12248TIP3   OH258158   1.076   3.813   3.900 -0.4627  0.1512  0.1948
12248TIP3    H158159   1.160   3.839   3.863 -0.4822  0.8276  0.6179
12248TIP3    H258160   1.022   3.891   3.896 -0.5915  0.1363  1.2699
12249TIP3   OH258161   0.628   4.096   0.467  0.2502  0.1235  0.2773
12249TIP3    H158162   0.582   4.106   0.550  0.6917 -2.3659  0.9156
12249TIP3    H258163   0.665   4.008   0.471 -0.0486 -0.2482 -2.7315
12250TIP3   OH258164   1.795   1.138   5.049  0.7872  0.1672 -0.3835
12250TIP3    H158165   1.795   1.063   5.109  0.2410  0.8084  0.4543
12250TIP3    H258166   1.768   1.212   5.104  2.4662  1.2244 -0.8910
12251TIP3   OH258167   2.064   0.028  12.187  0.0939  0.5466 -0.1272
12251TIP3    H158168   2.036   0.029  12.096  0.3304  0.5459 -0.1995
12251TIP3    H258169   1.983   0.016  12.237 -0.1239  1.2390 -0.3007
12252TIP3   OH258170   1.113   5.749   1.093 -0.4938  0.1360 -0.5372
12252TIP3    H158171   1.184   5.739   1.156  2.2335  1.3069 -3.1578
12252TIP3    H258172   1.062   5.823   1.127 -1.2709 -1.4538  2.0002
12253TIP3   OH258173   5.990   5.015   5.843  0.1327 -0.5960  0.3094
12253TIP3    H158174   5.971   4.952   5.774 -1.2029  1.0479 -0.9001
12253TIP3    H258175   6.037   5.086   5.799  1.1099 -0.4461  1.5298
12254TIP3   OH258176   6.185   4.782   1.836  0.1522 -0.5610  1.1781
12254TIP3    H158177   6.238   4.857   1.864  1.0614 -0.5561 -0.4528
12254TIP3    H258178   6.106   4.821   1.797  1.8282 -0.1928 -2.2304
12255TIP3   OH258179   1.014   5.969   3.010 -0.3557 -0.1975 -0.1962
12255TIP3    H158180   0.951   5.959   2.939 -0.9563 -1.8184  0.5062
12255TIP3    H258181   0.991   6.052   3.051 -1.5218 -0.3677 -0.4627
12256TIP3   OH258182   3.436   1.975   1.721 -0.3594 -0.2513 -0.0273
12256TIP3    H158183   3.453   1.893   1.675 -0.3340 -0.8043  0.9265
12256TIP3    H258184   3.340   1.981   1.724 -0.3945  0.7817 -1.8183
12257TIP3   OH258185   6.085   5.102   0.874 -0.5118 -0.0093 -0.3598
12257TIP3    H158186   6.052   5.179   0.827 -0.0640  0.3823 -0.0376
12257TIP3    H258187   6.146   5.061   0.812  0.7172  0.9667  0.1560
12258TIP3   OH258188   3.267   0.011  12.590  0.2036  0.3030 -0.3628
12258TIP3    H158189   3.204  -0.039  12.538 -0.2659  0.8970 -0.3774
12258TIP3    H258190   3.220   0.029  12.672  0.5999  0.1795 -0.1061
12259TIP3   OH258191   3.192   2.587  15.239 -0.2608 -0.3906  0.0001
12259TIP3    H158192   3.155   2.663  15.194  0.2244  0.0285  0.2855
12259TIP3    H258193   3.136   2.514  15.213  0.3873 -0.2996 -1.7917
12260TIP3   OH258194   4.704   2.901   3.190  0.0098  0.6118  0.2192
12260TIP3    H158195   4.742   2.920   3.104 -1.4657  0.7567 -0.4275
12260TIP3    H258196   4.678   2.809   3.185 -1.0242  0.8974  0.1184
12261TIP3   OH258197   2.809   5.594  14.494 -0.2201  0.3798  0.4460
12261TIP3    H158198   2.820   5.522  14.431 -0.1660  0.8155 -0.0533
12261TIP3    H258199   2.716   5.592  14.515 -0.4065  0.7481 -0.2948
12262TIP3   OH258200   0.117   0.196   0.189 -0.2032 -0.1700 -0.1160
12262TIP3    H158201   0.198   0.178   0.142 -0.2403 -0.7388  0.0198
12262TIP3    H258202   0.061   0.121   0.167 -1.6556  1.4232 -2.2845
12263TIP3   OH258203   0.075   3.639   1.389 -0.1199  0.4405  0.3491
12263TIP3    H158204   0.170   3.637   1.396  0.0632  0.4057 -1.7393
12263TIP3    H258205   0.052   3.558   1.344 -0.7823  1.9716 -2.2405
12264TIP3   OH258206   4.770   6.583   4.533 -0.0308  0.1080  0.7499
12264TIP3    H158207   4.852   6.535   4.543  0.0828  0.6591  3.0056
12264TIP3    H258208   4.795   6.675   4.541 -0.8569  0.2786  1.4888
12265TIP3   OH258209   1.799   0.118  11.055  0.3506 -0.7665  0.1266
12265TIP3    H158210   1.877   0.114  11.000  0.8490 -0.1271  0.7775
12265TIP3    H258211   1.744   0.185  11.013  0.9724  0.1216  0.6966
12266TIP3   OH258212   4.571   2.511  12.507  0.1867 -0.5100  0.6606
12266TIP3    H158213   4.626   2.503  12.584  0.0052 -0.2147  0.8212
12266TIP3    H258214   4.482   2.522  12.541  0.4073  2.5533  0.5149
12267TIP3   OH258215   3.451   6.586   2.245 -0.3609 -0.2520 -0.5401
12267TIP3    H158216   3.469   6.538   2.326  0.6945 -0.1939 -0.7184
12267TIP3    H258217   3.530   6.639   2.231 -0.5897 -0.1508 -1.5209
12268TIP3   OH258218   5.549   6.177  15.865  0.4852  0.6381  0.4043
12268TIP3    H158219   5.615   6.231  15.908  0.3413  2.0335 -1.0409
12268TIP3    H258220   5.467   6.202  15.906  0.6041  0.3492  0.8270
12269TIP3   OH258221   2.911   5.480  11.776 -0.4320 -0.4855 -0.0770
12269TIP3    H158222   2.914   5.571  11.805 -0.7349 -0.5484  0.1673
12269TIP3    H258223   2.850   5.481  11.702  0.0544 -0.3864 -0.4819
12270TIP3   OH258224   6.249   6.670  10.731  0.5040 -0.1411  0.0705
12270TIP3    H158225   6.293   6.754  10.744 -0.7560  0.5489  0.0199
12270TIP3    H258226   6.246   6.658  10.636  0.3283 -0.0568  0.0664
12271TIP3   OH258227   6.566   5.286  16.297 -0.1001  0.2665  0.4384
12271TIP3    H158228   6.657   5.268  16.318 -0.3128  0.3550  1.4703
12271TIP3    H258229   6.567   5.309  16.204  0.8639 -0.1290  0.3441
12272TIP3   OH258230   5.015   3.083   5.254  0.0084  0.2330 -0.3333
12272TIP3    H158231   5.002   3.094   5.160  0.7876 -2.3955 -0.8288
12272TIP3    H258232   5.092   3.026   5.261 -1.3473 -1.4853  1.7876
12273TIP3   OH258233   2.680   4.277   5.838  0.3346  0.2845 -0.4210
12273TIP3    H158234   2.761   4.271   5.788 -0.2023  1.1804 -1.4224
12273TIP3    H258235   2.629   4.200   5.812  1.1828 -0.7711  0.8704
12274TIP3   OH258236   3.803   5.811   0.157 -0.1832  0.1044  0.1088
12274TIP3    H158237   3.718   5.853   0.165 -0.2485  0.1412 -0.6684
12274TIP3    H258238   3.800   5.738   0.218 -0.9866 -0.2301 -0.3192
12275TIP3   OH258239   3.377   2.820  15.578  0.1951 -0.3474 -0.0430
12275TIP3    H158240   3.285   2.794  15.583  0.1894 -0.3091  0.0614
12275TIP3    H258241   3.407   2.785  15.495 -0.8549  2.6361 -1.8453
12276TIP3   OH258242   5.347   1.316  11.743 -0.8920 -0.2418  0.3407
12276TIP3    H158243   5.303   1.241  11.784 -0.1161 -1.2323 -0.5626
12276TIP3    H258244   5.436   1.313  11.778  0.1860 -1.8941 -2.2602
12277TIP3   OH258245   0.017   6.080  14.787  0.4211  0.0582  0.2659
12277TIP3    H158246  -0.057   6.131  14.820  0.4081  0.0877  0.1915
12277TIP3    H258247  -0.006   6.059  14.697 -0.3334 -1.5190  0.7960
12278TIP3   OH258248   3.800   4.456  11.250 -0.6836 -0.5449  0.2627
12278TIP3    H158249   3.764   4.384  11.199  3.3744 -3.6779  1.3100
12278TIP3    H258250   3.890   4.430  11.269  1.2539  4.9773  0.5743
12279TIP3   OH258251   6.444   0.503   4.013 -0.4485  0.1937  0.5755
12279TIP3    H158252   6.400   0.503   3.928  0.5257  1.6969  0.0358
12279TIP3    H258253   6.531   0.466   3.995  0.0914  1.3463  0.7044
12280TIP3   OH258254   6.439   2.672  17.108  0.4327  0.1079  0.1613
12280TIP3    H158255   6.429   2.581  17.138 -0.1240  0.4712  1.1231
12280TIP3    H258256   6.493   2.665  17.030  0.1136 -1.0946  0.0175
12281TIP3   OH258257   0.819   6.428   5.082 -0.1714  0.6200  0.3035
12281TIP3    H158258   0.882   6.488   5.041 -0.0973  2.1519  2.5202
12281TIP3    H258259   0.854   6.341   5.064  0.5566  1.2516 -1.6564
12282TIP3   OH258260   1.942   4.914   2.105  0.2603 -0.2318  0.1432
12282TIP3    H158261   1.888   4.991   2.088  0.2290 -0.2044  0.3705
12282TIP3    H258262   2.029   4.949   2.124 -0.0007 -0.1864  1.3272
12283TIP3   OH258263   0.589   5.308  12.150  0.1785 -0.2729  0.1750
12283TIP3    H158264   0.532   5.367  12.102  0.3503  0.0461  0.3609
12283TIP3    H258265   0.556   5.220  12.130 -0.5191 -0.0782  0.4751
12284TIP3   OH258266   2.459   2.993  12.201 -0.3288  0.1638  0.3946
12284TIP3    H158267   2.509   3.018  12.279  3.3958 -0.0382 -1.6605
12284TIP3    H258268   2.370   2.981  12.232  0.2058  3.3885  3.9216
12285TIP3   OH258269   1.777   3.774  16.597 -0.1081  0.2560 -0.0504
12285TIP3    H158270   1.781   3.841  16.665 -1.6058  1.0608 -0.7065
12285TIP3    H258271   1.783   3.823  16.515 -2.0914 -0.2809 -0.5644
12286TIP3   OH258272   3.960   3.085  12.151  0.4341 -0.2967 -0.0666
12286TIP3    H158273   3.873   3.046  12.145 -0.2772  1.1780  0.2222
12286TIP3    H258274   4.017   3.022  12.108 -0.4263 -2.2966  1.5926
12287TIP3   OH258275   4.259   2.394  13.052 -0.3195 -0.2554 -0.4916
12287TIP3    H158276   4.286   2.476  13.012 -0.8399  0.1559 -0.0227
12287TIP3    H258277   4.236   2.337  12.979 -0.0396  0.0496 -0.8155
12288TIP3   OH258278   2.836   3.461  15.897 -0.1903  0.3743  0.3518
12288TIP3    H158279   2.927   3.487  15.881  0.2280  0.6828  2.8896
12288TIP3    H258280   2.785   3.515  15.837  1.1710  1.7451  0.3661
12289TIP3   OH258281   4.639   5.590   2.329  0.8630 -0.3275  0.0897
12289TIP3    H158282   4.728   5.559   2.313 -0.0121 -2.4036 -1.0379
12289TIP3    H258283   4.611   5.542   2.407  0.8111  0.5664  0.6383
12290TIP3   OH258284   0.604   2.625  12.605 -0.0036 -0.8038 -0.1790
12290TIP3    H158285   0.581   2.696  12.546  1.1826  0.0693  0.3550
12290TIP3    H258286   0.601   2.546  12.551  1.6332  0.0302 -1.6012
12291TIP3   OH258287   4.432   5.273  13.759  0.6899  1.1143 -0.6268
12291TIP3    H158288   4.399   5.360  13.780 -0.1595  0.8114 -0.6879
12291TIP3    H258289   4.391   5.215  13.823  0.9790  0.7085 -0.8028
12292TIP3   OH258290   1.702   3.930  11.445  0.7245 -1.1489  0.1660
12292TIP3    H158291   1.630   3.873  11.472 -1.6218  2.0997  1.3646
12292TIP3    H258292   1.705   3.921  11.349 -1.7639 -0.8989  0.0016
12293TIP3   OH258293   0.328   6.180   2.955  0.3452  0.0519  0.5136
12293TIP3    H158294   0.345   6.126   2.878  1.9984 -1.2842  1.7333
12293TIP3    H258295   0.360   6.267   2.932  3.0504 -0.8744  0.4420
12294TIP3   OH258296   3.531   0.752   3.759  0.3564 -0.0044 -0.2621
12294TIP3    H158297   3.615   0.784   3.725  0.1074  0.9814  0.0161
12294TIP3    H258298   3.555   0.690   3.828  0.8537  0.0035 -0.4236
12295TIP3   OH258299   2.136   3.224   5.455 -0.4854  0.6029  0.0033
12295TIP3    H158300   2.074   3.170   5.503 -1.9074  0.2007 -2.1666
12295TIP3    H258301   2.104   3.314   5.467  0.3130  0.7394  1.3587
12296TIP3   OH258302   3.702   4.189   6.661 -0.1072 -0.2245  0.4728
12296TIP3    H158303   3.635   4.140   6.612  0.8165 -1.6382  0.5673
12296TIP3    H258304   3.657   4.218   6.740 -1.4694  1.5840 -0.8554
12297TIP3   OH258305   1.523   3.876  15.405  0.0036  0.4177  0.1469
12297TIP3    H158306   1.430   3.871  15.382 -0.0241 -0.0301  0.3397
12297TIP3    H258307   1.523   3.886  15.500  0.1727 -1.2724  0.3516
12298TIP3   OH258308   4.101   5.869  12.587  0.1130 -0.0374 -0.2555
12298TIP3    H158309   4.045   5.928  12.536 -0.0926  0.2030  0.2424
12298TIP3    H258310   4.045   5.838  12.658 -0.2684 -2.0944 -1.3868
12299TIP3   OH258311   1.080   5.387   1.465  0.2489 -0.8508 -0.4579
12299TIP3    H158312   1.080   5.327   1.390 -0.6657 -2.5072  0.7967
12299TIP3    H258313   1.172   5.399   1.486  0.4785 -1.1058 -1.2649
12300TIP3   OH258314   2.587   3.147  12.000 -0.5890  0.3669 -0.2030
12300TIP3    H158315   2.552   3.101  12.076 -1.1910  1.8659  0.4824
12300TIP3    H258316   2.555   3.237  12.010  1.8001  1.3410 -0.6234
12301TIP3   OH258317   4.127   5.181  15.868  0.4331  0.6274  0.4410
12301TIP3    H158318   4.101   5.261  15.912 -1.4608  1.2222 -1.5562
12301TIP3    H258319   4.138   5.207  15.776  0.0995 -1.3261 -0.1942
12302TIP3   OH258320   4.905   6.049   3.347 -0.6242 -0.2065  0.2533
12302TIP3    H158321   4.925   6.142   3.358 -0.4110  0.0128 -1.5864
12302TIP3    H258322   4.867   6.023   3.430 -0.0552  1.3533  1.0583
12303TIP3   OH258323   0.968   5.845  13.760 -0.2012  0.2127 -0.8651
12303TIP3    H158324   0.879   5.880  13.766 -0.1489  0.5633 -1.8970
12303TIP3    H258325   1.024   5.923  13.753 -0.0123 -0.0275 -2.3737
12304TIP3   OH258326   5.164   4.166   0.236  0.2351 -0.2109 -0.5134
12304TIP3    H158327   5.237   4.217   0.200 -0.6101  1.0021 -0.5796
12304TIP3    H258328   5.205   4.088   0.273  1.5499  0.3838 -0.6530
12305TIP3   OH258329   2.682   1.401  12.526 -0.4103  0.1907 -0.0335
12305TIP3    H158330   2.683   1.496  12.527 -1.4615  0.2267 -1.0163
12305TIP3    H258331   2.753   1.376  12.586  0.3341  1.5709 -0.2938
12306TIP3   OH258332   5.459   5.170   0.907 -0.2224  0.2218  0.2210
12306TIP3    H158333   5.416   5.145   0.825  1.8397  0.2997 -0.9529
12306TIP3    H258334   5.489   5.088   0.945  4.0095  0.3493 -2.1931
12307TIP3   OH258335   3.756   0.452  15.600  0.5955  0.2154 -0.0358
12307TIP3    H158336   3.730   0.370  15.559 -2.2597 -0.7924  3.2921
12307TIP3    H258337   3.850   0.444  15.613  0.6155 -1.8825 -1.0841
12308TIP3   OH258338   1.949   0.716   3.851 -0.5637  0.0786  0.2093
12308TIP3    H158339   1.956   0.800   3.897  2.1344  0.2795 -0.4224
12308TIP3    H258340   2.014   0.660   3.894 -0.9132 -1.0514 -0.6914
12309TIP3   OH258341   6.561   3.599  12.418 -0.0263 -0.6492 -0.3867
12309TIP3    H158342   6.474   3.559  12.428  0.0187 -0.9642 -1.1831
12309TIP3    H258343   6.542   3.691  12.398 -0.1645 -0.5880  0.0229
12310TIP3   OH258344   2.205   4.043  15.206 -1.2234  0.0832  0.4802
12310TIP3    H158345   2.208   4.124  15.155 -3.5371  0.4585  0.8208
12310TIP3    H258346   2.196   3.974  15.141  0.5505  0.0798  0.1984
12311TIP3   OH258347   5.320   5.072  11.660  0.3264  0.1139 -0.1982
12311TIP3    H158348   5.404   5.032  11.685  0.6250  1.2218  0.6709
12311TIP3    H258349   5.309   5.143  11.722 -1.7542 -0.6105  0.3448
12312TIP3   OH258350   1.952   2.642  15.636  0.1319 -0.0572  0.6287
12312TIP3    H158351   1.936   2.642  15.731  0.4525 -0.7749  0.6940
12312TIP3    H258352   1.964   2.734  15.614 -0.6019  0.1812  1.1682
12313TIP3   OH258353   6.074   5.877  13.168  0.2650  0.0387  0.3497
12313TIP3    H158354   5.981   5.876  13.147 -0.2321  2.8554  1.8725
12313TIP3    H258355   6.117   5.839  13.092 -1.9500  1.2734 -1.6174
12314TIP3   OH258356   1.159   4.182   0.396 -0.3068 -0.0482  0.2381
12314TIP3    H158357   1.231   4.121   0.384  0.1239  0.6769 -1.0529
12314TIP3    H258358   1.080   4.128   0.388 -0.0233 -1.2402  3.7024
12315TIP3   OH258359   5.125   1.089   3.729  0.1100 -0.4688 -0.0177
12315TIP3    H158360   5.181   1.063   3.802 -0.9551 -2.6966  0.1057
12315TIP3    H258361   5.176   1.066   3.651  0.9178  1.1681 -0.0115
12316TIP3   OH258362   0.999   0.892   2.544 -0.7202 -0.4867 -0.2518
12316TIP3    H158363   1.061   0.953   2.504 -0.2451 -1.2782 -0.7700
12316TIP3    H258364   0.912   0.927   2.521 -0.4690  0.3282  0.0094
12317TIP3   OH258365   2.807   1.467  16.314 -0.3806  0.7372 -0.5459
12317TIP3    H158366   2.828   1.384  16.357 -1.8434 -0.4430 -1.9444
12317TIP3    H258367   2.714   1.480  16.331  0.0311  2.6296  0.4461
12318TIP3   OH258368   6.422   4.902   1.635  0.3512 -0.6066  1.8957
12318TIP3    H158369   6.378   4.986   1.647  0.9502 -0.1837  1.2337
12318TIP3    H258370   6.364   4.852   1.579 -0.0142 -0.6395  2.3008
12319TIP3   OH258371   0.853   5.154  14.627  0.9803 -0.0226  0.0129
12319TIP3    H158372   0.927   5.131  14.571  1.4291  0.0715  0.5581
12319TIP3    H258373   0.856   5.249  14.632  0.1603  0.0639 -0.8422
12320TIP3   OH258374   3.052   1.544   2.561 -0.1795 -0.4741 -0.6261
12320TIP3    H158375   3.104   1.467   2.538 -0.5136 -0.3470 -1.8787
12320TIP3    H258376   2.964   1.525   2.528 -1.0896 -0.8427  1.7881
12321TIP3   OH258377   2.318   3.411   4.914  0.1055 -0.0382  0.0567
12321TIP3    H158378   2.311   3.323   4.952  1.4863  0.1077  0.7093
12321TIP3    H258379   2.344   3.395   4.823 -0.9600 -0.3332 -0.2038
12322TIP3   OH258380   0.807   6.010   2.017 -0.6043 -0.9619 -0.2730
12322TIP3    H158381   0.723   5.988   2.059  0.4094 -1.2602  1.7165
12322TIP3    H258382   0.873   5.987   2.082  0.9186  1.9609 -0.6222
12323TIP3   OH258383   5.045   3.188   5.970 -0.3545  0.6018  0.1416
12323TIP3    H158384   5.101   3.110   5.969 -0.6966  0.2487  2.2909
12323TIP3    H258385   5.080   3.241   6.042 -2.0314  0.9394  0.7426
12324TIP3   OH258386   4.391   4.780   1.660 -0.5024  0.3393  0.0046
12324TIP3    H158387   4.392   4.698   1.711  2.8236  1.3701  1.9341
12324TIP3    H258388   4.394   4.751   1.569 -3.3438 -1.5855  0.3634
12325TIP3   OH258389   1.699   1.589  11.356  0.0695  0.3351  0.8117
12325TIP3    H158390   1.648   1.614  11.280 -0.0347 -1.0019  0.4044
12325TIP3    H258391   1.635   1.555  11.418  0.2907  0.1695  0.9535
12326TIP3   OH258392   6.128   3.264   5.970 -0.1999  0.3516  0.0871
12326TIP3    H158393   6.064   3.251   6.041 -0.3815 -0.0594 -0.1500
12326TIP3    H258394   6.172   3.346   5.992 -0.2701  0.2351  0.6652
12327TIP3   OH258395   5.106   0.701  16.594  0.2646 -0.0261 -0.2479
12327TIP3    H158396   5.149   0.626  16.554 -0.4828  0.5836 -2.3326
12327TIP3    H258397   5.043   0.731  16.528  0.0228  1.9784  0.8102
12328TIP3   OH258398   1.304   3.129   3.048  0.1478 -0.1245 -0.1546
12328TIP3    H158399   1.278   3.190   3.116 -0.0399  1.4960 -1.6136
12328TIP3    H258400   1.399   3.137   3.041  0.0739  0.3678 -0.6615
12329TIP3   OH258401   6.249   2.055  12.538  0.4597  0.2458  0.6384
12329TIP3    H158402   6.249   2.063  12.442  0.5345  1.6508  0.7366
12329TIP3    H258403   6.342   2.053  12.562  0.4538 -1.5231  0.6006
12330TIP3   OH258404   2.136   1.745  14.633  0.4023 -0.7010 -0.1162
12330TIP3    H158405   2.132   1.796  14.714 -0.6003 -0.1672 -0.4813
12330TIP3    H258406   2.044   1.727  14.612  0.6489 -0.8373 -1.1272
12331TIP3   OH258407   4.708   2.550   2.319  0.2068 -0.2091  0.0385
12331TIP3    H158408   4.772   2.579   2.383 -0.3439  1.0919  0.0445
12331TIP3    H258409   4.694   2.627   2.263 -1.1809 -0.5101 -0.0785
12332TIP3   OH258410   3.756   4.528   4.222  0.5161 -0.6449  0.7975
12332TIP3    H158411   3.819   4.457   4.210  0.7224 -0.4764  0.8774
12332TIP3    H258412   3.687   4.490   4.276 -0.3877 -1.3988 -0.8198
12333TIP3   OH258413   0.483   3.954   0.078 -0.0372  0.7986 -0.4825
12333TIP3    H158414   0.423   3.931   0.149 -1.8439 -0.4639 -2.2906
12333TIP3    H258415   0.553   4.003   0.121 -0.3598 -0.9778  2.3481
12334TIP3   OH258416   4.465   1.332  13.887  0.0136 -0.1483  0.3035
12334TIP3    H158417   4.379   1.290  13.885 -0.6618  1.2270 -0.4447
12334TIP3    H258418   4.515   1.287  13.818 -1.2266  1.2782 -1.6272
12335TIP3   OH258419   1.248   6.571  13.765  0.3537  0.0225 -0.1900
12335TIP3    H158420   1.158   6.600  13.753 -0.1860 -1.9338 -1.2566
12335TIP3    H258421   1.301   6.650  13.751 -1.1007  0.8637 -1.1932
12336TIP3   OH258422   2.398   6.650   1.049  0.4181  0.4376 -0.0693
12336TIP3    H158423   2.385   6.617   0.960 -1.3658  0.8083  0.0169
12336TIP3    H258424   2.420   6.743   1.037 -2.0756  1.0949 -0.1200
12337TIP3   OH258425   6.413   6.028  13.521  0.4232 -0.2002  0.8254
12337TIP3    H158426   6.333   6.019  13.470  1.0609 -0.8561 -0.1018
12337TIP3    H258427   6.483   6.007  13.459  1.4477  2.0646  1.1178
12338TIP3   OH258428   3.307   1.832   3.798  0.2207 -0.0747  0.0259
12338TIP3    H158429   3.366   1.759   3.778 -1.7864 -1.8493  0.2234
12338TIP3    H258430   3.263   1.850   3.715  0.7380  0.9687 -0.0284
12339TIP3   OH258431   4.262   2.845   3.140 -0.2111  0.2937  0.0278
12339TIP3    H158432   4.341   2.897   3.126  0.4781 -0.4398  0.9859
12339TIP3    H258433   4.197   2.882   3.080  0.3091  2.0842  0.5034
12340TIP3   OH258434   6.271   2.176   5.845  0.3712  0.2460  0.2987
12340TIP3    H158435   6.335   2.166   5.916  0.3215  0.3531  0.3576
12340TIP3    H258436   6.245   2.268   5.848 -1.5906 -0.3164  1.8177
12341TIP3   OH258437   0.674   5.507  14.088 -0.4258  0.7095 -0.0497
12341TIP3    H158438   0.634   5.581  14.135  2.7255  2.7713 -0.3519
12341TIP3    H258439   0.668   5.532  13.995 -0.9135 -0.3292 -0.3170
12342TIP3   OH258440   3.501   4.783  10.613 -0.1452 -0.5538  0.1287
12342TIP3    H158441   3.541   4.856  10.661  0.9527 -0.2576 -1.1728
12342TIP3    H258442   3.546   4.705  10.645 -1.3036 -0.6885  1.5058
12343TIP3   OH258443   4.539   6.073  13.095 -0.5984  0.2148  0.6952
12343TIP3    H158444   4.478   6.141  13.067  0.2427  0.6958 -0.0301
12343TIP3    H258445   4.592   6.054  13.017 -0.0473 -0.4356  1.2076
12344TIP3   OH258446   5.462   3.163   1.282 -0.5278  0.1129 -0.0121
12344TIP3    H158447   5.547   3.203   1.264 -0.0243 -0.7220  0.4153
12344TIP3    H258448   5.484   3.078   1.320 -1.5515  0.2605  0.9577
12345TIP3   OH258449   0.795   5.044   5.450 -0.8235  0.4441 -0.2680
12345TIP3    H158450   0.805   4.976   5.383 -0.4368  1.0657 -0.8562
12345TIP3    H258451   0.722   5.014   5.504  0.4408 -1.3280  0.5587
12346TIP3   OH258452   5.034   4.934   6.627  0.1428  0.0889 -0.8414
12346TIP3    H158453   5.029   4.853   6.678  2.4973  1.4340  1.7840
12346TIP3    H258454   5.104   4.918   6.564 -0.1795 -0.2848 -1.1106
12347TIP3   OH258455   1.285   0.888   3.412  0.1653  0.4194 -0.7433
12347TIP3    H158456   1.316   0.821   3.350  0.6089  0.1115 -0.1942
12347TIP3    H258457   1.246   0.839   3.484  2.5366  0.6211  0.7760
12348TIP3   OH258458   2.521   5.882  13.493 -0.0038  0.2546 -0.3530
12348TIP3    H158459   2.555   5.845  13.574 -1.8661 -2.0963 -0.5164
12348TIP3    H258460   2.506   5.805  13.437 -1.1455  1.5818 -1.9566
12349TIP3   OH258461   6.530   5.148  15.807 -0.0139  0.3679 -0.2385
12349TIP3    H158462   6.471   5.102  15.868  1.0547  1.0221  1.3548
12349TIP3    H258463   6.607   5.091  15.800  1.0607  1.5596  1.2761
12350TIP3   OH258464   0.519   1.560   5.954  0.1846 -0.3117  0.3176
12350TIP3    H158465   0.567   1.550   6.036 -0.3948  1.8754  0.9990
12350TIP3    H258466   0.463   1.636   5.968 -3.1207 -2.3419 -0.6358
12351TIP3   OH258467   2.608   5.974  13.190  0.2711 -0.5167  0.0115
12351TIP3    H158468   2.520   6.000  13.162 -1.4251 -3.8578  1.7401
12351TIP3    H258469   2.627   6.032  13.263 -1.3686 -0.9687  0.8425
12352TIP3   OH258470   0.985   1.463  15.381  0.0347  0.5928  0.0184
12352TIP3    H158471   0.905   1.412  15.374  0.1811  0.3777 -0.1205
12352TIP3    H258472   1.046   1.406  15.427  0.7919 -0.1085 -1.7514
12353TIP3   OH258473   5.405   5.818   3.973  0.3604 -0.2456  0.3424
12353TIP3    H158474   5.497   5.828   3.946  1.0398  0.1161  2.6091
12353TIP3    H258475   5.367   5.904   3.956  0.2556 -0.5513 -1.1176
12354TIP3   OH258476   4.193   2.855   6.104  0.1995 -0.4487  0.4535
12354TIP3    H158477   4.221   2.881   6.192 -1.5197  0.2281  0.8407
12354TIP3    H258478   4.275   2.846   6.055  1.3144 -2.2812  2.4625
12355TIP3   OH258479   3.374   2.046  13.221  0.2685  0.2776  0.1182
12355TIP3    H158480   3.390   1.956  13.250 -0.2199  0.2006  0.1627
12355TIP3    H258481   3.336   2.037  13.134  2.6501  0.5424 -1.0442
12356TIP3   OH258482   1.649   2.733   2.965 -0.6557  0.0105  0.0031
12356TIP3    H158483   1.671   2.643   2.986  0.1466  0.3950  0.8334
12356TIP3    H258484   1.600   2.727   2.883 -0.0352 -1.1147 -0.2975
12357TIP3   OH258485   5.631   0.698  12.402 -0.3944  0.4411 -0.2314
12357TIP3    H158486   5.705   0.743  12.361  0.4484 -1.7280 -1.2798
12357TIP3    H258487   5.619   0.743  12.485  0.7785  2.1432 -0.9104
12358TIP3   OH258488   5.847   4.099   6.645  0.0972  0.1552 -0.1139
12358TIP3    H158489   5.826   4.124   6.555 -1.6839  0.7735  0.4335
12358TIP3    H258490   5.891   4.015   6.637 -0.6247 -0.1173 -1.5231
12359TIP3   OH258491   3.297   1.412  13.486 -0.3370  0.2168  0.3429
12359TIP3    H158492   3.250   1.492  13.463  0.2442  0.8075  1.1335
12359TIP3    H258493   3.251   1.379  13.564 -0.8383 -0.4669 -0.2288
12360TIP3   OH258494   2.834   0.808  15.586 -0.0431  0.0879 -0.0006
12360TIP3    H158495   2.873   0.889  15.620  0.2018  0.7649 -1.7996
12360TIP3    H258496   2.786   0.835  15.508 -0.6410 -1.3969 -0.1815
12361TIP3   OH258497   1.792   5.115   1.997 -0.0795 -0.7083  0.0716
12361TIP3    H158498   1.833   5.083   1.916  0.9083 -0.2950  0.3969
12361TIP3    H258499   1.773   5.207   1.979 -0.8635 -0.8916 -0.0689
12362TIP3   OH258500   5.394   1.741  11.751  0.2883  0.7065 -0.2894
12362TIP3    H158501   5.382   1.720  11.658  0.4173  1.9853 -0.6105
12362TIP3    H258502   5.485   1.720  11.769  0.9344  2.5827 -1.0780
12363TIP3   OH258503   4.270   4.704   5.498 -0.4174  0.7907 -0.0395
12363TIP3    H158504   4.252   4.658   5.416 -0.4576  0.8690 -0.0753
12363TIP3    H258505   4.191   4.756   5.514  0.2895  2.2455 -0.9432
12364TIP3   OH258506   2.129   1.389   4.115 -0.1978 -0.9842 -0.2970
12364TIP3    H158507   2.041   1.411   4.086  0.1634 -0.6429 -1.1881
12364TIP3    H258508   2.116   1.335   4.192 -1.2102 -1.7156 -0.9481
12365TIP3   OH258509   0.826   2.084  15.656  0.3010  0.4293 -0.2780
12365TIP3    H158510   0.771   2.039  15.592 -0.1023  2.1668 -1.2319
12365TIP3    H258511   0.892   2.129  15.604  0.4276  1.2803  0.5851
12366TIP3   OH258512   6.118   0.091   3.824  0.2147 -0.1816  0.2462
12366TIP3    H158513   6.079   0.057   3.744 -0.9911  0.2298  0.6363
12366TIP3    H258514   6.111   0.186   3.815  3.7990  0.1235 -0.9786
12367TIP3   OH258515   0.653   0.666  12.885  0.4218 -0.0091  0.3132
12367TIP3    H158516   0.711   0.627  12.818 -0.0649 -1.0542  0.4898
12367TIP3    H258517   0.566   0.661  12.847 -0.0273 -1.6987  1.4924
12368TIP3   OH258518   5.505   4.887   5.297  0.2386  0.7153  0.1986
12368TIP3    H158519   5.488   4.867   5.205  1.2391  1.3223 -0.1315
12368TIP3    H258520   5.418   4.894   5.336 -0.1972  0.3076 -0.6642
12369TIP3   OH258521   3.319   3.146  16.353 -0.1819 -0.5284  0.1489
12369TIP3    H158522   3.312   3.051  16.345  1.4234 -0.5711 -1.5090
12369TIP3    H258523   3.241   3.180  16.309 -0.6340 -1.0583  0.5291
12370TIP3   OH258524   2.755   4.472   4.740  0.4535 -0.1271  0.6358
12370TIP3    H158525   2.755   4.565   4.763  1.4110  0.2333 -0.6852
12370TIP3    H258526   2.799   4.469   4.655  1.7994 -1.9574  1.3376
12371TIP3   OH258527   5.480   5.627  12.659 -0.1828 -0.3025  0.1596
12371TIP3    H158528   5.488   5.709  12.708 -2.3286  1.2223 -1.8224
12371TIP3    H258529   5.390   5.599  12.674  0.5659 -2.4655  0.9483
12372TIP3   OH258530   5.902   6.303  17.140  0.3872 -0.0102  0.2778
12372TIP3    H158531   5.836   6.312  17.072  0.0192  1.3166  0.7818
12372TIP3    H258532   5.961   6.378  17.126 -0.7125  1.3605  2.4711
12373TIP3   OH258533   1.156   4.585   4.902  0.5357 -0.1465  0.0328
12373TIP3    H158534   1.235   4.623   4.864  0.3023  0.7556  0.4382
12373TIP3    H258535   1.127   4.521   4.836  2.1485 -1.2481  0.3218
12374TIP3   OH258536   2.204   3.955  12.207  0.3122 -0.1969 -1.1987
12374TIP3    H158537   2.229   3.906  12.285  0.2162 -0.1495 -1.1386
12374TIP3    H258538   2.112   3.933  12.193 -0.4259  1.7681  0.1882
12375TIP3   OH258539   0.571   4.909   5.546 -0.4962  0.1252 -0.3885
12375TIP3    H158540   0.572   4.829   5.599  0.9335  0.8171  0.6742
12375TIP3    H258541   0.503   4.893   5.480  0.2286 -2.2359 -0.6329
12376TIP3   OH258542   1.060   4.709  15.633  0.5319  0.1218 -0.6411
12376TIP3    H158543   1.055   4.685  15.726  0.5719  1.4218 -0.2876
12376TIP3    H258544   1.151   4.692  15.609  0.4575 -0.4713 -0.5202
12377TIP3   OH258545   5.050   0.178   3.628  0.5204 -0.2476 -0.3016
12377TIP3    H158546   5.047   0.274   3.623 -0.4051 -0.1641  1.2119
12377TIP3    H258547   4.962   0.150   3.605  0.7170 -0.7240 -0.4878
12378TIP3   OH258548   5.491   4.465   3.535 -0.3832  0.2151 -0.0456
12378TIP3    H158549   5.425   4.512   3.484 -0.9997  1.7441  2.0282
12378TIP3    H258550   5.444   4.389   3.570 -0.8582  0.8968  0.8185
12379TIP3   OH258551   2.544   4.712   3.322  0.4591 -0.0253 -0.1238
12379TIP3    H158552   2.535   4.769   3.399  0.3975  0.0196 -0.1641
12379TIP3    H258553   2.509   4.764   3.250 -1.0625 -0.7032  0.0934
12380TIP3   OH258554   2.597   1.197   2.557 -0.3261 -0.5159  0.0768
12380TIP3    H158555   2.646   1.167   2.634  1.6280  4.2937  1.0339
12380TIP3    H258556   2.532   1.257   2.592  0.1482  1.2737 -1.9104
12381TIP3   OH258557   1.068   0.137  16.030 -0.0655 -0.0011 -0.4366
12381TIP3    H158558   1.032   0.224  16.047  1.2416  0.4927 -0.0355
12381TIP3    H258559   1.140   0.129  16.093 -0.5804 -1.6472 -0.0238
12382TIP3   OH258560   2.540   3.412  12.543  0.2546  0.2568 -0.1583
12382TIP3    H158561   2.497   3.384  12.462 -1.1658  0.6607  0.4127
12382TIP3    H258562   2.584   3.334  12.576  2.1892  0.4618 -2.0812
12383TIP3   OH258563   5.484   2.762  17.237 -0.9123  0.4886 -0.0895
12383TIP3    H158564   5.488   2.674  17.273 -2.9653  0.3675 -0.0218
12383TIP3    H258565   5.410   2.803  17.282 -0.5113  1.9642 -0.7106
12384TIP3   OH258566   2.065   1.751   5.418  0.1722  0.0858  0.4582
12384TIP3    H158567   2.086   1.764   5.510 -1.2361  0.4519  0.7524
12384TIP3    H258568   1.981   1.705   5.418 -0.0090  0.3768 -0.6368
12385TIP3   OH258569   2.783   6.240  14.284 -0.3125 -0.2715  0.4301
12385TIP3    H158570   2.877   6.235  14.263 -0.2808 -0.6733  0.6517
12385TIP3    H258571   2.780   6.264  14.376 -0.4570  1.8459 -0.0857
12386TIP3   OH258572   3.486   4.057  12.748 -0.4665  0.6365  0.7194
12386TIP3    H158573   3.429   4.127  12.782  1.5289  3.1221 -0.7006
12386TIP3    H258574   3.574   4.091  12.759  0.5876 -1.5241 -0.4659
12387TIP3   OH258575   1.691   2.691   4.406  0.4098  0.0284  0.5639
12387TIP3    H158576   1.740   2.723   4.330 -3.4588  1.4927 -1.5713
12387TIP3    H258577   1.688   2.596   4.394 -1.0688  0.3050 -1.9020
12388TIP3   OH258578   1.975   2.052  14.301  0.2304  0.0077 -0.2464
12388TIP3    H158579   1.959   1.997  14.225 -0.4187 -0.6143  0.3202
12388TIP3    H258580   1.953   1.996  14.376  0.1871  0.8275  0.3718
12389TIP3   OH258581   1.937   6.396  15.062 -0.6554  0.0187  0.3140
12389TIP3    H158582   2.007   6.462  15.064  0.2477 -0.8297 -1.5157
12389TIP3    H258583   1.885   6.418  14.986 -2.2863  0.4693  1.5041
12390TIP3   OH258584   3.162   4.234   4.204 -0.1720 -0.3186  0.0174
12390TIP3    H158585   3.221   4.187   4.144 -0.5108 -0.9892  0.1986
12390TIP3    H258586   3.215   4.306   4.237  1.3324 -2.1335  1.8475
12391TIP3   OH258587   3.267   5.369   3.235  0.2871 -0.3323 -0.0263
12391TIP3    H158588   3.185   5.413   3.262  1.1190  1.2737  0.0107
12391TIP3    H258589   3.297   5.326   3.315  0.6341  1.0003  0.5973
12392TIP3   OH258590   2.963   2.483  12.102 -0.2109  0.0066 -0.1218
12392TIP3    H158591   2.912   2.523  12.173  0.3236 -1.0858  0.9031
12392TIP3    H258592   3.022   2.422  12.146  1.0002  0.2055 -1.4108
12393TIP3   OH258593   6.119   3.756  13.422  0.0066  0.5269 -0.0090
12393TIP3    H158594   6.101   3.801  13.505  0.5390  0.5059  0.1201
12393TIP3    H258595   6.035   3.717  13.397 -0.3880  1.3262  0.0355
12394TIP3   OH258596   3.014   6.474  16.088 -0.1279 -0.3977  0.0603
12394TIP3    H158597   3.052   6.387  16.079 -0.2230 -0.5161  0.7965
12394TIP3    H258598   3.079   6.524  16.137 -0.5382 -0.3540  0.5634
12395TIP3   OH258599   2.934   3.028   3.274 -0.5976 -0.1199  0.2841
12395TIP3    H158600   2.888   3.092   3.327 -0.3971  1.3534 -1.2456
12395TIP3    H258601   2.884   2.947   3.285 -0.0663 -0.1460  3.3508
12396TIP3   OH258602   6.758   4.285  13.331 -0.0608  0.9547  0.2241
12396TIP3    H158603   6.838   4.315  13.376  0.2645  0.7617 -0.2251
12396TIP3    H258604   6.732   4.207  13.380  0.3016  0.7352  0.0703
12397TIP3   OH258605   5.623   2.837  15.462 -0.1003  0.1168 -0.1810
12397TIP3    H158606   5.576   2.774  15.516  1.3617  0.5052  1.6404
12397TIP3    H258607   5.608   2.808  15.372 -0.1052 -2.3778  0.5644
12398TIP3   OH258608   3.209   5.748   4.428 -0.3300  0.9112 -0.6048
12398TIP3    H158609   3.265   5.747   4.505  0.5881  1.6471 -1.2393
12398TIP3    H258610   3.140   5.685   4.447  0.0924  0.8144  0.6547
12399TIP3   OH258611   6.083   1.698   6.236 -0.7413  0.5512 -0.1525
12399TIP3    H158612   6.178   1.709   6.232 -0.6408 -0.4247 -0.7164
12399TIP3    H258613   6.049   1.767   6.180 -0.4582  1.8202  1.1650
12400TIP3   OH258614   4.412   2.745   3.985 -0.5910  0.1146  0.3477
12400TIP3    H158615   4.333   2.797   3.966 -0.5608  0.8544  2.1082
12400TIP3    H258616   4.427   2.696   3.904 -2.1972  0.8062 -0.4327
12401TIP3   OH258617   5.999   1.597  16.916  0.1945 -0.1405  0.4009
12401TIP3    H158618   6.033   1.537  16.848 -0.0859 -1.5413  1.4523
12401TIP3    H258619   5.995   1.543  16.995  2.3364  1.9300  2.0594
12402TIP3   OH258620   0.859   4.728  11.690 -1.0065 -1.0048  0.0079
12402TIP3    H158621   0.867   4.805  11.747 -0.8397 -1.1048  0.1202
12402TIP3    H258622   0.768   4.731  11.660 -0.9820 -0.7240 -0.0459
12403TIP3   OH258623   3.690   5.725  13.682 -0.0692  0.1738  0.1278
12403TIP3    H158624   3.704   5.754  13.592  2.8631 -0.5650  0.2399
12403TIP3    H258625   3.670   5.805  13.730 -1.6295  0.5871 -1.1237
12404TIP3   OH258626   0.488   4.385  12.068 -0.3175  0.1154  0.0476
12404TIP3    H158627   0.427   4.394  12.142 -2.3994 -1.7256 -1.3159
12404TIP3    H258628   0.472   4.463  12.014  2.3125  2.2875  2.1200
12405TIP3   OH258629   3.225   5.128  12.604 -0.6962 -1.1147  0.2784
12405TIP3    H158630   3.296   5.158  12.548  0.0897 -0.6299  1.5035
12405TIP3    H258631   3.168   5.204  12.614 -2.7556 -2.0941 -2.6023
12406TIP3   OH258632   1.537   4.739   5.950  0.0636 -0.2865  0.0535
12406TIP3    H158633   1.467   4.734   6.015 -0.1982 -2.0033 -0.3247
12406TIP3    H258634   1.612   4.775   5.998 -1.7680  4.6026 -0.2166
12407TIP3   OH258635   1.908   5.653   4.255 -0.4987  0.4373 -0.3515
12407TIP3    H158636   1.961   5.628   4.179 -1.4786 -1.2688 -0.5297
12407TIP3    H258637   1.915   5.578   4.314 -0.2789  1.4705  0.9799
12408TIP3   OH258638   6.414   3.993   0.383  0.2486  0.0386 -0.1476
12408TIP3    H158639   6.427   3.960   0.294  1.0807 -0.0320 -0.0052
12408TIP3    H258640   6.409   4.088   0.373  1.5600  0.1288 -0.1517
12409TIP3   OH258641   0.449   2.253   3.407 -0.0940  0.5195 -0.1728
12409TIP3    H158642   0.359   2.280   3.389 -0.4204  0.6088  1.4210
12409TIP3    H258643   0.445   2.212   3.493  1.6827  2.1554  0.7802
12410TIP3   OH258644   2.417   4.375  17.027 -0.1965  0.2916 -0.1266
12410TIP3    H158645   2.440   4.309  17.092  2.2236 -0.8601 -1.9984
12410TIP3    H258646   2.344   4.336  16.979  2.0554 -1.8347 -2.0949
12411TIP3   OH258647   4.530   6.148   2.101 -0.0550  0.2327 -0.3680
12411TIP3    H158648   4.609   6.100   2.125  1.4312  2.6687  0.0402
12411TIP3    H258649   4.459   6.102   2.144  1.4042 -0.8787  0.9714
12412TIP3   OH258650   2.317   3.545   0.809 -0.0999 -0.2871 -0.3459
12412TIP3    H158651   2.335   3.638   0.798  1.2951 -0.4633  0.2061
12412TIP3    H258652   2.370   3.502   0.741  0.1192 -0.7281  0.0921
12413TIP3   OH258653   3.341   6.610  14.403 -0.1152 -0.7947  0.0995
12413TIP3    H158654   3.259   6.594  14.451  1.0751 -1.0244  2.2099
12413TIP3    H258655   3.324   6.689  14.352 -1.5445 -0.6471  0.7405
12414TIP3   OH258656   2.945   5.813  12.474  0.4060  0.2094 -0.0535
12414TIP3    H158657   2.946   5.808  12.379 -4.4916  0.4872 -0.3708
12414TIP3    H258658   2.971   5.903  12.494 -1.4136  1.1014 -1.4339
12415TIP3   OH258659   2.530   4.745  14.865 -0.2550 -0.1991  0.0658
12415TIP3    H158660   2.601   4.713  14.921 -0.0154  1.0407  0.5236
12415TIP3    H258661   2.451   4.733  14.917 -0.3726 -1.3780 -0.3557
12416TIP3   OH258662   5.625   5.492  13.408  0.1781  0.2066 -0.2322
12416TIP3    H158663   5.588   5.426  13.349  2.1748  0.6639 -2.1356
12416TIP3    H258664   5.697   5.531  13.358 -0.8074  3.7631  0.8286
12417TIP3   OH258665   4.312   3.245  16.274  0.0120  0.0915 -0.0062
12417TIP3    H158666   4.224   3.224  16.306 -0.7946  1.9057 -0.8927
12417TIP3    H258667   4.313   3.214  16.183  1.2838 -2.3637  0.7398
12418TIP3   OH258668   3.493   2.410  11.426  0.3546  0.0030  0.6994
12418TIP3    H158669   3.415   2.370  11.463  0.4999 -0.1790  0.8090
12418TIP3    H258670   3.463   2.496  11.394  0.1540  0.0162  0.9194
12419TIP3   OH258671   4.911   2.467   3.037 -0.0253 -0.1951 -0.3181
12419TIP3    H158672   4.815   2.462   3.037 -0.1069  0.7721  0.9866
12419TIP3    H258673   4.933   2.514   2.957 -0.6737  0.0631 -0.3466
12420TIP3   OH258674   4.685   3.433   2.196 -0.7544  0.5844 -0.5038
12420TIP3    H158675   4.772   3.423   2.157 -1.0243 -1.1235 -0.7536
12420TIP3    H258676   4.693   3.508   2.255  0.9387  0.3202 -0.3687
12421TIP3   OH258677   5.365   4.312   5.463 -0.2535 -0.2398  0.2568
12421TIP3    H158678   5.391   4.298   5.554  1.1801 -0.0296 -0.0977
12421TIP3    H258679   5.269   4.307   5.464 -0.1825 -3.1418  1.2749
12422TIP3   OH258680   4.538   4.133   3.910 -0.3597  0.1407  0.0481
12422TIP3    H158681   4.485   4.151   3.832  0.2721  2.6365  0.1196
12422TIP3    H258682   4.605   4.202   3.910 -0.9146  0.8446  3.2903
12423TIP3   OH258683   5.290   1.306  14.293 -0.5287 -0.4657  0.5189
12423TIP3    H158684   5.383   1.314  14.318 -0.4199  0.8877 -0.2483
12423TIP3    H258685   5.280   1.213  14.271  1.4462 -0.1177 -2.3101
12424TIP3   OH258686   3.660   2.968  15.411 -0.1521  0.1801 -0.0499
12424TIP3    H158687   3.632   2.891  15.360 -0.2666  0.7447 -0.8580
12424TIP3    H258688   3.707   3.022  15.348 -0.6667  1.0985  0.3398
12425TIP3   OH258689   5.382   0.689  12.292  0.6356  0.1218  0.0000
12425TIP3    H158690   5.334   0.632  12.352 -0.2637  0.2957 -0.5390
12425TIP3    H258691   5.472   0.688  12.325  0.6786 -1.7240 -0.0814
12426TIP3   OH258692   5.223   2.805  15.866  0.3994 -0.2262  0.0406
12426TIP3    H158693   5.161   2.807  15.940 -0.1012  0.9080 -0.3852
12426TIP3    H258694   5.198   2.727  15.817  2.2149 -2.3681  2.2539
12427TIP3   OH258695   0.955   1.918   3.276 -0.0960 -0.0670  0.1116
12427TIP3    H158696   0.862   1.941   3.271  0.1694  0.7205 -1.7121
12427TIP3    H258697   0.993   1.950   3.194  1.6591 -1.0050  0.5051
12428TIP3   OH258698   3.899   3.346   5.027  0.2764 -0.3642 -0.3928
12428TIP3    H158699   3.908   3.425   4.975  0.6024  0.4145  0.8044
12428TIP3    H258700   3.989   3.325   5.054  0.0255 -0.1850  0.6441
12429TIP3   OH258701   1.512   1.209  11.272 -0.0216  0.0113  0.0697
12429TIP3    H158702   1.495   1.181  11.362  0.6730 -0.3057  0.1052
12429TIP3    H258703   1.485   1.135  11.218  0.7537 -0.2974  0.0962
12430TIP3   OH258704   3.881   6.348  12.569 -0.4738 -0.1459 -0.2324
12430TIP3    H158705   3.802   6.336  12.515 -0.7466 -0.0501  0.1388
12430TIP3    H258706   3.867   6.432  12.613  0.8493  0.9871 -1.8621
12431TIP3   OH258707   5.475   0.060  15.141 -0.4015  0.2025 -0.1898
12431TIP3    H158708   5.485   0.042  15.235 -1.8605 -0.3620 -0.1312
12431TIP3    H258709   5.514  -0.016  15.098 -2.6105 -1.1181  0.0212
12432TIP3   OH258710   6.613   2.814  13.938  0.0682  0.3357 -0.4774
12432TIP3    H158711   6.528   2.820  13.895  0.0623  1.1000 -0.3890
12432TIP3    H258712   6.661   2.748  13.889 -0.4116  0.2415 -0.8232
12433TIP3   OH258713   3.871   5.769   0.874 -0.2561 -1.0848 -0.1019
12433TIP3    H158714   3.883   5.847   0.928  0.4356 -0.3778 -1.2394
12433TIP3    H258715   3.953   5.720   0.882 -0.6997 -1.7390  0.6375
12434TIP3   OH258716   6.659   6.676  14.388  0.9263  0.4366  0.4768
12434TIP3    H158717   6.673   6.648  14.479  0.1914  0.6782  0.6760
12434TIP3    H258718   6.686   6.601  14.335 -0.3101 -0.3982  0.9720
12435TIP3   OH258719   3.446   0.324  17.188 -0.2457  0.7206  0.0890
12435TIP3    H158720   3.487   0.329  17.274  0.1283 -0.3313 -0.0108
12435TIP3    H258721   3.363   0.371  17.198  0.0561  1.1070  0.8591
12436TIP3   OH258722   0.015   4.326   6.516 -0.5111 -0.1831  0.9576
12436TIP3    H158723   0.015   4.408   6.565  0.8116  1.1147 -1.0540
12436TIP3    H258724   0.078   4.270   6.562  0.7872  1.0352  0.6950
12437TIP3   OH258725   5.632   5.526   3.937  0.5497  0.1347 -0.7762
12437TIP3    H158726   5.643   5.431   3.939 -0.5333 -0.0924 -2.6647
12437TIP3    H258727   5.701   5.557   3.878  0.7513  0.4929 -0.3564
12438TIP3   OH258728   1.070   1.228   2.651 -0.0975 -0.1935  0.2201
12438TIP3    H158729   1.036   1.308   2.610  0.9164  0.6223  0.9056
12438TIP3    H258730   1.076   1.250   2.744 -0.4563 -1.3177  0.5200
12439TIP3   OH258731   1.984   6.223  12.098 -0.2133 -0.0732  0.1301
12439TIP3    H158732   2.079   6.233  12.088 -0.2283 -0.4853 -0.4713
12439TIP3    H258733   1.948   6.243  12.012 -0.4819 -2.1273 -0.3002
12440TIP3   OH258734   0.939   5.177  15.560 -0.0458 -1.2123 -0.2937
12440TIP3    H158735   0.882   5.102  15.545 -1.6009 -0.3141  0.8261
12440TIP3    H258736   0.969   5.166  15.651  0.0900 -0.7227 -0.2772
12441TIP3   OH258737   1.109   0.733   2.736 -0.1826 -0.4487 -0.0641
12441TIP3    H158738   1.045   0.766   2.673 -0.0522 -1.1944 -0.5927
12441TIP3    H258739   1.191   0.774   2.710 -0.4513  0.5848  0.6738
12442TIP3   OH258740   2.010   6.729   2.053  0.1099 -0.0135 -0.8178
12442TIP3    H158741   2.053   6.790   2.114 -0.3894  0.2109 -0.6848
12442TIP3    H258742   2.020   6.644   2.095 -1.7496  0.3411  0.4917
12443TIP3   OH258743   3.899   0.058  12.069 -0.0408 -0.0949 -0.4584
12443TIP3    H158744   3.931  -0.025  12.103 -1.3500 -0.2596  0.4314
12443TIP3    H258745   3.843   0.093  12.138  0.8343  1.7658 -0.6165
12444TIP3   OH258746   0.998   1.201   3.190 -0.5411  0.1431  0.5364
12444TIP3    H158747   1.006   1.296   3.197  1.4551  0.1947 -1.4090
12444TIP3    H258748   1.027   1.168   3.275 -2.1781  1.2415  1.5875
12445TIP3   OH258749   5.588   3.049   2.362 -0.0632 -0.3829 -0.4493
12445TIP3    H158750   5.533   3.010   2.294  0.2247 -0.9008 -0.3878
12445TIP3    H258751   5.643   2.978   2.393  1.5611  0.3908 -1.4028
12446TIP3   OH258752   0.331   1.712   5.095  0.6456 -0.1117 -0.1010
12446TIP3    H158753   0.374   1.727   5.011  0.8460 -1.1599 -0.1897
12446TIP3    H258754   0.369   1.631   5.128 -0.5521 -0.5348  0.2865
12447TIP3   OH258755   3.850   4.359   0.405  0.2560  0.0734 -0.7584
12447TIP3    H158756   3.810   4.395   0.484 -0.7766 -0.1464 -1.1713
12447TIP3    H258757   3.906   4.288   0.437 -1.4797 -1.1566 -0.3309
12448TIP3   OH258758   0.465   0.395  14.305  0.3696  0.5638 -0.1585
12448TIP3    H158759   0.511   0.376  14.387  1.5082  0.7880 -0.7232
12448TIP3    H258760   0.422   0.313  14.282  1.2929  0.0400 -0.0969
12449TIP3   OH258761   4.548   1.683  11.288 -0.1992 -0.0010  0.1667
12449TIP3    H158762   4.572   1.626  11.361  0.3139 -0.2362 -0.1714
12449TIP3    H258763   4.623   1.678  11.229  0.9594  2.9540  1.2273
12450TIP3   OH258764   5.761   0.779  16.869  0.6269  0.2723 -0.2561
12450TIP3    H158765   5.751   0.749  16.779  0.4530  0.1160 -0.1859
12450TIP3    H258766   5.847   0.746  16.896  0.4263 -0.1984 -0.1687
12451TIP3   OH258767   2.216   0.314  15.376  0.7987  0.1097 -0.1340
12451TIP3    H158768   2.224   0.409  15.387 -1.6012  0.3919 -0.2112
12451TIP3    H258769   2.226   0.300  15.282 -0.2826  0.5025 -0.3220
12452TIP3   OH258770   0.405   4.640  13.758 -0.2893 -0.4872  0.0583
12452TIP3    H158771   0.458   4.719  13.770 -2.0423  0.8856 -0.7247
12452TIP3    H258772   0.426   4.610  13.670  0.5923 -1.0874  0.4615
12453TIP3   OH258773   0.819   0.151   5.874 -0.2658  0.6705 -0.0786
12453TIP3    H158774   0.759   0.225   5.882 -1.3132  0.0081 -1.3740
12453TIP3    H258775   0.775   0.092   5.813  1.6563  0.0750 -0.9340
12454TIP3   OH258776   6.292   0.299  13.347 -0.5383  0.3188  0.0354
12454TIP3    H158777   6.239   0.225  13.318 -0.8901 -0.0619  1.5704
12454TIP3    H258778   6.231   0.374  13.343 -0.9322  0.0561  0.8735
12455TIP3   OH258779   4.832   5.543   1.522 -0.4134 -0.0484  0.0591
12455TIP3    H158780   4.856   5.478   1.588 -0.3570 -0.2222 -0.1279
12455TIP3    H258781   4.900   5.534   1.455  0.0621  0.7858  0.4248
12456TIP3   OH258782   6.048   6.272   3.765 -0.4191 -0.2150 -0.0619
12456TIP3    H158783   6.019   6.229   3.846  0.0789 -1.9444 -0.7686
12456TIP3    H258784   6.123   6.221   3.736 -1.2586 -0.3144 -2.1995
12457TIP3   OH258785   2.866   5.321   5.958 -0.3744  0.1451  0.5230
12457TIP3    H158786   2.902   5.363   5.880 -0.4777 -1.3565 -0.3754
12457TIP3    H258787   2.774   5.305   5.937 -0.6692  0.6487  1.3677
12458TIP3   OH258788   5.358   3.117   0.345  0.2001  0.3239  0.3011
12458TIP3    H158789   5.376   3.144   0.255 -1.0481 -0.7276 -0.2970
12458TIP3    H258790   5.341   3.199   0.392 -0.1834  0.8080 -0.6658
12459TIP3   OH258791   4.947   2.454  12.894 -0.1540  0.4015 -0.3042
12459TIP3    H158792   4.881   2.454  12.963  0.0660  2.4762 -0.0163
12459TIP3    H258793   4.986   2.367  12.897 -0.9379  0.0706  1.4115
12460TIP3   OH258794   5.195   3.785  15.536  0.1515 -0.5821 -0.6142
12460TIP3    H158795   5.146   3.801  15.456 -1.5739 -2.0043  0.0819
12460TIP3    H258796   5.171   3.857  15.594  1.0063  0.1722 -1.1848
12461TIP3   OH258797   6.672   3.407  11.708 -0.5624 -0.3047 -0.0622
12461TIP3    H158798   6.715   3.325  11.683  0.2568 -0.1014  0.6351
12461TIP3    H258799   6.672   3.407  11.804 -1.3254  0.1251 -0.0437
12462TIP3   OH258800   4.427   2.493  15.120 -0.3180 -0.1049  0.0383
12462TIP3    H158801   4.444   2.583  15.145 -1.0096 -0.1726  0.8066
12462TIP3    H258802   4.408   2.497  15.026 -0.1756  0.5223  0.0338
12463TIP3   OH258803   6.522   0.405   3.351 -0.0203  0.2519  0.0309
12463TIP3    H158804   6.538   0.447   3.267 -0.5959  1.0010  0.2879
12463TIP3    H258805   6.610   0.397   3.390  0.0198  2.3536  0.4981
12464TIP3   OH258806   0.977   6.340   0.973  0.4884 -0.6110 -0.0342
12464TIP3    H158807   0.900   6.286   0.954 -0.7073  1.1120 -0.2332
12464TIP3    H258808   1.046   6.276   0.994 -0.8145 -2.2112 -0.4319
12465TIP3   OH258809   6.622   0.589   0.524 -0.3451 -0.3618 -0.0513
12465TIP3    H158810   6.659   0.576   0.436 -2.9022 -0.6018 -1.1729
12465TIP3    H258811   6.565   0.513   0.537 -1.9569  0.9302  0.7194
12466TIP3   OH258812   4.327   1.993   1.081 -0.0666 -0.0279  0.1084
12466TIP3    H158813   4.256   1.949   1.034  0.2682  0.4837 -0.8944
12466TIP3    H258814   4.404   1.938   1.066  0.0281  0.0995  0.1187
12467TIP3   OH258815   6.060   6.214   5.239 -0.2543 -0.0126 -0.0007
12467TIP3    H158816   6.012   6.136   5.210  0.8318 -0.5547 -0.4120
12467TIP3    H258817   6.135   6.179   5.288  0.5483  0.7433 -0.6478
12468TIP3   OH258818   0.824   4.882  13.625 -0.2342 -0.1691 -0.5775
12468TIP3    H158819   0.747   4.939  13.617 -2.3038 -2.9101 -2.0557
12468TIP3    H258820   0.857   4.899  13.713 -1.2778  2.5563 -0.6098
12469TIP3   OH258821   6.207   4.637   5.206 -0.0125 -0.3427 -0.1370
12469TIP3    H158822   6.120   4.673   5.193  0.5744  0.7356 -1.3780
12469TIP3    H258823   6.259   4.710   5.238  0.3770 -1.0535  0.8884
12470TIP3   OH258824   5.689   0.258  11.979 -0.0032 -0.2753  0.1229
12470TIP3    H158825   5.663   0.281  11.890  1.8091 -0.5057 -0.5244
12470TIP3    H258826   5.657   0.330  12.034 -0.3805  0.3156 -0.8557
12471TIP3   OH258827   3.802   0.570   3.554 -0.1099 -0.5537 -0.4678
12471TIP3    H158828   3.857   0.589   3.478 -2.3831  0.3412 -1.9913
12471TIP3    H258829   3.713   0.564   3.519 -1.1696 -0.8050  2.0290
12472TIP3   OH258830   2.203   0.770  13.732  0.4353  0.2448 -0.0124
12472TIP3    H158831   2.115   0.809  13.733  0.6840  0.7966  0.7517
12472TIP3    H258832   2.259   0.836  13.771  1.1992 -0.1074 -0.5027
12473TIP3   OH258833   6.315   0.670  15.255 -0.2293  0.5899  0.2621
12473TIP3    H158834   6.279   0.581  15.251  1.4722 -0.1192 -0.4125
12473TIP3    H258835   6.341   0.681  15.347  1.4408 -0.4724 -0.0203
12474TIP3   OH258836   4.537   5.372   0.722 -0.1525  0.8423  0.2603
12474TIP3    H158837   4.615   5.409   0.679 -0.4363 -1.7909 -2.9394
12474TIP3    H258838   4.467   5.384   0.659 -0.3711 -4.2456 -0.9030
12475TIP3   OH258839   2.211   6.736  15.738  0.3894 -0.8931  0.1253
12475TIP3    H158840   2.297   6.734  15.697  0.4808 -2.5135  0.3505
12475TIP3    H258841   2.225   6.702  15.826 -0.1891  0.5122  0.7896
12476TIP3   OH258842   3.493   2.450   1.108  0.3814  0.1100 -0.2585
12476TIP3    H158843   3.482   2.477   1.199  0.1568 -1.4418  0.1994
12476TIP3    H258844   3.588   2.438   1.098  0.2030 -3.2279  0.9042
12477TIP3   OH258845   0.244   0.294  16.976 -0.3189  0.2610 -0.1021
12477TIP3    H158846   0.243   0.208  16.934  1.0965 -0.6570  1.5995
12477TIP3    H258847   0.194   0.281  17.057 -0.2400  1.1044  0.0901
12478TIP3   OH258848   3.610   2.463  12.531  0.6439 -0.3275 -0.3616
12478TIP3    H158849   3.603   2.368  12.532 -1.6167 -0.3044  2.6031
12478TIP3    H258850   3.574   2.490  12.447 -1.3656 -2.0598 -0.1289
12479TIP3   OH258851   3.028   1.861  12.310  0.5398 -0.1947 -0.3111
12479TIP3    H158852   3.003   1.934  12.366  0.5625 -0.5303  0.1463
12479TIP3    H258853   3.114   1.834  12.341  0.1098 -1.0480  0.1934
12480TIP3   OH258854   3.545   6.663   5.520  0.0902 -0.0331  0.1650
12480TIP3    H158855   3.470   6.604   5.525  0.2848 -0.2236  0.9336
12480TIP3    H258856   3.548   6.705   5.606  0.7833  0.0718  0.0926
12481TIP3   OH258857   2.792   1.952  16.378  0.0630 -0.2977 -0.1786
12481TIP3    H158858   2.767   1.883  16.317 -0.0698  0.2302 -0.7213
12481TIP3    H258859   2.888   1.954  16.375  0.0958 -0.8057  0.2360
12482TIP3   OH258860   2.899   4.967   2.595  0.3145 -0.0294 -0.5577
12482TIP3    H158861   2.878   5.050   2.638 -1.3926 -1.2064  1.0158
12482TIP3    H258862   2.995   4.968   2.586  0.6187  0.9099  2.0316
12483TIP3   OH258863   1.158   1.757  12.927  0.0214  0.3379 -0.2711
12483TIP3    H158864   1.237   1.807  12.943 -0.0750 -0.1688  2.3211
12483TIP3    H258865   1.168   1.722  12.839  3.0647 -0.3716  0.2496
12484TIP3   OH258866   2.648   6.389  12.795  0.1136  0.5089  0.1266
12484TIP3    H158867   2.597   6.462  12.757 -0.9825 -0.1102  0.3537
12484TIP3    H258868   2.649   6.408  12.889 -1.5585 -0.5515  0.4028
12485TIP3   OH258869   2.909   0.555   1.615  0.2995  0.6037  1.6055
12485TIP3    H158870   2.872   0.636   1.651  0.4678  0.7433  1.4662
12485TIP3    H258871   2.971   0.585   1.549 -0.2899  0.3467  0.9197
12486TIP3   OH258872   1.830   1.235   2.567 -0.7140 -0.1592 -0.7770
12486TIP3    H158873   1.831   1.172   2.639  0.8782  0.4824 -0.1766
12486TIP3    H258874   1.890   1.199   2.502  2.2574  1.8003  0.6597
12487TIP3   OH258875   2.900   4.042   2.876 -0.2026 -0.2031 -0.0297
12487TIP3    H158876   2.931   4.084   2.956  2.1056 -1.6361 -0.0710
12487TIP3    H258877   2.875   4.115   2.819 -0.4061  0.8946  1.4213
12488TIP3   OH258878   2.841   5.378   2.998  0.0092  0.3189  0.8025
12488TIP3    H158879   2.931   5.355   2.975 -0.3066  0.3207 -0.5258
12488TIP3    H258880   2.815   5.312   3.061  0.9157  0.2772  1.1532
12489TIP3   OH258881   1.016   4.641   1.229 -0.5778  0.0293 -0.5069
12489TIP3    H158882   1.108   4.617   1.220 -0.1992  0.4793  1.6246
12489TIP3    H258883   0.971   4.592   1.160  1.1391 -0.8903 -1.0144
12490TIP3   OH258884   4.669   5.058   6.416 -0.1582 -0.3317 -0.4042
12490TIP3    H158885   4.718   5.098   6.344  2.5281 -2.2330  0.2182
12490TIP3    H258886   4.719   5.082   6.495 -1.7161 -0.2381  0.5946
12491TIP3   OH258887   5.689   2.578   4.399  0.2748 -0.4107 -0.0010
12491TIP3    H158888   5.655   2.557   4.486  1.5050  1.1068  0.8887
12491TIP3    H258889   5.621   2.633   4.359  0.2356 -0.1077  0.4788
12492TIP3   OH258890   2.212   3.480  16.957  0.2207 -0.3223  0.4545
12492TIP3    H158891   2.148   3.432  17.009  0.4093 -1.7499 -0.5868
12492TIP3    H258892   2.286   3.420  16.948 -1.1062 -1.6537 -4.3123
12493TIP3   OH258893   4.691   0.124   5.275  0.4290  0.2930 -0.0080
12493TIP3    H158894   4.741   0.192   5.320 -1.5352  1.0369  1.1912
12493TIP3    H258895   4.633   0.172   5.216  1.2309 -0.5579 -1.5427
12494TIP3   OH258896   3.488   4.702   0.430 -0.4795  0.4671 -0.6010
12494TIP3    H158897   3.477   4.754   0.510 -0.7959 -0.5098  0.0153
12494TIP3    H258898   3.424   4.738   0.369 -2.3333 -0.6379  0.5890
12495TIP3   OH258899   0.420   1.131  16.536 -0.1040  0.2043  0.4989
12495TIP3    H158900   0.497   1.078  16.558  0.4107  0.9563  0.5435
12495TIP3    H258901   0.446   1.221  16.559 -0.8850  0.5037  0.2251
12496TIP3   OH258902   3.639   3.238  12.560 -0.2850  0.1378 -0.3672
12496TIP3    H158903   3.711   3.190  12.519  0.2491  0.8317 -0.2820
12496TIP3    H258904   3.682   3.313  12.601 -1.0497  0.4882 -0.1939
12497TIP3   OH258905   5.756   0.334   0.831 -0.6149 -0.3338 -0.0608
12497TIP3    H158906   5.709   0.408   0.869  0.8653  1.3569 -1.3983
12497TIP3    H258907   5.797   0.291   0.907 -1.5256  0.1528  0.7378
12498TIP3   OH258908   2.988   0.928   0.441  0.0988  0.1644  0.4804
12498TIP3    H158909   3.048   0.997   0.471 -1.3568  1.5898  0.2129
12498TIP3    H258910   2.937   0.969   0.372 -0.0157 -1.5715 -0.5278
12499TIP3   OH258911   2.809   1.199   1.541  0.0644  0.5738 -0.7721
12499TIP3    H158912   2.889   1.241   1.573 -0.5472  0.3628  1.1278
12499TIP3    H258913   2.826   1.184   1.448  2.6770 -0.3949 -0.2334
12500TIP3   OH258914   2.044   6.221   2.324 -0.4422  0.2723 -0.0780
12500TIP3    H158915   2.076   6.164   2.255  1.8324  1.9621 -0.5265
12500TIP3    H258916   2.088   6.190   2.403  2.4230  2.4529 -0.6557
12501TIP3   OH258917   3.350   5.139   3.475 -0.2329 -0.0597 -0.3399
12501TIP3    H158918   3.364   5.224   3.516 -0.4945  0.5577 -1.4740
12501TIP3    H258919   3.429   5.090   3.493  0.6069  0.9991 -1.0161
12502TIP3   OH258920   4.136   4.584   0.973 -0.3106  0.3928  0.3864
12502TIP3    H158921   4.042   4.603   0.971 -0.4818 -0.4651 -0.8725
12502TIP3    H258922   4.144   4.509   1.033 -0.5165  0.0535 -0.0092
12503TIP3   OH258923   4.635   5.038   1.127 -0.0309 -0.9419 -0.2190
12503TIP3    H158924   4.605   5.100   1.061  0.5563  0.3876  0.7100
12503TIP3    H258925   4.701   4.986   1.082  0.3806 -0.0373 -0.6949
12504TIP3   OH258926   5.050   5.091  12.552  0.4365 -0.1589 -0.0593
12504TIP3    H158927   5.094   5.061  12.472  3.5698  1.5388  0.8810
12504TIP3    H258928   5.067   5.023  12.616  0.6902 -0.0332  0.0059
12505TIP3   OH258929   3.969   0.408  13.421  0.3771 -0.0729  0.6814
12505TIP3    H158930   3.984   0.498  13.393 -0.4060  0.0543  0.6599
12505TIP3    H258931   3.876   0.404  13.441  0.6290 -0.5732  1.7933
12506TIP3   OH258932   5.409   3.674   4.040  0.0973  0.6940  0.2917
12506TIP3    H158933   5.342   3.605   4.047  0.9569 -0.1827  0.1311
12506TIP3    H258934   5.471   3.653   4.109  1.2942  0.2640 -0.8832
12507TIP3   OH258935   2.905   0.528   2.021 -0.1409  0.6057 -0.1763
12507TIP3    H158936   2.824   0.552   1.975 -0.1655  0.7487 -0.0602
12507TIP3    H258937   2.948   0.466   1.963 -0.7693 -0.1704  0.1582
12508TIP3   OH258938   0.280   0.419  13.024  0.2748  0.3040 -0.0983
12508TIP3    H158939   0.199   0.374  13.000 -0.0780  1.6675 -1.6728
12508TIP3    H258940   0.303   0.385  13.110 -1.0587 -1.3396 -0.3617
12509TIP3   OH258941   5.224   5.212   5.278 -0.8948 -0.3077 -0.5666
12509TIP3    H158942   5.224   5.239   5.186 -0.4253  0.2973 -0.3985
12509TIP3    H258943   5.270   5.128   5.278  1.2782  0.8025 -0.6077
12510TIP3   OH258944   1.010   4.586  15.885  0.2264 -0.2664 -0.2465
12510TIP3    H158945   1.064   4.557  15.959 -0.5974 -1.6758 -0.1602
12510TIP3    H258946   0.971   4.668  15.915  1.7474  0.4014 -0.0420
12511TIP3   OH258947   1.401   6.003   3.083  0.9439 -0.5504 -0.3970
12511TIP3    H158948   1.396   5.985   3.177 -0.8794 -1.5498 -0.6275
12511TIP3    H258949   1.493   5.994   3.061  1.4104 -0.2349  1.3067
12512TIP3   OH258950   4.656   4.331  17.220  0.8500 -0.3855  0.0997
12512TIP3    H158951   4.695   4.299  17.302  1.0167 -3.2197 -1.0027
12512TIP3    H258952   4.591   4.265  17.197  0.5321  0.5633 -1.8870
12513TIP3   OH258953   5.253   2.494  11.925 -0.7217  0.1015  0.0067
12513TIP3    H158954   5.205   2.420  11.889 -1.8601  0.3071  1.0226
12513TIP3    H258955   5.235   2.491  12.019  0.6091  0.6797  0.3083
12514TIP3   OH258956   5.813   6.460  14.852  0.6818  0.5176 -0.8072
12514TIP3    H158957   5.773   6.528  14.798 -0.9599  0.9185  0.8058
12514TIP3    H258958   5.762   6.460  14.933  2.2057 -0.9570  0.2380
12515TIP3   OH258959   4.135   4.055   4.950  0.0353 -0.2597  0.1650
12515TIP3    H158960   4.163   4.083   5.037 -2.3373 -1.3106  1.3520
12515TIP3    H258961   4.214   4.061   4.896  1.8620 -0.6237  2.6367
12516TIP3   OH258962   5.636   0.963   4.927 -0.0137 -0.0676 -0.4581
12516TIP3    H158963   5.657   0.973   5.020  2.0534 -1.6893 -0.6740
12516TIP3    H258964   5.577   0.887   4.924 -0.6328  0.4036 -0.4352
12517TIP3   OH258965   2.103   3.279   2.570  0.0860  0.6685  0.1593
12517TIP3    H158966   2.138   3.191   2.553 -1.0794 -0.0219  1.1594
12517TIP3    H258967   2.112   3.290   2.665  0.1206  1.5944  0.0590
12518TIP3   OH258968   3.774   6.695   5.691  0.0867  0.0109 -0.1050
12518TIP3    H158969   3.727   6.714   5.773  1.8208 -0.5014  1.0489
12518TIP3    H258970   3.753   6.603   5.673  1.2375 -0.4599  0.8476
12519TIP3   OH258971   3.949   0.525   4.583 -0.2174  0.9986 -0.2837
12519TIP3    H158972   4.000   0.444   4.577  0.3829  1.4241 -1.1010
12519TIP3    H258973   3.877   0.503   4.642  0.6005  0.2251  0.4798
12520TIP3   OH258974   3.782   5.260  11.283  0.4165 -0.4931  0.8015
12520TIP3    H158975   3.762   5.287  11.194  1.5929 -0.4381  0.5385
12520TIP3    H258976   3.714   5.301  11.337  0.8965  1.2135  0.1755
12521TIP3   OH258977   3.983   3.452  11.812  0.4054 -0.0469 -0.5745
12521TIP3    H158978   4.012   3.527  11.863  1.0894 -0.4375 -0.3835
12521TIP3    H258979   3.941   3.394  11.875 -0.8043  0.5009 -0.8451
12522TIP3   OH258980   4.917   4.238   3.423  1.0084 -0.0145  0.1623
12522TIP3    H158981   4.984   4.176   3.449  1.7782  0.8419  0.2496
12522TIP3    H258982   4.908   4.225   3.329 -0.1344 -1.4961  0.4261
12523TIP3   OH258983   5.927   4.382   0.005  0.0425  0.3339  0.1364
12523TIP3    H158984   5.874   4.441  -0.048  0.1676  2.5695  2.3247
12523TIP3    H258985   5.968   4.324  -0.058 -2.6265  0.4326 -1.8895
12524TIP3   OH258986   5.705   4.985  11.050 -0.1197 -0.0817  0.0603
12524TIP3    H158987   5.724   4.977  11.143 -0.5823  0.4674  0.2107
12524TIP3    H258988   5.609   4.987  11.045 -0.1388 -1.3349 -0.5386
12525TIP3   OH258989   5.715   0.332   5.770 -0.8218 -0.3475 -0.1838
12525TIP3    H158990   5.715   0.336   5.866 -1.4496  1.7965 -0.2023
12525TIP3    H258991   5.802   0.302   5.747 -0.3790 -0.1016  1.0682
12526TIP3   OH258992   1.987   2.049  11.509 -0.1060 -0.1825  0.0273
12526TIP3    H158993   2.048   1.996  11.560  1.7503  1.7247 -0.1058
12526TIP3    H258994   1.919   1.986  11.481  0.5468 -1.9105  2.0596
12527TIP3   OH258995   1.003   3.980   5.353 -0.1380 -0.4814  0.6939
12527TIP3    H158996   1.097   3.965   5.352 -0.0158  0.2427  0.5320
12527TIP3    H258997   0.967   3.907   5.403  0.6433  0.0034  2.0164
12528TIP3   OH258998   4.301   5.814  16.945 -0.1308 -0.5501 -0.4239
12528TIP3    H158999   4.391   5.795  16.972  0.7690  2.1859 -1.1340
12528TIP3    H259000   4.293   5.773  16.858  1.3451  1.2231 -1.4584
12529TIP3   OH259001   6.552   4.775  13.851  0.4958  1.3493 -0.6087
12529TIP3    H159002   6.488   4.781  13.922  1.4521  0.3902  0.3693
12529TIP3    H259003   6.501   4.790  13.771 -0.9448  0.5942  0.1409
12530TIP3   OH259004   0.070   0.141  14.874 -0.1714  0.1249 -0.1307
12530TIP3    H159005   0.086   0.118  14.783  0.9489  2.9033 -0.7503
12530TIP3    H259006   0.156   0.164  14.909 -0.6554 -0.3532  1.4740
12531TIP3   OH259007   4.572   0.978  14.457 -0.0056  0.2969 -0.1153
12531TIP3    H159008   4.572   0.923  14.379 -1.7827  0.3585 -0.2106
12531TIP3    H259009   4.614   1.060  14.429 -2.0517  0.9489 -1.5532
12532TIP3   OH259010   2.132   5.811  12.026  0.3505 -0.2460 -0.2281
12532TIP3    H159011   2.086   5.852  12.100 -0.1774  0.6486 -1.0293
12532TIP3    H259012   2.200   5.758  12.067 -1.1958 -1.3754  0.9957
12533TIP3   OH259013   5.399   4.784  15.383  0.2715  0.1161 -0.0982
12533TIP3    H159014   5.456   4.821  15.450  0.3708  1.0500 -0.6901
12533TIP3    H259015   5.378   4.857  15.325 -2.3005  0.0403  0.6221
12534TIP3   OH259016   1.577   2.311   0.916  0.3552 -0.6468 -0.5097
12534TIP3    H159017   1.595   2.219   0.895 -0.1767 -1.1069  0.8904
12534TIP3    H259018   1.509   2.337   0.854  1.5049 -0.7473 -1.8494
12535TIP3   OH259019   4.381   0.807   2.553  0.4399 -0.1213 -1.5012
12535TIP3    H159020   4.410   0.715   2.558 -0.9572 -0.5147  0.5262
12535TIP3    H259021   4.388   0.839   2.642  1.6342  2.0436 -2.3118
12536TIP3   OH259022   5.447   5.128   2.140  0.4872 -0.3167  0.6006
12536TIP3    H159023   5.352   5.115   2.133  0.4983 -1.0458  1.7097
12536TIP3    H259024   5.483   5.086   2.062 -0.0342 -0.7527  0.5954
12537TIP3   OH259025   4.182   1.648   6.282 -0.4550  0.1158  0.1067
12537TIP3    H159026   4.250   1.652   6.349 -2.3444 -0.5825  2.1799
12537TIP3    H259027   4.104   1.683   6.325 -1.6641 -0.0283 -1.8623
12538TIP3   OH259028   2.863   1.277  13.482  0.0633 -0.3819  0.1159
12538TIP3    H159029   2.806   1.311  13.413  1.5149 -0.3306 -1.1432
12538TIP3    H259030   2.872   1.184  13.462 -1.1512 -0.8139  1.4985
12539TIP3   OH259031   5.643   3.689  15.805  0.6759  0.0132  0.4880
12539TIP3    H159032   5.702   3.753  15.767  0.2864  0.0658 -0.0341
12539TIP3    H259033   5.682   3.604  15.783 -0.2823 -0.0129 -1.3132
12540TIP3   OH259034   4.962   0.003  12.056  0.0559 -0.1902  0.1234
12540TIP3    H159035   4.965   0.099  12.067 -0.6329 -0.2032  0.4988
12540TIP3    H259036   5.038  -0.029  12.104  0.8285  0.2285 -0.7938
12541TIP3   OH259037   5.403   1.331   5.022  0.8521 -0.5056  0.0551
12541TIP3    H159038   5.466   1.395   4.991  0.7320  0.0406  0.8930
12541TIP3    H259039   5.444   1.292   5.100  0.7965 -1.2312 -0.2697
12542TIP3   OH259040   4.341   0.779  14.456 -0.3164  0.2992  0.2948
12542TIP3    H159041   4.408   0.726  14.411  0.4851  1.1133  0.4952
12542TIP3    H259042   4.314   0.843  14.391 -1.0019 -0.1025  0.1784
12543TIP3   OH259043   4.545   4.154   5.138 -0.0488  0.2539 -0.0601
12543TIP3    H159044   4.470   4.132   5.193 -1.2148  1.4888 -1.0874
12543TIP3    H259045   4.589   4.070   5.122 -1.6095 -0.6166 -0.0052
12544TIP3   OH259046   5.688   6.063   2.330 -0.0266  0.6576 -0.1484
12544TIP3    H159047   5.770   6.069   2.281  0.9725  0.3325  1.3912
12544TIP3    H259048   5.620   6.054   2.263  1.1700  1.1001 -1.4714
12545TIP3   OH259049   2.542   5.297  11.737  0.1619  0.1520  0.1567
12545TIP3    H159050   2.526   5.204  11.727  1.4714 -0.0387 -0.3688
12545TIP3    H259051   2.584   5.305  11.823 -0.7675  0.3826  0.6014
12546TIP3   OH259052   5.068   2.927  14.946  0.6444 -0.1073  0.8345
12546TIP3    H159053   5.064   2.857  15.012  0.6157  1.1708  2.2291
12546TIP3    H259054   5.155   2.918  14.907 -0.1659 -2.3289 -0.6554
12547TIP3   OH259055   5.573   4.071   5.548 -0.6490  0.2107 -0.0052
12547TIP3    H159056   5.605   4.022   5.623 -1.0182  0.9343  0.6345
12547TIP3    H259057   5.631   4.148   5.543 -0.5726  0.1264 -0.5149
12548TIP3   OH259058   0.951   1.202  13.755 -0.0267 -0.5827  0.0129
12548TIP3    H159059   1.005   1.267  13.800 -0.1088 -0.9447  0.6461
12548TIP3    H259060   0.929   1.138  13.823 -0.7495 -0.7590 -0.3818
12549TIP3   OH259061   3.588   1.971  11.507  0.5316 -0.6414 -0.3396
12549TIP3    H159062   3.520   1.905  11.493  1.4546 -1.3004 -1.9687
12549TIP3    H259063   3.617   1.957  11.597  0.9976 -2.7612 -0.7710
12550TIP3   OH259064   5.481   0.662   3.093  0.0060  0.4371 -0.2471
12550TIP3    H159065   5.435   0.581   3.112 -0.6553  0.8077 -0.2643
12550TIP3    H259066   5.422   0.731   3.121  1.4600  0.9267  1.8373
12551TIP3   OH259067   5.410   4.355  11.687  0.0556 -0.0838 -0.2659
12551TIP3    H159068   5.351   4.431  11.688  0.9474  0.6983  2.8701
12551TIP3    H259069   5.352   4.280  11.694 -0.7192  0.6683  2.8045
12552TIP3   OH259070   2.978   0.787   4.598 -0.2037 -0.4723  0.1208
12552TIP3    H159071   2.893   0.744   4.593 -0.3241 -0.3599  1.0295
12552TIP3    H259072   2.970   0.848   4.671  1.0821 -1.4439  1.1329
12553TIP3   OH259073   1.414   6.306   2.995 -0.3073  0.1522 -0.0838
12553TIP3    H159074   1.376   6.272   3.076  0.6285 -3.1833 -0.8839
12553TIP3    H259075   1.359   6.270   2.925  0.7283  0.3221 -1.0158
12554TIP3   OH259076   4.559   3.051   4.484  0.0793 -0.7559  0.1106
12554TIP3    H159077   4.636   2.999   4.508  1.3622  1.6282  1.4887
12554TIP3    H259078   4.581   3.089   4.398 -0.0531 -0.9610 -0.0154
12555TIP3   OH259079   1.710   0.665  12.388 -0.1951  0.0564 -0.1073
12555TIP3    H159080   1.662   0.591  12.351  1.6675 -1.5289  0.4506
12555TIP3    H259081   1.668   0.681  12.472 -0.5521 -0.4690 -0.1782
12556TIP3   OH259082   5.014   2.840  11.496  0.1495 -0.5701 -0.1999
12556TIP3    H159083   5.088   2.779  11.495  0.7612  0.1557  0.0817
12556TIP3    H259084   4.998   2.859  11.404  2.1782  1.4599 -0.2120
12557TIP3   OH259085   2.134   6.356   1.987  0.5992 -0.2038  0.0830
12557TIP3    H159086   2.170   6.441   1.962 -1.0272 -0.1223 -2.3134
12557TIP3    H259087   2.210   6.301   2.003  1.7203  1.8684  2.6340
12558TIP3   OH259088   5.756   3.940   4.305 -0.0675 -0.5706  0.3665
12558TIP3    H159089   5.717   4.013   4.257 -0.7424 -0.3148  1.2963
12558TIP3    H259090   5.756   3.868   4.242  1.6574  0.4971 -0.9505
12559TIP3   OH259091   5.468   2.390  13.190  0.3680  0.5396 -0.6006
12559TIP3    H159092   5.467   2.469  13.244 -1.5289 -0.3779  0.7891
12559TIP3    H259093   5.387   2.394  13.140  0.5892 -0.2181 -1.0286
12560TIP3   OH259094   5.856   0.663   4.514 -0.0003 -0.1853 -0.1865
12560TIP3    H159095   5.821   0.576   4.533  0.6522 -0.4195 -0.0342
12560TIP3    H259096   5.891   0.657   4.426  1.9359 -0.7131  0.5606
12561TIP3   OH259097   1.247   4.099  12.021 -0.8839  0.0675  0.5137
12561TIP3    H159098   1.201   4.177  12.053  0.5511  1.2851 -0.2395
12561TIP3    H259099   1.288   4.128  11.939  0.3810 -1.2328  0.6516
12562TIP3   OH259100   2.210   4.003   0.777 -0.3004 -0.0522 -0.5451
12562TIP3    H159101   2.140   3.998   0.842 -1.6633 -0.9430 -2.0137
12562TIP3    H259102   2.239   4.094   0.780  0.7113 -0.3979  2.3103
12563TIP3   OH259103   2.500   0.586  11.958 -0.5494 -0.1567 -0.1062
12563TIP3    H159104   2.502   0.681  11.945  1.2019 -0.1749 -0.2632
12563TIP3    H259105   2.593   0.560  11.956 -0.7908 -1.5015  2.6268
12564TIP3   OH259106   4.088   2.114  13.531 -0.3290 -0.5012  0.1708
12564TIP3    H159107   4.167   2.160  13.504 -0.6284  0.0284  0.1734
12564TIP3    H259108   4.048   2.084  13.449 -0.9319  0.5928  0.0526
12565TIP3   OH259109   0.333   4.239  12.917 -0.1076  0.2762  0.2620
12565TIP3    H159110   0.293   4.177  12.855  1.3630 -0.5746  0.1133
12565TIP3    H259111   0.298   4.212  13.003 -0.7884  0.3390  0.0137
12566TIP3   OH259112   4.732   4.546  13.350 -0.1730 -0.7115 -0.0298
12566TIP3    H159113   4.733   4.491  13.272 -0.0104 -1.9383  0.8111
12566TIP3    H259114   4.709   4.634  13.318  2.0878 -0.6735 -1.7769
12567TIP3   OH259115   3.463   0.759  10.560 -0.1883 -0.3797 -0.4124
12567TIP3    H159116   3.552   0.777  10.590  0.1633 -0.1500 -1.5520
12567TIP3    H259117   3.454   0.809  10.479 -1.2467 -0.6626 -0.4893
12568TIP3   OH259118   5.514   5.378   5.179 -0.3261  0.1034 -0.3000
12568TIP3    H159119   5.438   5.368   5.122  0.1416  0.6442 -1.0495
12568TIP3    H259120   5.581   5.322   5.139  0.3065  1.2186 -0.8623
12569TIP3   OH259121   6.073   6.514  13.109  0.4142 -0.6458 -0.3856
12569TIP3    H159122   6.133   6.465  13.053 -0.8529 -0.6056 -1.8439
12569TIP3    H259123   6.026   6.572  13.049 -1.3481 -0.9553  0.6304
12570TIP3   OH259124   4.337   0.216   1.310  0.2128  0.3683 -0.0361
12570TIP3    H159125   4.322   0.276   1.237  3.2129 -0.6096 -1.6029
12570TIP3    H259126   4.249   0.192   1.339 -1.1140  3.9462 -0.5571
12571TIP3   OH259127   4.452   3.041  11.553  0.6782 -0.4714  0.1226
12571TIP3    H159128   4.466   2.948  11.568 -0.3769 -1.0963 -2.2622
12571TIP3    H259129   4.523   3.067  11.494 -0.1051 -0.2541 -0.7497
12572TIP3   OH259130   2.480   3.673  12.621 -0.2582 -0.3425  0.4553
12572TIP3    H159131   2.500   3.580  12.606 -1.5587 -0.9317  2.0733
12572TIP3    H259132   2.448   3.676  12.711 -2.9604  1.2047 -0.4504
12573TIP3   OH259133   3.097   4.089  11.882 -0.0089  0.9528  0.4319
12573TIP3    H159134   3.066   4.019  11.825  0.1090  0.4726  0.9473
12573TIP3    H259135   3.167   4.132  11.832  0.8729 -0.1834  0.6588
12574TIP3   OH259136   3.927   0.152   3.463 -0.5820 -0.3843  0.0270
12574TIP3    H159137   3.991   0.087   3.491  1.4162  1.1728 -0.6329
12574TIP3    H259138   3.932   0.151   3.367  0.1071  1.2331  0.0032
12575TIP3   OH259139   4.050   0.332  16.068 -0.2249 -0.9382  0.6682
12575TIP3    H159140   3.972   0.304  16.116 -0.8753 -0.5343 -0.1161
12575TIP3    H259141   4.043   0.427  16.065 -0.4013 -0.9665 -0.5109
12576TIP3   OH259142   3.173   1.144   0.466 -0.2306 -0.0479 -0.2778
12576TIP3    H159143   3.234   1.104   0.404 -0.4526 -0.6799 -0.0978
12576TIP3    H259144   3.131   1.214   0.417 -0.9976 -1.0567 -1.1124
12577TIP3   OH259145   6.601   3.836   2.433  0.5546 -0.1629 -0.6986
12577TIP3    H159146   6.623   3.866   2.345 -0.5401  1.2493 -0.5259
12577TIP3    H259147   6.686   3.811   2.472  1.0081 -1.2003 -2.2506
12578TIP3   OH259148   4.005   4.194  14.821  0.3777 -0.7514  0.7564
12578TIP3    H159149   4.075   4.254  14.795 -0.8631  0.6562  0.5560
12578TIP3    H259150   3.977   4.226  14.907  0.0624 -1.3979  0.9013
12579TIP3   OH259151   4.454   2.390  13.246 -0.4705  0.4969  0.5455
12579TIP3    H159152   4.383   2.374  13.308 -1.1716 -1.1127 -0.5716
12579TIP3    H259153   4.412   2.384  13.160  0.9292 -0.0614 -0.1398
12580TIP3   OH259154   5.685   2.681  15.763 -0.1818 -0.3675 -0.1794
12580TIP3    H159155   5.666   2.771  15.789  2.0798  0.5358 -1.4048
12580TIP3    H259156   5.774   2.665  15.794 -0.0641 -1.7351 -1.1167
12581TIP3   OH259157   4.664   0.848  10.933  0.7439  0.3869 -0.3884
12581TIP3    H159158   4.616   0.767  10.950  1.8322 -0.0878  0.5002
12581TIP3    H259159   4.602   0.918  10.955 -0.0392 -0.1965 -0.6963
12582TIP3   OH259160   6.676   2.423   2.244 -0.0713  0.5763  0.1445
12582TIP3    H159161   6.667   2.365   2.168  0.7035  0.1135  0.3985
12582TIP3    H259162   6.652   2.369   2.319  0.2101  0.7141  0.3359
12583TIP3   OH259163   5.817   0.736  14.597 -0.1012 -0.0011 -0.0527
12583TIP3    H159164   5.725   0.759  14.586 -0.2803  0.5225  2.1440
12583TIP3    H259165   5.865   0.814  14.567 -0.4027  0.1457 -0.1560
12584TIP3   OH259166   1.616   5.829   2.078  0.2555  0.5739 -0.6712
12584TIP3    H159167   1.639   5.812   2.169  2.4141 -2.3452 -1.6001
12584TIP3    H259168   1.547   5.766   2.058 -0.9716  1.9124 -0.8425
12585TIP3   OH259169   1.181   0.563   0.123  0.5136 -0.1196  0.3136
12585TIP3    H159170   1.270   0.526   0.126 -0.0274 -1.4945 -0.0206
12585TIP3    H259171   1.190   0.642   0.069  1.0777 -1.6551 -1.9792
12586TIP3   OH259172   4.000   0.911  13.630  0.5925 -0.3607 -0.4978
12586TIP3    H159173   4.059   0.877  13.697  0.0980 -1.5178 -0.6246
12586TIP3    H259174   3.919   0.932  13.677 -0.0287 -1.8960 -0.7970
12587TIP3   OH259175   1.490   2.556  14.279  0.4561 -0.3129 -0.0801
12587TIP3    H159176   1.401   2.584  14.301  0.9843  0.9534  0.6172
12587TIP3    H259177   1.496   2.465  14.308 -0.2545 -0.0393  0.9637
12588TIP3   OH259178   0.749   5.359   5.646 -0.3195  0.1688 -0.0205
12588TIP3    H159179   0.818   5.420   5.673 -0.4359  0.3434 -0.1103
12588TIP3    H259180   0.669   5.399   5.680 -0.3550 -0.1307  0.2485
12589TIP3   OH259181   0.973   0.333  15.170  0.2785 -0.6413 -0.3300
12589TIP3    H159182   1.051   0.297  15.212  1.7732  1.7364 -0.8657
12589TIP3    H259183   0.947   0.406  15.225 -2.7222 -2.3724  0.7818
12590TIP3   OH259184   6.681   1.794   3.707 -0.5020 -0.5446 -0.6817
12590TIP3    H159185   6.626   1.772   3.632 -0.8894 -2.1174  0.0359
12590TIP3    H259186   6.620   1.809   3.778 -0.0558 -1.3406 -0.1157
12591TIP3   OH259187   5.191   3.615  14.364  0.1718  0.2904 -0.1511
12591TIP3    H159188   5.273   3.603  14.412  1.4920  1.8634 -1.8213
12591TIP3    H259189   5.211   3.584  14.275 -1.2964  0.0005 -0.4072
12592TIP3   OH259190   2.352   0.496  10.428 -0.0667 -0.1018  0.3305
12592TIP3    H159191   2.417   0.562  10.453 -0.4482  0.2470  0.4009
12592TIP3    H259192   2.282   0.505  10.492 -0.2488 -0.3858  0.1722
12593TIP3   OH259193   1.692   0.373   1.832  0.0142  0.0147 -0.1647
12593TIP3    H159194   1.754   0.405   1.767  0.2698 -1.5321 -0.7332
12593TIP3    H259195   1.699   0.277   1.827 -1.1739 -0.1660  0.9682
12594TIP3   OH259196   5.308   6.028  11.935 -0.4615 -0.5077  0.3305
12594TIP3    H159197   5.384   6.084  11.944  0.0896 -1.2497  0.3862
12594TIP3    H259198   5.246   6.079  11.883 -0.5963  0.7509  1.6698
12595TIP3   OH259199   1.755   3.892  13.062 -0.4976  0.3644  0.0798
12595TIP3    H159200   1.763   3.940  12.979  0.6162  0.0659 -0.0072
12595TIP3    H259201   1.836   3.842  13.068 -0.4000  0.6752  1.5510
12596TIP3   OH259202   0.988   2.971  14.589 -0.4132 -0.6286  0.2616
12596TIP3    H159203   0.898   2.994  14.567  0.0988  2.5033  1.0390
12596TIP3    H259204   1.040   3.047  14.562  1.6434 -1.2632  2.1653
12597TIP3   OH259205   1.843   3.390  16.360  0.0346 -0.0553 -0.1294
12597TIP3    H159206   1.795   3.353  16.434 -0.0266 -1.4496 -0.8313
12597TIP3    H259207   1.899   3.318  16.329  0.3956  0.6369 -1.1482
12598TIP3   OH259208   3.474   0.881  10.331  0.1915 -0.4681  0.1362
12598TIP3    H159209   3.522   0.895  10.250 -2.0014  0.2784 -1.0843
12598TIP3    H259210   3.440   0.967  10.355 -1.6238 -1.1685  0.2347
12599TIP3   OH259211   2.354   1.467   1.247 -0.6951  0.2032 -0.3258
12599TIP3    H159212   2.395   1.492   1.164 -0.5322 -0.2667 -0.3866
12599TIP3    H259213   2.410   1.507   1.314 -1.9049  2.2746 -0.4458
12600TIP3   OH259214   0.543   4.465  15.786  0.4826 -0.4754 -0.5133
12600TIP3    H159215   0.637   4.477  15.771  0.2590  0.6516 -1.0969
12600TIP3    H259216   0.531   4.479  15.880  0.3988  3.1965 -0.9496
12601TIP3   OH259217   1.903   1.180  15.658 -0.0666 -0.1346 -0.1795
12601TIP3    H159218   1.873   1.139  15.738  0.8451 -0.6422 -0.0754
12601TIP3    H259219   1.866   1.268  15.660  0.3914  0.0491  1.0736
12602TIP3   OH259220   3.022   1.203  14.172  0.0815 -0.1534  0.0354
12602TIP3    H159221   2.973   1.121  14.172  0.5277 -0.4838  1.9615
12602TIP3    H259222   2.956   1.272  14.174 -0.4082 -0.5914  2.7010
12603TIP3   OH259223   1.468   0.078   1.453 -0.1647  0.2909 -0.3408
12603TIP3    H159224   1.502   0.077   1.542  1.2169 -0.8684 -0.8418
12603TIP3    H259225   1.480   0.169   1.423  2.4878 -0.0333 -0.4451
12604TIP3   OH259226   0.088   3.784  14.304 -0.4994 -0.0781 -0.5748
12604TIP3    H159227   0.115   3.858  14.251 -1.8478  1.1963  0.4333
12604TIP3    H259228   0.103   3.812  14.395 -1.5074 -0.8107 -0.1610
12605TIP3   OH259229   3.737   2.533   1.511 -0.5358 -0.0376  0.0991
12605TIP3    H159230   3.775   2.595   1.574 -0.4798  0.4704 -0.4253
12605TIP3    H259231   3.724   2.453   1.561  1.3525 -0.2763  0.2837
12606TIP3   OH259232   6.770   3.464   4.853 -0.1236  0.5527 -0.3906
12606TIP3    H159233   6.798   3.549   4.817 -1.6698  2.3246  2.2201
12606TIP3    H259234   6.793   3.401   4.785  1.8855  2.9240 -2.1275
12607TIP3   OH259235   6.787   1.789   2.198 -0.1587  0.0307  0.0628
12607TIP3    H159236   6.815   1.716   2.254 -0.7003 -0.5977 -0.4642
12607TIP3    H259237   6.809   1.761   2.109 -0.5990  0.3981 -0.1654
12608TIP3   OH259238   4.264   4.376  12.846 -0.2965 -0.3460 -0.2064
12608TIP3    H159239   4.324   4.304  12.867  0.1820 -0.0575 -0.5447
12608TIP3    H259240   4.238   4.359  12.755  0.6026  0.4366 -0.6276
12609TIP3   OH259241   3.167   1.731   1.405 -0.1312  0.9418  0.7211
12609TIP3    H159242   3.225   1.657   1.391 -0.3685  0.9144 -0.1541
12609TIP3    H259243   3.225   1.807   1.412  0.0932  0.7181  1.3088
12610TIP3   OH259244   5.541   3.402   1.711 -0.3517  0.2919 -0.0949
12610TIP3    H159245   5.600   3.359   1.649 -1.6017 -1.3158 -0.2393
12610TIP3    H259246   5.541   3.344   1.787 -0.7806  0.9338  0.4035
12611TIP3   OH259247   6.039   1.550  15.152 -0.2064 -0.0819 -0.0652
12611TIP3    H159248   6.120   1.595  15.130  0.7485 -1.8719 -0.4285
12611TIP3    H259249   6.057   1.508  15.236 -0.4156 -1.2102 -0.5607
12612TIP3   OH259250   3.797   3.969  17.004 -0.2993 -0.4946 -0.3370
12612TIP3    H159251   3.834   3.882  16.985 -0.0738 -0.8577  1.5580
12612TIP3    H259252   3.790   3.971  17.100 -2.8333  0.5581 -0.4855
12613TIP3   OH259253   5.578   4.582  15.468  0.0693  0.2655  0.4255
12613TIP3    H159254   5.502   4.601  15.413  0.3897 -0.5203 -0.2995
12613TIP3    H259255   5.622   4.667  15.478  0.0302  0.4097 -0.5649
12614TIP3   OH259256   0.317   0.630   4.252 -0.5760 -0.0836  0.3350
12614TIP3    H159257   0.396   0.676   4.281 -1.1977  1.4312 -0.2592
12614TIP3    H259258   0.327   0.622   4.157 -0.5896 -0.9821  0.4024
12615TIP3   OH259259   2.839   2.800   5.262 -0.6682 -0.4783 -0.2704
12615TIP3    H159260   2.755   2.806   5.307 -1.6328 -1.2000 -1.8766
12615TIP3    H259261   2.841   2.878   5.206  1.5566  1.6937  2.5137
12616TIP3   OH259262   4.825   0.259   3.343  0.6087  0.0508  0.8610
12616TIP3    H159263   4.804   0.190   3.280 -1.3386  0.7093  0.7077
12616TIP3    H259264   4.921   0.264   3.343  0.7440  1.0718 -3.2209
12617TIP3   OH259265   1.516   1.274   0.607  0.0408 -0.0599 -0.5821
12617TIP3    H159266   1.550   1.305   0.690  0.1399  0.6582 -0.8793
12617TIP3    H259267   1.438   1.223   0.630  1.6820 -2.3867  0.1705
12618TIP3   OH259268   5.899   0.318   2.801 -0.2267  0.4585 -0.0589
12618TIP3    H159269   5.925   0.362   2.882 -1.6516 -0.8089  1.1492
12618TIP3    H259270   5.831   0.375   2.764  1.8709  2.1425 -1.5676
12619TIP3   OH259271   6.233   2.043  13.986 -0.5424  0.1714  0.4847
12619TIP3    H159272   6.142   2.067  14.000 -0.8883 -1.3610  1.0356
12619TIP3    H259273   6.272   2.045  14.073 -0.4897 -0.8748  0.4882
12620TIP3   OH259274   5.406   4.704  10.478 -0.0399  0.2146 -0.3400
12620TIP3    H159275   5.319   4.689  10.516 -0.7126  2.5709 -0.7710
12620TIP3    H259276   5.438   4.617  10.456 -3.0246 -0.6527 -1.7913
12621TIP3   OH259277   3.467   3.737   1.665  0.2267 -0.0970 -0.3363
12621TIP3    H159278   3.561   3.744   1.675  0.1446  0.2335  0.2359
12621TIP3    H259279   3.450   3.644   1.653  0.5164 -0.2984  0.7473
12622TIP3   OH259280   3.885   0.379   1.917 -0.0889 -0.0441 -0.0097
12622TIP3    H159281   3.822   0.451   1.908 -1.3569 -1.1697 -0.6589
12622TIP3    H259282   3.904   0.353   1.827  0.9166 -0.0689  0.2040
12623TIP3   OH259283   5.176   0.877   6.321  0.3341 -0.7048 -0.4395
12623TIP3    H159284   5.221   0.798   6.292 -0.4541 -1.2988 -0.1003
12623TIP3    H259285   5.118   0.899   6.248 -0.0912 -0.9611 -0.1826
12624TIP3   OH259286   4.122   5.358  12.421 -0.1970  0.2776 -0.6920
12624TIP3    H159287   4.162   5.396  12.342  0.9974  1.3296  0.3749
12624TIP3    H259288   4.073   5.431  12.460  1.9715  0.7864  1.2922
12625TIP3   OH259289   2.861   0.643  17.167  0.6833  0.1726  0.0106
12625TIP3    H159290   2.823   0.557  17.183 -0.6471  0.8764  0.7444
12625TIP3    H259291   2.900   0.668  17.251  2.2138 -0.2326 -0.5379
12626TIP3   OH259292   3.408   1.810   4.741 -0.8913  0.0523  0.0693
12626TIP3    H159293   3.380   1.901   4.753  0.2145  0.5910 -1.2310
12626TIP3    H259294   3.449   1.787   4.825 -0.5268  1.0183  0.1766
12627TIP3   OH259295   3.178   4.293  17.123  0.2452  0.0107 -0.0576
12627TIP3    H159296   3.239   4.351  17.170  0.5043 -1.5096  1.6129
12627TIP3    H259297   3.235   4.229  17.079 -0.0872 -0.4691  0.1967
12628TIP3   OH259298   5.784   5.106  13.651 -0.7650 -0.3249 -0.0804
12628TIP3    H159299   5.767   5.107  13.557 -1.4244 -0.3948  0.0336
12628TIP3    H259300   5.743   5.186  13.684  0.4910  0.3085 -0.0156
12629TIP3   OH259301   2.911   2.022  12.484  0.0192  0.0698 -0.2143
12629TIP3    H159302   2.855   2.098  12.501 -0.4751 -0.0897 -1.0678
12629TIP3    H259303   2.891   1.961  12.555 -0.0124  0.4964  0.1485
12630TIP3   OH259304   1.795   6.349   0.038 -0.3749  0.0880  0.0824
12630TIP3    H159305   1.761   6.431   0.002  1.6917  1.6891  1.5406
12630TIP3    H259306   1.746   6.281  -0.008 -0.2510  2.0273 -3.2669
12631TIP3   OH259307   5.442   2.141   1.541  0.0915  0.0050  0.2838
12631TIP3    H159308   5.401   2.160   1.457  0.9110 -1.0647 -0.3839
12631TIP3    H259309   5.531   2.114   1.519  0.4523  0.0985  1.5316
12632TIP3   OH259310   6.554   1.170   3.377  0.0712 -0.6827 -0.1050
12632TIP3    H159311   6.554   1.091   3.322 -0.0628 -0.8581  0.1437
12632TIP3    H259312   6.627   1.222   3.344 -0.0198 -0.7791 -0.4615
12633TIP3   OH259313   0.259   0.746   3.455 -0.5780  0.0942 -0.4168
12633TIP3    H159314   0.248   0.790   3.370 -1.6930 -2.7772 -1.8805
12633TIP3    H259315   0.335   0.690   3.443  0.4658  1.0879  1.2142
12634TIP3   OH259316   5.323   6.708   0.575 -0.2220  0.2083  0.8198
12634TIP3    H159317   5.365   6.718   0.660  0.8257 -1.3543  0.5227
12634TIP3    H259318   5.245   6.656   0.592 -0.0564 -0.0330  0.8419
12635TIP3   OH259319   2.337   3.102   4.437  0.6001 -0.1458  0.1456
12635TIP3    H159320   2.258   3.080   4.388  0.8841 -0.6491 -0.0933
12635TIP3    H259321   2.305   3.150   4.514  0.0308 -0.7186  0.2740
12636TIP3   OH259322   0.594   5.118  11.872  0.5133  0.3898  0.1585
12636TIP3    H159323   0.602   5.121  11.777  0.9743  2.4163  0.2037
12636TIP3    H259324   0.649   5.191  11.903  0.7774 -0.5296  2.0112
12637TIP3   OH259325   2.006   6.229   0.807  0.5409 -0.0369 -0.5519
12637TIP3    H159326   2.064   6.217   0.882  0.5041 -0.0470 -0.5245
12637TIP3    H259327   1.969   6.142   0.791  0.9048 -0.1308 -0.8774
12638TIP3   OH259328   2.269   1.970   5.163  1.1251 -0.3180  0.7596
12638TIP3    H159329   2.364   1.968   5.175  1.7210  1.2355 -2.5229
12638TIP3    H259330   2.248   1.886   5.122  1.5050  0.1266 -0.4122
12639TIP3   OH259331   4.114   2.830  15.915 -0.5680  0.0399  0.2363
12639TIP3    H159332   4.093   2.742  15.945 -2.4027  0.3585  0.0045
12639TIP3    H259333   4.134   2.820  15.822  2.8326 -0.6047  0.9119
12640TIP3   OH259334   0.168   5.342  16.673 -0.2687  1.0494  0.1058
12640TIP3    H159335   0.112   5.283  16.724  1.0202 -0.1573  0.1818
12640TIP3    H259336   0.130   5.341  16.586 -0.2908  0.0943  0.1119
12641TIP3   OH259337   1.009   0.048  13.100  0.0351 -0.2890 -0.1550
12641TIP3    H159338   1.105   0.049  13.093 -0.0452 -0.8342 -1.9915
12641TIP3    H259339   0.989   0.108  13.172  1.8047 -1.1727  1.1264
12642TIP3   OH259340   4.197   4.982   0.071 -0.4186 -0.0453 -0.2521
12642TIP3    H159341   4.241   4.908   0.112 -0.3279 -0.1219 -0.4873
12642TIP3    H259342   4.268   5.035   0.034 -0.2492  1.5403  2.1455
12643TIP3   OH259343   6.553   2.804   1.842 -0.0626 -0.3542  0.4976
12643TIP3    H159344   6.600   2.735   1.795 -0.7191 -0.0752 -0.6209
12643TIP3    H259345   6.617   2.842   1.901  0.3563 -1.8231  1.0271
12644TIP3   OH259346   2.546   2.009   5.054  0.8534  0.0798 -0.1186
12644TIP3    H159347   2.610   1.960   5.106  0.0019 -1.4442 -0.4296
12644TIP3    H259348   2.597   2.048   4.983  1.8373  1.1629  1.1310
12645TIP3   OH259349   5.317   1.065   1.025 -0.9065  0.1053 -0.3203
12645TIP3    H159350   5.307   0.976   0.992 -0.3939  0.4248 -1.3590
12645TIP3    H259351   5.346   1.116   0.950 -0.3489  0.9852  0.4648
12646TIP3   OH259352   3.574   1.492  11.642  0.2421  0.1466 -0.1973
12646TIP3    H159353   3.569   1.417  11.700  2.0493 -0.8965 -1.2895
12646TIP3    H259354   3.500   1.482  11.582 -0.7231  0.4016  0.9205
12647TIP3   OH259355   4.838   6.492  15.570 -0.1655  0.1296 -0.2690
12647TIP3    H159356   4.869   6.553  15.637  0.4747 -0.2548 -0.2077
12647TIP3    H259357   4.752   6.463  15.602 -0.7668  1.4754 -0.6180
12648TIP3   OH259358   6.034   3.748   3.564  0.4947 -1.3872 -0.2780
12648TIP3    H159359   5.986   3.776   3.485  0.6735 -0.4788 -0.0770
12648TIP3    H259360   6.124   3.735   3.534  0.9785  0.6670  0.0708
12649TIP3   OH259361   4.761   4.631   6.084 -0.3262  0.2109 -0.0444
12649TIP3    H159362   4.775   4.536   6.087  0.2243  0.2965  0.2756
12649TIP3    H259363   4.684   4.646   6.139 -1.0081 -0.1528 -0.8863
12650TIP3   OH259364   1.890   3.365  11.365 -0.3530 -0.0360 -0.2561
12650TIP3    H159365   1.883   3.382  11.271 -0.6784  1.1123 -0.0378
12650TIP3    H259366   1.888   3.451  11.405  0.8545 -0.4467  0.7537
12651TIP3   OH259367   4.557   0.708  11.295  0.2369 -0.8009 -0.6624
12651TIP3    H159368   4.633   0.702  11.353 -0.6016 -0.5517  0.4963
12651TIP3    H259369   4.525   0.798  11.307 -1.6611 -1.5983  0.7355
12652TIP3   OH259370   6.662   4.239   5.342  0.2495  0.1559 -0.0190
12652TIP3    H159371   6.713   4.190   5.278 -0.6087 -0.1618 -0.4886
12652TIP3    H259372   6.656   4.180   5.418  0.4355  0.1222 -0.0318
12653TIP3   OH259373   6.330   6.055  11.192 -0.2330 -0.7810 -0.2673
12653TIP3    H159374   6.389   6.006  11.249  0.6683  1.2910  0.6791
12653TIP3    H259375   6.384   6.082  11.118  0.2098  1.4561  0.7906
12654TIP3   OH259376   2.889   4.299   3.063 -0.1379  0.1969  0.2175
12654TIP3    H159377   2.964   4.292   3.121 -0.1981 -0.3207  0.2373
12654TIP3    H259378   2.903   4.382   3.016  1.3870 -0.7239 -1.0766
12655TIP3   OH259379   4.926   3.565   3.179 -0.2492  0.5950 -0.3283
12655TIP3    H159380   4.892   3.500   3.117  0.2470  1.1258 -1.1831
12655TIP3    H259381   4.931   3.519   3.262 -2.1557  0.2234 -0.3654
12656TIP3   OH259382   5.832   0.332  15.989  0.2059  0.3110  0.1379
12656TIP3    H159383   5.887   0.264  16.028  0.3415  0.6253  0.5064
12656TIP3    H259384   5.843   0.321  15.895 -0.1744 -0.5061  0.1812
12657TIP3   OH259385   1.360   1.806   2.711  0.4315  0.4805 -0.2470
12657TIP3    H159386   1.421   1.765   2.649  0.3158 -0.8627  0.4824
12657TIP3    H259387   1.406   1.805   2.794 -0.6348 -0.7959  0.3738
12658TIP3   OH259388   1.245   0.710   5.617 -0.6675  0.0288 -0.1778
12658TIP3    H159389   1.282   0.798   5.610 -0.5626 -0.0434 -0.5434
12658TIP3    H259390   1.229   0.683   5.527 -0.5556 -0.3894 -0.0737
12659TIP3   OH259391   4.872   1.985  17.241 -0.1394 -0.0938 -0.3086
12659TIP3    H159392   4.939   1.944  17.295  0.5417  0.3162 -0.8239
12659TIP3    H259393   4.793   1.982  17.295  0.9055  1.9697  1.5023
12660TIP3   OH259394   5.410   3.980   1.125  0.5030  0.3024 -0.1787
12660TIP3    H159395   5.484   3.936   1.082  1.2824  1.6186 -0.2382
12660TIP3    H259396   5.336   3.967   1.066  1.1068  0.4419 -0.9811
12661TIP3   OH259397   5.622   3.229   2.618 -0.7290 -0.6578  0.1000
12661TIP3    H159398   5.674   3.174   2.676 -0.2452  0.1037  0.4092
12661TIP3    H259399   5.654   3.208   2.530  1.4976  1.1424  0.3846
12662TIP3   OH259400   4.801   3.039  16.462  0.0960  0.6922  0.0589
12662TIP3    H159401   4.800   3.120  16.512 -3.9939  0.1328  1.2226
12662TIP3    H259402   4.714   3.034  16.421  0.8288 -2.2345 -1.4863
12663TIP3   OH259403   4.503   4.898  16.272 -0.2255 -0.2168 -0.0529
12663TIP3    H159404   4.508   4.940  16.186 -2.3129 -0.2011 -0.2238
12663TIP3    H259405   4.422   4.847  16.269 -0.0090 -0.7291  1.6836
12664TIP3   OH259406   5.209   5.294  14.177 -0.6632  0.1846  0.5735
12664TIP3    H159407   5.284   5.281  14.119 -1.5052 -0.1468 -0.4696
12664TIP3    H259408   5.207   5.215  14.232  0.2098  0.5570  1.1611
12665TIP3   OH259409   5.940   3.271   3.533 -0.1779 -0.1028 -0.8472
12665TIP3    H159410   5.981   3.334   3.474  1.4512  0.1381  0.4484
12665TIP3    H259411   5.935   3.317   3.617 -0.6872 -1.0721 -0.3252
12666TIP3   OH259412   4.823   1.360  12.873  0.2877 -0.1295  0.0961
12666TIP3    H159413   4.776   1.298  12.817  0.3202  0.5664 -0.7122
12666TIP3    H259414   4.796   1.446  12.843  1.0407  0.2711  0.5211
12667TIP3   OH259415   5.713   3.284   1.135  0.4476 -0.0388  0.3569
12667TIP3    H159416   5.785   3.307   1.075  1.1387 -0.0728  1.1578
12667TIP3    H259417   5.755   3.232   1.203 -0.5551 -1.0834  0.2042
12668TIP3   OH259418   1.342   3.607  15.289 -0.4531  0.3272  0.5685
12668TIP3    H159419   1.348   3.595  15.194  3.0639 -2.2500  0.9470
12668TIP3    H259420   1.305   3.695  15.299 -0.2085  1.0275 -3.1900
12669TIP3   OH259421   5.154   1.592  10.879 -0.1483  0.3851 -0.2401
12669TIP3    H159422   5.099   1.666  10.851  1.4273  1.1304 -1.5120
12669TIP3    H259423   5.187   1.554  10.798 -0.0602 -1.0793  0.4458
12670TIP3   OH259424   1.667   1.537  12.846  0.3052 -0.3647 -0.1095
12670TIP3    H159425   1.757   1.553  12.816 -0.4634  0.9769 -1.9171
12670TIP3    H259426   1.654   1.600  12.917  0.4839  0.1500 -0.5228
12671TIP3   OH259427   4.224   3.516  12.189 -0.1882  0.1166  0.0987
12671TIP3    H159428   4.218   3.420  12.196  0.0945  0.0121 -0.9169
12671TIP3    H259429   4.286   3.531  12.118  2.5098  1.1035  2.4565
12672TIP3   OH259430   4.257   1.035   2.694  0.7456  0.0177 -0.3024
12672TIP3    H159431   4.261   0.988   2.611  1.3360  0.6030 -0.6211
12672TIP3    H259432   4.170   1.017   2.728  0.3730  0.0435 -1.2108
12673TIP3   OH259433   6.333   0.860   4.703 -0.5393 -0.3635 -0.1327
12673TIP3    H159434   6.291   0.827   4.782 -1.8770  2.2276  0.3603
12673TIP3    H259435   6.278   0.827   4.631 -1.3673  0.1084  0.2761
12674TIP3   OH259436   5.699   4.674  12.066 -0.1540  0.9612 -0.5056
12674TIP3    H159437   5.781   4.709  12.101 -0.4141  0.0428  1.1667
12674TIP3    H259438   5.707   4.682  11.971  1.7324  1.1757 -0.3626
12675TIP3   OH259439   5.163   5.411  15.081  0.5700  0.1779  0.3614
12675TIP3    H159440   5.102   5.399  15.154 -1.0551 -1.8447 -1.2133
12675TIP3    H259441   5.222   5.336  15.087 -0.7802 -1.1017 -1.4389
12676TIP3   OH259442   1.197   0.842  16.780  0.2158  0.4142  0.0780
12676TIP3    H159443   1.243   0.918  16.817  1.2810 -1.3610  2.6404
12676TIP3    H259444   1.266   0.792  16.735  0.5195 -1.2276  2.2170
12677TIP3   OH259445   4.457   6.589  13.658  0.2108 -0.1426  0.3041
12677TIP3    H159446   4.425   6.504  13.628 -1.4315  0.2441  0.8147
12677TIP3    H259447   4.435   6.590  13.752 -2.0879  1.7782 -0.1760
12678TIP3   OH259448   4.101   6.340  11.674  0.0222 -0.1790  0.4718
12678TIP3    H159449   4.174   6.278  11.679  0.6537  0.6085  1.4641
12678TIP3    H259450   4.085   6.350  11.581  3.2578  1.9216 -0.0407
12679TIP3   OH259451   0.176   5.634  12.172  0.1155  0.0488  0.4146
12679TIP3    H159452   0.084   5.635  12.198 -0.2911  2.0528 -0.9093
12679TIP3    H259453   0.224   5.641  12.255 -0.9160 -0.3978  1.0692
12680TIP3   OH259454   4.858   6.598   3.470  0.0425  0.3865  0.4861
12680TIP3    H159455   4.815   6.599   3.556 -0.7702  1.2420  0.0794
12680TIP3    H259456   4.880   6.690   3.454 -2.0511  0.6514 -1.3095
12681TIP3   OH259457   1.903   2.044   2.768  0.1235  0.1414 -0.9728
12681TIP3    H159458   1.957   1.997   2.705  1.1299 -0.1649  0.0907
12681TIP3    H259459   1.815   2.006   2.758  0.6019 -0.9448 -1.1404
12682TIP3   OH259460   6.071   2.915   0.906  0.6440 -0.2143  0.3201
12682TIP3    H159461   6.133   2.847   0.934  1.8426  0.6061 -0.2664
12682TIP3    H259462   6.091   2.928   0.813 -1.6082 -1.1547 -0.3765
12683TIP3   OH259463   4.643   3.674   3.715  0.3862 -0.7384 -0.2263
12683TIP3    H159464   4.633   3.761   3.677  0.0504 -0.3034  0.8080
12683TIP3    H259465   4.592   3.617   3.659  0.8931 -0.3355 -1.1239
12684TIP3   OH259466   2.303   1.758  17.248 -0.1677 -0.5180 -0.0057
12684TIP3    H159467   2.282   1.852  17.247 -0.6868 -0.6021  1.2482
12684TIP3    H259468   2.218   1.715  17.235  0.0437 -0.8246 -0.3884
12685TIP3   OH259469   5.080   5.649  13.656  0.6613 -0.1910 -0.4492
12685TIP3    H159470   5.046   5.574  13.705  0.6290 -0.5919 -1.0829
12685TIP3    H259471   5.056   5.725  13.710 -0.2771 -0.5449 -0.3430
12686TIP3   OH259472   0.195   6.691  10.888 -0.4152 -0.7333  0.3062
12686TIP3    H159473   0.285   6.663  10.902  0.2502  1.3190  0.4803
12686TIP3    H259474   0.161   6.631  10.822  0.4101 -2.7798  1.6276
12687TIP3   OH259475   0.684   3.191  12.915 -0.2550  0.3326 -0.5957
12687TIP3    H159476   0.736   3.254  12.867  0.0308  0.9344  0.4751
12687TIP3    H259477   0.642   3.241  12.985 -0.4280 -0.5589 -0.0326
12688TIP3   OH259478   4.406   1.780   4.158 -0.6787  0.0028  0.1098
12688TIP3    H159479   4.399   1.685   4.165 -0.8424 -0.0111 -0.2381
12688TIP3    H259480   4.324   1.813   4.195  0.3681  0.1143  2.4927
12689TIP3   OH259481   5.999   4.114   0.379  0.4938  0.5087  0.2239
12689TIP3    H159482   6.043   4.188   0.338 -1.3660  1.0615 -0.8505
12689TIP3    H259483   5.943   4.152   0.446 -1.5827  0.2766 -1.3060
12690TIP3   OH259484   0.848   6.201  14.452  0.2164  0.1927  0.5065
12690TIP3    H159485   0.795   6.277  14.476  0.0649  0.4096 -0.4864
12690TIP3    H259486   0.867   6.213  14.359 -1.2760 -1.8214 -0.1465
12691TIP3   OH259487   1.248   6.333   1.447  0.5601  0.9444 -0.4504
12691TIP3    H159488   1.191   6.406   1.469 -0.4596  0.5766 -1.7605
12691TIP3    H259489   1.199   6.255   1.474  0.4965  0.6272 -1.4456
12692TIP3   OH259490   5.777   0.883   1.798 -0.5295  0.0997  0.0395
12692TIP3    H159491   5.820   0.958   1.757  1.5611 -0.2411  1.4718
12692TIP3    H259492   5.778   0.815   1.730 -2.5849  1.3158 -1.3250
12693TIP3   OH259493   1.464   4.663   1.661 -0.1327 -0.1901  0.1590
12693TIP3    H159494   1.391   4.704   1.708 -1.0369 -2.5030  0.9207
12693TIP3    H259495   1.535   4.658   1.725 -0.3241 -0.5776  0.3450
12694TIP3   OH259496   2.224   4.766  11.255  0.1474 -0.4804  0.0711
12694TIP3    H159497   2.289   4.784  11.187  0.6187  1.0909  0.8664
12694TIP3    H259498   2.186   4.852  11.275 -1.6964 -1.2600  0.1182
12695TIP3   OH259499   6.137   5.587  16.206  0.1925  0.5561  0.2690
12695TIP3    H159500   6.091   5.509  16.174  0.1730 -0.4199  2.4711
12695TIP3    H259501   6.209   5.552  16.259  2.3476  2.0621 -1.4893
12696TIP3   OH259502   4.377   2.831   3.598 -0.3701 -0.5654 -0.1487
12696TIP3    H159503   4.428   2.826   3.679  0.4833  1.2344 -0.5145
12696TIP3    H259504   4.396   2.918   3.564 -0.1497 -1.5116 -2.6535
12697TIP3   OH259505   6.597   5.261  12.560  0.0285 -0.1531 -0.2443
12697TIP3    H159506   6.584   5.355  12.576 -2.2269 -0.5716  0.7308
12697TIP3    H259507   6.555   5.245  12.476 -0.7033 -0.4849  0.1733
12698TIP3   OH259508   0.791   5.681   3.179  0.1626  0.7345  0.1409
12698TIP3    H159509   0.886   5.673   3.187  0.2457  1.1317 -0.3663
12698TIP3    H259510   0.756   5.605   3.226  0.7355  0.4847  0.1700
12699TIP3   OH259511   1.840   1.898  16.780 -0.1165  0.5235  0.1787
12699TIP3    H159512   1.778   1.836  16.817  2.0077 -2.0405 -0.2803
12699TIP3    H259513   1.878   1.942  16.856  0.3329 -0.7927  0.7426
12700TIP3   OH259514   1.894   4.032   2.824 -0.2292  0.1400  0.2536
12700TIP3    H159515   1.846   4.103   2.781  1.7373  1.2990 -0.1751
12700TIP3    H259516   1.826   3.978   2.864 -1.8397  2.3477  0.7403
12701TIP3   OH259517   2.771   2.885  12.778  0.4740 -0.1508 -0.4148
12701TIP3    H159518   2.841   2.912  12.718 -0.8971 -0.2952 -2.1572
12701TIP3    H259519   2.777   2.789  12.780  0.8878 -0.1179  0.1687
12702TIP3   OH259520   6.020   1.379   2.392  0.0910 -0.1459  0.2200
12702TIP3    H159521   5.937   1.369   2.438 -0.7421  0.1622 -1.1529
12702TIP3    H259522   6.087   1.358   2.458 -1.0036  0.7985  1.6843
12703TIP3   OH259523   5.814   3.733   2.852 -0.0898 -0.1755  0.3155
12703TIP3    H159524   5.770   3.648   2.860  0.6117 -0.5325  0.5596
12703TIP3    H259525   5.794   3.779   2.934  0.0919 -0.3923  0.4855
12704TIP3   OH259526   3.460   6.196  15.028  0.0646 -0.0707  0.2477
12704TIP3    H159527   3.418   6.179  14.943  0.8543  2.3266 -0.7215
12704TIP3    H259528   3.440   6.119  15.081 -1.7994 -0.9498 -1.5943
12705TIP3   OH259529   0.914   3.601  13.899 -0.1583 -0.3051 -0.1832
12705TIP3    H159530   0.940   3.513  13.873 -0.7381 -0.2104 -1.1390
12705TIP3    H259531   0.877   3.640  13.820 -0.4733  0.5844  0.3786
12706TIP3   OH259532   3.538   5.573  16.646  0.0831 -0.1707  0.4749
12706TIP3    H159533   3.507   5.646  16.592 -0.7276 -0.4399  0.5504
12706TIP3    H259534   3.510   5.596  16.735  0.1497 -0.3956  0.5546
12707TIP3   OH259535   2.738   5.013  14.800  0.5080  0.7940 -0.3773
12707TIP3    H159536   2.736   4.917  14.794 -0.9699  0.8049 -0.4267
12707TIP3    H259537   2.648   5.040  14.781  0.7456  2.1553  0.3225
12708TIP3   OH259538   5.258   0.219  16.052 -0.3612  0.4715  0.2980
12708TIP3    H159539   5.322   0.290  16.050  0.7723 -0.5221  0.2700
12708TIP3    H259540   5.293   0.156  16.116 -1.3340 -0.0788  0.3235
12709TIP3   OH259541   2.361   2.931   5.793 -0.6046  0.3519 -0.0306
12709TIP3    H159542   2.301   2.874   5.840  0.3098  0.4604  1.3102
12709TIP3    H259543   2.344   3.018   5.828 -0.0636  0.4701 -0.0491
12710TIP3   OH259544   0.731   4.010  12.432 -0.0493 -0.1327  0.3486
12710TIP3    H159545   0.823   3.999  12.411  0.7261  2.8187  1.6281
12710TIP3    H259546   0.717   4.105  12.430 -2.4337 -0.3079  2.5362
12711TIP3   OH259547   4.702   2.801  11.501  0.1467  0.4348  0.7104
12711TIP3    H159548   4.797   2.802  11.517  0.3385 -0.4996 -0.2562
12711TIP3    H259549   4.688   2.869  11.435  0.3606 -0.3398 -0.1552
12712TIP3   OH259550   1.590   2.735  16.533 -0.3531  0.2083  0.3049
12712TIP3    H159551   1.581   2.791  16.457  0.4719  1.8565  1.3547
12712TIP3    H259552   1.680   2.747  16.561 -0.2074 -1.5254  0.6936
12713TIP3   OH259553   0.144   6.222  16.659 -0.2480 -0.8816 -0.4968
12713TIP3    H159554   0.199   6.158  16.614  0.8385 -1.2302  1.2141
12713TIP3    H259555   0.135   6.294  16.597  1.1398 -1.3511 -1.2974
12714TIP3   OH259556   3.965   1.031   2.679  0.3176 -0.2293  0.1265
12714TIP3    H159557   3.898   1.043   2.746  1.3820 -1.2145  1.4171
12714TIP3    H259558   3.953   1.105   2.619 -1.6987 -0.2153  0.4823
12715TIP3   OH259559   0.825   0.852  11.182  0.1255  0.4621  0.5921
12715TIP3    H159560   0.731   0.866  11.195 -0.7780 -1.5816 -2.7685
12715TIP3    H259561   0.859   0.840  11.271 -2.7978  0.9588  1.9147
12716TIP3   OH259562   2.805   1.653   5.043  0.1610 -0.2227 -0.6756
12716TIP3    H159563   2.853   1.736   5.046 -0.3570  0.0759 -0.4655
12716TIP3    H259564   2.716   1.676   5.072 -0.1378 -0.7440 -1.1615
12717TIP3   OH259565   2.761   3.946  15.684 -0.3022  0.2764  0.3452
12717TIP3    H159566   2.720   4.032  15.694  1.4712  1.2554 -0.4133
12717TIP3    H259567   2.736   3.918  15.596 -2.2626 -0.8209  1.1709
12718TIP3   OH259568   4.940   4.838   0.665  0.0829 -0.1854 -0.1825
12718TIP3    H159569   4.896   4.908   0.714 -0.2073 -1.1999  1.0456
12718TIP3    H259570   4.870   4.794   0.618 -0.2719 -1.6673  1.6080
12719TIP3   OH259571   4.435   6.134   1.084  0.3780  0.3149 -0.0253
12719TIP3    H159572   4.342   6.144   1.066  0.3448 -0.1742 -0.1371
12719TIP3    H259573   4.463   6.061   1.028  0.9566  0.8409 -0.4388
12720TIP3   OH259574   0.985   6.290  16.114  0.0343  0.4226 -1.0542
12720TIP3    H159575   0.962   6.202  16.143 -0.9438  0.8187 -0.5883
12720TIP3    H259576   1.074   6.304  16.148 -0.2121  0.0081 -0.2150
12721TIP3   OH259577   3.285   5.839  13.993  0.2041 -0.5035 -0.2893
12721TIP3    H159578   3.258   5.852  14.084 -0.4955 -1.6623 -0.3064
12721TIP3    H259579   3.355   5.903  13.979 -1.0622  1.1332  0.4326
12722TIP3   OH259580   0.378   5.478  12.963  0.5850  0.0396 -0.0059
12722TIP3    H159581   0.313   5.430  12.911 -2.2703  2.8513  0.6218
12722TIP3    H259582   0.439   5.512  12.897 -0.3047 -0.2764 -1.0428
12723TIP3   OH259583   4.254   0.535   0.483 -0.5841 -0.0246  0.4131
12723TIP3    H159584   4.336   0.491   0.459  0.0536  0.3432  1.8037
12723TIP3    H259585   4.243   0.604   0.418 -0.3303 -0.7137 -0.3763
12724TIP3   OH259586   3.996   0.063  10.892 -0.0415 -0.2495  0.7723
12724TIP3    H159587   3.908   0.096  10.909  0.0408  0.1979  0.3634
12724TIP3    H259588   4.010   0.079  10.798  0.2934 -0.7559  0.7298
12725TIP3   OH259589   5.617   5.307   2.893  0.4052 -0.3128  0.1626
12725TIP3    H159590   5.526   5.320   2.917  0.1584  1.5546 -1.5349
12725TIP3    H259591   5.628   5.211   2.891 -1.2969 -0.5558  1.0618
12726TIP3   OH259592   5.614   1.303  11.852  0.6868 -0.0553 -0.2253
12726TIP3    H159593   5.591   1.237  11.787  0.7295 -0.2488 -0.0463
12726TIP3    H259594   5.702   1.278  11.881  1.1554  0.7002 -0.9391
12727TIP3   OH259595   6.577   1.524   5.375 -0.0978  0.0461  0.6524
12727TIP3    H159596   6.499   1.518   5.430 -0.2494  1.6887  0.6858
12727TIP3    H259597   6.562   1.602   5.321  1.7036  0.6885  0.9940
12728TIP3   OH259598   5.293   6.582   5.069 -0.3167 -0.0995 -0.0578
12728TIP3    H159599   5.212   6.630   5.087  0.0540  0.2029  0.8759
12728TIP3    H259600   5.359   6.650   5.054 -0.2028 -0.3426 -0.6880
12729TIP3   OH259601   6.225   3.544  13.548  0.3546  0.0178 -0.5182
12729TIP3    H159602   6.146   3.490  13.556  0.5986 -0.1264  1.6482
12729TIP3    H259603   6.199   3.616  13.492 -1.3872  0.0276  0.2292
12730TIP3   OH259604   1.185   2.355   0.991  0.2963  0.5571 -0.0600
12730TIP3    H159605   1.103   2.316   0.958 -0.2034  2.6301 -1.4384
12730TIP3    H259606   1.213   2.414   0.921  1.6601  1.7502  1.4297
12731TIP3   OH259607   3.904   4.654   1.709  0.4407 -0.3422 -0.3065
12731TIP3    H159608   3.856   4.571   1.716  0.9197 -0.7981 -1.8798
12731TIP3    H259609   3.966   4.652   1.782  0.6398 -1.5166 -0.4842
12732TIP3   OH259610   5.052   5.902  16.358  0.5914  0.7444 -0.2070
12732TIP3    H159611   5.000   5.980  16.343 -0.8000  0.4445  2.5488
12732TIP3    H259612   5.129   5.933  16.406  1.3933  0.7263 -1.4261
12733TIP3   OH259613   3.255   3.885  14.507 -0.8273 -0.0155  0.2076
12733TIP3    H159614   3.243   3.814  14.571 -0.2524 -1.0269 -0.7859
12733TIP3    H259615   3.287   3.841  14.428  0.3377  1.4566 -0.1737
12734TIP3   OH259616   6.099   2.548   2.294  0.6591 -0.4636  0.1596
12734TIP3    H159617   6.125   2.635   2.324  0.3205 -1.3124  3.1707
12734TIP3    H259618   6.004   2.555   2.279  0.7868 -0.0982 -0.5027
12735TIP3   OH259619   2.539   5.010   3.364  0.0715  0.1783  0.0230
12735TIP3    H159620   2.520   5.051   3.280 -2.0723 -1.5085 -0.3764
12735TIP3    H259621   2.454   4.983   3.398  1.0528 -0.6664  1.9782
12736TIP3   OH259622   1.372   3.688   6.859 -0.3334  0.5294 -0.2079
12736TIP3    H159623   1.379   3.666   6.766 -0.7389  4.0676 -1.2029
12736TIP3    H259624   1.278   3.697   6.874 -0.3006 -0.4385  0.7338
12737TIP3   OH259625   4.581   1.955  11.357 -0.4696  0.3880 -0.0715
12737TIP3    H159626   4.552   1.998  11.277 -0.8978 -0.3913 -0.3395
12737TIP3    H259627   4.561   1.862  11.344  1.1779 -0.0302  0.1667
12738TIP3   OH259628   5.452   3.396  13.006 -0.0774  0.2167  0.1913
12738TIP3    H159629   5.452   3.481  13.051 -1.1919  0.1969  0.2533
12738TIP3    H259630   5.452   3.332  13.076 -0.5775  0.1756  0.1535
12739TIP3   OH259631   6.499   0.407   0.853 -0.0969 -0.4815  0.0280
12739TIP3    H159632   6.415   0.378   0.888 -1.9927  3.1614 -1.0022
12739TIP3    H259633   6.503   0.373   0.764 -0.3157 -0.9470  0.1984
12740TIP3   OH259634   5.457   6.130  14.859 -0.5182  0.2015 -0.2358
12740TIP3    H159635   5.417   6.124  14.771 -1.9775  0.4676  0.3712
12740TIP3    H259636   5.382   6.136  14.918  0.4566  0.8397  0.9783
12741TIP3   OH259637   2.744   4.084   0.805 -0.2930 -0.3933  0.0643
12741TIP3    H159638   2.753   3.996   0.841 -0.3259  0.0489  1.1697
12741TIP3    H259639   2.715   4.138   0.878 -0.0535  0.5908 -0.5457
12742TIP3   OH259640   1.516   4.021   4.811  0.5888  0.4009  0.1798
12742TIP3    H159641   1.551   4.107   4.831 -0.9985  1.5820 -1.7636
12742TIP3    H259642   1.571   3.988   4.740  0.1004  0.6089 -0.2993
12743TIP3   OH259643   5.015   6.186   0.636  0.0446 -0.0183 -0.3226
12743TIP3    H159644   4.984   6.203   0.725  2.3082  2.0404  0.1839
12743TIP3    H259645   5.042   6.272   0.604 -0.3715 -0.7836 -2.8941
12744TIP3   OH259646   6.308   6.293   1.145  0.0349  0.5263 -0.1128
12744TIP3    H159647   6.392   6.328   1.116  1.3760 -1.2368  1.3847
12744TIP3    H259648   6.329   6.210   1.187 -2.4779 -0.0036  0.3125
12745TIP3   OH259649   0.185   3.340   5.353 -0.2280  0.4604 -0.4801
12745TIP3    H159650   0.164   3.267   5.411 -1.9283  1.2083 -0.1209
12745TIP3    H259651   0.127   3.329   5.278  2.3858 -0.8735 -2.4878
12746TIP3   OH259652   5.118   3.488   5.625 -0.4142  0.4633 -0.0366
12746TIP3    H159653   5.047   3.427   5.648  0.3435 -0.8824 -1.0984
12746TIP3    H259654   5.122   3.549   5.699 -0.8499 -1.1135  1.3653
12747TIP3   OH259655   1.910   2.436   0.914 -0.4920 -0.0601  0.0352
12747TIP3    H159656   1.848   2.395   0.974 -0.2884  0.5383  0.6628
12747TIP3    H259657   1.858   2.500   0.865 -0.9042 -1.3315 -1.2511
12748TIP3   OH259658   1.104   5.273   4.111  0.7036 -0.1022  0.0251
12748TIP3    H159659   1.032   5.219   4.079  0.5422 -0.3795  0.8496
12748TIP3    H259660   1.161   5.283   4.035  0.3946 -0.8700 -0.3223
12749TIP3   OH259661   4.336   3.873   1.039  0.1677  0.2725 -0.2156
12749TIP3    H159662   4.277   3.872   1.114  2.6361  5.0188  2.2207
12749TIP3    H259663   4.403   3.808   1.061 -0.5885 -0.3587  0.2786
12750TIP3   OH259664   4.638   4.683   5.773  0.3291 -0.4711 -0.3624
12750TIP3    H159665   4.581   4.725   5.838 -0.3491  0.6768 -1.6474
12750TIP3    H259666   4.708   4.644   5.824  0.1400  0.9101  1.0152
12751TIP3   OH259667   2.171   3.664  12.695  0.4742 -0.1288  0.4788
12751TIP3    H159668   2.243   3.704  12.745  0.4582  0.2107  0.2326
12751TIP3    H259669   2.201   3.574  12.677  0.2427 -0.4388  1.5737
12752TIP3   OH259670   5.369   3.353   2.524 -0.1085  0.3959 -0.5058
12752TIP3    H159671   5.417   3.339   2.443 -1.1708 -1.4926 -0.8789
12752TIP3    H259672   5.426   3.318   2.592  0.0648  0.3819 -0.6586
12753TIP3   OH259673   1.940   1.083  16.341 -0.2763 -0.6526  0.3899
12753TIP3    H159674   1.988   1.031  16.277  0.3684  2.3655 -1.7639
12753TIP3    H259675   1.999   1.090  16.416  0.7692 -0.7159 -0.4122
12754TIP3   OH259676   0.767   2.303   1.240 -0.2704 -0.2708  0.1461
12754TIP3    H159677   0.676   2.280   1.223 -0.5572  1.8072 -1.5657
12754TIP3    H259678   0.762   2.386   1.289  0.7239 -0.7556  1.1168
12755TIP3   OH259679   1.460   1.880   0.514  0.4286  0.4563  0.1059
12755TIP3    H159680   1.445   1.786   0.503 -2.1605  0.8791 -0.4339
12755TIP3    H259681   1.501   1.907   0.431  2.4425 -0.3717  0.7763
12756TIP3   OH259682   4.600   5.544   1.401 -0.3912  0.0594  0.1757
12756TIP3    H159683   4.689   5.555   1.434 -0.3761 -0.9569  0.5192
12756TIP3    H259684   4.594   5.451   1.380 -1.0088  0.3300 -0.9320
12757TIP3   OH259685   3.002   1.171  13.860  0.2660 -0.4243  0.0408
12757TIP3    H159686   3.087   1.140  13.830  0.3927 -2.2786  2.0808
12757TIP3    H259687   3.006   1.166  13.955 -1.2682  1.9469  0.3352
12758TIP3   OH259688   4.523   5.128   5.438 -0.1378 -0.2414  0.6303
12758TIP3    H159689   4.508   5.206   5.385 -0.6895  0.4038  1.6955
12758TIP3    H259690   4.464   5.062   5.402  2.5073 -1.2606 -2.3187
12759TIP3   OH259691   0.808   6.578   1.065 -0.0066  0.0793 -0.2365
12759TIP3    H159692   0.856   6.527   1.131 -0.2520 -0.1818 -0.2601
12759TIP3    H259693   0.840   6.545   0.981  0.7934  0.8698 -0.2524
12760TIP3   OH259694   0.296   4.874  13.045  0.0486 -0.0469 -0.4218
12760TIP3    H159695   0.298   4.859  12.950 -0.2272 -1.2827 -0.2520
12760TIP3    H259696   0.206   4.903  13.062  0.0239 -0.0699 -0.5073
12761TIP3   OH259697   6.273   0.150  11.062  0.1083  0.0021 -0.2789
12761TIP3    H159698   6.179   0.166  11.059  0.4711  2.9631  0.7353
12761TIP3    H259699   6.309   0.206  10.993  1.2544  0.6732  0.8174
12762TIP3   OH259700   3.597   0.513  11.283 -0.0295 -0.3301  0.5268
12762TIP3    H159701   3.643   0.497  11.201  1.8107  3.1425  0.7133
12762TIP3    H259702   3.665   0.507  11.350 -0.3624  1.8871  1.1473
12763TIP3   OH259703   5.731   2.098  10.535  0.0640 -0.4615  0.8922
12763TIP3    H159704   5.640   2.073  10.521  0.7241 -1.8770 -1.4490
12763TIP3    H259705   5.727   2.187  10.570 -2.2170  0.5133 -1.5469
12764TIP3   OH259706   1.737   2.552  16.147  0.9865 -0.0776 -0.7187
12764TIP3    H159707   1.747   2.508  16.231  1.2438  1.9429  0.3745
12764TIP3    H259708   1.656   2.602  16.156  1.4536  0.8144 -1.3459
12765TIP3   OH259709   0.461   1.635  16.217 -0.4244  0.1074  0.2713
12765TIP3    H159710   0.500   1.562  16.169  0.9746  0.8197  0.3031
12765TIP3    H259711   0.535   1.688  16.246 -1.3523  0.8771  1.3374
12766TIP3   OH259712   3.886   1.573  13.269 -0.1735 -0.0997 -0.2063
12766TIP3    H159713   3.875   1.644  13.332 -0.4416 -0.3140 -0.0103
12766TIP3    H259714   3.842   1.498  13.308 -0.4324 -0.2087 -0.6931
12767TIP3   OH259715   4.905   6.317   0.848 -0.1259 -0.0966 -0.2674
12767TIP3    H159716   4.810   6.304   0.839 -0.1331  0.8820 -1.9344
12767TIP3    H259717   4.913   6.409   0.872  0.4426  0.1429 -1.3348
12768TIP3   OH259718   5.599   1.467  12.069 -0.1610 -0.4257 -0.3206
12768TIP3    H159719   5.606   1.427  11.982 -1.5544  0.1999 -0.7398
12768TIP3    H259720   5.511   1.505  12.072  0.1329  0.2291  1.0860
12769TIP3   OH259721   5.888   1.279   2.630 -0.4324 -0.3966 -0.0512
12769TIP3    H159722   5.917   1.352   2.685  0.9893 -0.7381 -0.3082
12769TIP3    H259723   5.902   1.201   2.684  0.4368 -0.6825 -0.6622
12770TIP3   OH259724   5.276   3.595   0.392 -0.3178  0.8447 -0.3431
12770TIP3    H159725   5.207   3.621   0.453 -0.6663  2.2708 -1.2870
12770TIP3    H259726   5.350   3.652   0.415 -0.1041  0.6641 -0.5733
12771TIP3   OH259727   5.933   5.175   2.154  0.1108 -0.4620 -0.6091
12771TIP3    H159728   5.965   5.189   2.243 -1.0470 -1.3215 -0.0335
12771TIP3    H259729   5.930   5.080   2.144 -1.0716 -0.3946 -1.0664
12772TIP3   OH259730   2.120   2.605  10.859  0.1628 -0.1814  0.2588
12772TIP3    H159731   2.198   2.610  10.914  0.4313  1.9703 -0.2283
12772TIP3    H259732   2.139   2.533  10.798  1.8505  0.3879  0.0549
12773TIP3   OH259733   0.262   3.831  17.159 -0.5058 -0.5657 -0.0971
12773TIP3    H159734   0.326   3.900  17.177 -0.2850 -0.4717 -1.1555
12773TIP3    H259735   0.285   3.761  17.220  0.9334 -0.7273 -0.7654
12774TIP3   OH259736   3.762   0.427  11.057  0.5421 -0.1903  0.6134
12774TIP3    H159737   3.750   0.393  10.969  0.8391  0.1057  0.4580
12774TIP3    H259738   3.853   0.407  11.078  0.2039 -1.1748  1.2483
12775TIP3   OH259739   3.523   5.908  11.659  0.3535  0.2946  0.0068
12775TIP3    H159740   3.555   5.895  11.569 -0.6845 -0.8645 -0.2210
12775TIP3    H259741   3.551   5.829  11.705  2.6629  1.7373  1.2985
12776TIP3   OH259742   5.424   3.783   1.499  0.1518 -0.7089  0.3481
12776TIP3    H159743   5.367   3.766   1.424  1.1834 -2.0017 -0.1927
12776TIP3    H259744   5.471   3.863   1.476 -0.3636 -0.4688  0.1260
12777TIP3   OH259745   5.940   0.589  10.727 -0.0073 -0.1799 -0.4149
12777TIP3    H159746   5.923   0.683  10.726 -0.3407 -0.1805  1.7391
12777TIP3    H259747   6.035   0.582  10.736  0.0634 -0.0773 -1.0086
12778TIP3   OH259748   4.353   1.577   3.934 -0.6629 -0.6277  0.0533
12778TIP3    H159749   4.353   1.577   3.838 -0.5136  0.8767  0.0352
12778TIP3    H259750   4.399   1.496   3.958  2.8402  0.8235 -1.1993
12779TIP3   OH259751   5.101   2.464   5.250 -0.7601  0.0639  0.1519
12779TIP3    H159752   5.104   2.460   5.155 -0.8134 -2.0605  0.2019
12779TIP3    H259753   5.008   2.479   5.270 -1.1663 -1.8183 -0.1288
12780TIP3   OH259754   2.245   3.799  15.811 -0.0103 -0.1917 -0.0930
12780TIP3    H159755   2.291   3.821  15.730  1.1373 -1.9402  0.0263
12780TIP3    H259756   2.260   3.874  15.869  1.5899 -0.1407 -0.5371
12781TIP3   OH259757   3.603   4.980  10.746  0.1565  0.3528 -0.3685
12781TIP3    H159758   3.571   5.027  10.823  0.2265 -1.4053  0.8102
12781TIP3    H259759   3.690   5.016  10.731 -0.5544  1.9915 -0.7907
12782TIP3   OH259760   2.333   5.144  14.199  0.1805 -0.2266  0.2842
12782TIP3    H159761   2.320   5.233  14.167 -0.2595 -0.7792 -1.1604
12782TIP3    H259762   2.369   5.155  14.287  0.0080  1.3680  0.1855
12783TIP3   OH259763   1.512   4.556  11.695 -0.2362 -0.4416 -0.3079
12783TIP3    H159764   1.577   4.516  11.753 -0.5815 -0.2882  0.1960
12783TIP3    H259765   1.428   4.523  11.727 -0.6699  1.7475  1.0559
12784TIP3   OH259766   0.069   1.758   5.540 -0.6934  0.5292  0.0612
12784TIP3    H159767   0.156   1.797   5.551  0.8971 -2.6820  0.0059
12784TIP3    H259768   0.052   1.763   5.446  0.2391 -0.2698 -0.1727
12785TIP3   OH259769   3.426   6.648   4.335 -0.8612 -0.2300 -0.3067
12785TIP3    H159770   3.509   6.651   4.288 -0.4013  1.6901  0.5412
12785TIP3    H259771   3.405   6.554   4.341  1.2942 -0.7675 -0.4187
12786TIP3   OH259772   6.763   4.976  16.580 -0.1699 -0.0829  0.0586
12786TIP3    H159773   6.725   4.917  16.645  1.3118 -0.2430  0.8142
12786TIP3    H259774   6.841   5.012  16.622 -1.6696  3.5137  0.1483
12787TIP3   OH259775   0.315   3.347  11.878  0.1599 -0.3061 -0.3807
12787TIP3    H159776   0.387   3.287  11.893 -0.0089 -0.1940  1.0164
12787TIP3    H259777   0.301   3.345  11.784  2.0643 -0.2336 -0.7044
12788TIP3   OH259778   6.534   3.814  10.849  0.1387 -0.0636 -0.0213
12788TIP3    H159779   6.542   3.893  10.796  2.3375 -0.6840 -0.6986
12788TIP3    H259780   6.623   3.796  10.880 -0.9243 -0.0066  3.5609
12789TIP3   OH259781   6.609   4.806  11.778 -0.3282  0.3679  0.1102
12789TIP3    H159782   6.697   4.770  11.772 -0.5805 -0.9866  2.7865
12789TIP3    H259783   6.622   4.896  11.808  0.1607  0.5587 -0.6621
12790TIP3   OH259784   3.202   6.291   3.424 -0.1360 -0.3290 -0.3482
12790TIP3    H159785   3.203   6.308   3.518 -1.0243 -0.6838 -0.2590
12790TIP3    H259786   3.111   6.265   3.405 -0.2844  0.9238 -1.5208
12791TIP3   OH259787   3.349   4.734   2.744  0.4118  0.0950 -0.6335
12791TIP3    H159788   3.437   4.728   2.708  0.3272 -0.0804 -0.8116
12791TIP3    H259789   3.291   4.709   2.671  0.1461  1.3322 -0.8763
12792TIP3   OH259790   2.187   0.518   1.849 -0.3503  1.0114 -0.2878
12792TIP3    H159791   2.156   0.568   1.925 -1.1631 -0.8001  0.6464
12792TIP3    H259792   2.138   0.436   1.853  0.9586  0.1039 -1.7024
12793TIP3   OH259793   1.989   4.910  10.941  0.2765  0.3008  0.4198
12793TIP3    H159794   1.946   4.825  10.950  1.2751 -0.3877 -1.1166
12793TIP3    H259795   1.952   4.962  11.013 -2.6272 -0.4430 -0.3924
12794TIP3   OH259796   0.824   5.286   3.973 -0.7520 -0.5593 -0.3266
12794TIP3    H159797   0.793   5.227   4.042 -2.0113  0.2858 -0.1373
12794TIP3    H259798   0.756   5.282   3.906  1.1607 -2.5686 -2.3296
12795TIP3   OH259799   3.526   0.867   1.108 -0.2250  0.0554 -0.2698
12795TIP3    H159800   3.580   0.858   1.186 -0.8183 -0.8095  0.0624
12795TIP3    H259801   3.572   0.818   1.040 -0.6567 -0.8331  0.0593
12796TIP3   OH259802   5.798   4.019   3.351 -0.2023  0.1366  0.5829
12796TIP3    H159803   5.743   3.941   3.341 -1.4186  1.1712 -1.5817
12796TIP3    H259804   5.738   4.088   3.380  0.0777  1.0604 -0.9047
12797TIP3   OH259805   2.147   3.039   4.255 -0.0242  0.6174  0.0449
12797TIP3    H159806   2.061   3.022   4.292 -0.2708 -1.2940 -1.2549
12797TIP3    H259807   2.133   3.039   4.160  1.5451 -0.7718 -0.2303
12798TIP3   OH259808   6.767   1.208  15.651 -0.2272  0.1947 -0.6757
12798TIP3    H159809   6.707   1.183  15.581 -1.8177 -1.5114  1.1859
12798TIP3    H259810   6.765   1.135  15.713  0.3512  2.0051  1.6293
12799TIP3   OH259811   0.836   1.388   0.075  0.2846 -0.1651 -0.1860
12799TIP3    H159812   0.779   1.387  -0.002 -0.5320  0.4109  0.3997
12799TIP3    H259813   0.778   1.413   0.147  1.1568 -0.1639  0.5217
12800TIP3   OH259814   3.448   0.738   2.210 -0.0617  0.0705  0.5186
12800TIP3    H159815   3.392   0.690   2.150  0.0834  1.5196 -0.8276
12800TIP3    H259816   3.424   0.705   2.297 -1.5795 -0.7497 -0.1816
12801TIP3   OH259817   3.872   4.728  15.289  0.3369  0.1980  0.4887
12801TIP3    H159818   3.928   4.651  15.278 -0.1038 -0.1296  0.4946
12801TIP3    H259819   3.892   4.783  15.213 -0.3659 -0.5823 -0.2800
12802TIP3   OH259820   3.799   2.847  11.857 -0.1323  0.0887  0.4376
12802TIP3    H159821   3.727   2.804  11.812 -0.3994 -0.3248  1.2450
12802TIP3    H259822   3.772   2.939  11.864  0.4836  0.4506 -1.3739
12803TIP3   OH259823   0.779   6.778   6.447 -0.0106 -0.1407  0.2012
12803TIP3    H159824   0.728   6.722   6.506 -0.3258 -0.2547 -0.1763
12803TIP3    H259825   0.733   6.773   6.363  0.4486 -0.0027 -0.0642
12804TIP3   OH259826   3.147   2.862   2.269 -0.2149  0.0943  0.1117
12804TIP3    H159827   3.174   2.795   2.332  2.7692 -0.0541 -1.1549
12804TIP3    H259828   3.172   2.827   2.184 -3.4031  0.6454 -1.1887
12805TIP3   OH259829   4.386   0.618   3.380 -0.3309  0.2932 -0.4065
12805TIP3    H159830   4.474   0.614   3.340 -1.2776 -2.4912 -2.5282
12805TIP3    H259831   4.375   0.533   3.422 -1.9283  0.7220  0.0944
12806TIP3   OH259832   3.502   1.823   4.221  0.3286 -0.3427  0.7190
12806TIP3    H159833   3.452   1.752   4.181  2.0384 -1.5231  0.5550
12806TIP3    H259834   3.476   1.823   4.313 -1.1286  0.1520  0.3295
12807TIP3   OH259835   3.999   2.777   2.131 -0.0377 -0.5397  0.7472
12807TIP3    H159836   4.024   2.805   2.043 -0.3700  1.2719  1.1982
12807TIP3    H259837   4.083   2.772   2.178  0.0673 -0.8327  0.5407
12808TIP3   OH259838   3.275   4.061   0.782  0.5515 -0.0360  0.1973
12808TIP3    H159839   3.347   4.010   0.820 -0.6026 -0.5941  1.7307
12808TIP3    H259840   3.246   4.119   0.853 -1.2031 -0.5883 -0.0213
12809TIP3   OH259841   4.016   5.789  11.721  0.9243  0.1509 -0.2251
12809TIP3    H159842   3.987   5.874  11.753  0.8695  0.1576 -0.2921
12809TIP3    H259843   4.019   5.799  11.626 -3.2790 -1.1706 -0.6939
12810TIP3   OH259844   2.776   6.308  14.544  0.2095  0.0295 -0.5309
12810TIP3    H159845   2.860   6.289  14.586 -0.4291 -0.1072  0.7174
12810TIP3    H259846   2.730   6.365  14.605 -1.2958 -1.2562 -0.3871
12811TIP3   OH259847   3.853   3.061  15.996 -0.3800 -0.3542  0.2927
12811TIP3    H159848   3.873   3.041  15.904  0.5942 -0.3056  0.4809
12811TIP3    H259849   3.763   3.093  15.995 -0.4324 -0.5085 -0.6246
12812TIP3   OH259850   3.307   4.824   0.234  0.2779  0.3612  0.4600
12812TIP3    H159851   3.213   4.829   0.217  0.2131 -1.4055  0.0916
12812TIP3    H259852   3.346   4.812   0.147  0.6105 -1.1772  0.7939
12813TIP3   OH259853   2.142   0.873   1.872  0.8360  0.0180 -0.0178
12813TIP3    H159854   2.214   0.853   1.932  0.7027  0.7644  0.3989
12813TIP3    H259855   2.166   0.956   1.831  0.6190 -0.1608 -0.5210
12814TIP3   OH259856   1.178   0.426  12.079  0.6142 -0.4029  0.0234
12814TIP3    H159857   1.158   0.424  11.986  0.6906 -0.9200  0.0179
12814TIP3    H259858   1.211   0.515  12.094  1.0633 -0.4691 -0.5362
12815TIP3   OH259859   4.786   1.139  14.362 -0.0675 -0.4123  0.0767
12815TIP3    H159860   4.763   1.196  14.289 -1.9414 -0.2662  0.7384
12815TIP3    H259861   4.855   1.186  14.408 -0.0309  0.2693 -0.6585
12816TIP3   OH259862   5.368   5.782   1.370 -0.3948 -0.3184 -0.6129
12816TIP3    H159863   5.337   5.740   1.290 -1.8743  1.1029 -0.8210
12816TIP3    H259864   5.458   5.807   1.350 -0.3734 -0.9824 -1.4144
12817TIP3   OH259865   4.397   5.622   5.168 -0.0059  0.0468  0.1320
12817TIP3    H159866   4.412   5.529   5.189  2.1306  0.6705  1.6296
12817TIP3    H259867   4.386   5.623   5.073 -0.5139 -1.7938  0.1349
12818TIP3   OH259868   5.058   0.782  17.042 -0.1274  0.0172  0.1011
12818TIP3    H159869   5.015   0.709  17.087  0.6177 -0.4794  0.0231
12818TIP3    H259870   5.031   0.773  16.951 -0.5804  0.2475  0.2075
12819TIP3   OH259871   6.311   6.683   5.983 -0.5109 -0.2338 -0.6127
12819TIP3    H159872   6.302   6.778   5.996 -0.4443 -0.4586  1.2630
12819TIP3    H259873   6.279   6.644   6.064 -1.0716 -1.8692 -1.5687
12820TIP3   OH259874   6.782   2.206  12.390  0.3463 -0.2111 -0.0234
12820TIP3    H159875   6.839   2.274  12.425 -1.6599 -0.0735  3.4463
12820TIP3    H259876   6.808   2.126  12.437 -0.2118 -0.8534 -0.7766
12821TIP3   OH259877   0.788   4.355   3.173  0.3529 -0.1383  0.5976
12821TIP3    H159878   0.768   4.281   3.230  0.1519 -1.1804 -0.7639
12821TIP3    H259879   0.707   4.371   3.125  0.2553  1.2866  1.1969
12822TIP3   OH259880   0.132   4.825  14.405 -0.1804 -0.8785 -0.0787
12822TIP3    H159881   0.152   4.732  14.405  0.1530 -0.8084  0.2524
12822TIP3    H259882   0.084   4.839  14.487  1.0135 -0.5042  0.5856
12823TIP3   OH259883   6.505   0.857   0.613 -0.4379  0.7993 -0.1375
12823TIP3    H159884   6.496   0.867   0.519  0.7059 -0.6160 -0.4220
12823TIP3    H259885   6.506   0.762   0.628  0.2950  0.9832  1.1922
12824TIP3   OH259886   2.417   0.223   0.575 -0.0370 -0.2945  0.5784
12824TIP3    H159887   2.504   0.261   0.589 -1.0512  2.5203 -0.1619
12824TIP3    H259888   2.403   0.230   0.481 -1.0511 -0.7822  0.6867
12825TIP3   OH259889   5.670   1.113  14.279  0.2096  0.2052 -0.3637
12825TIP3    H159890   5.723   1.191  14.291  0.4517  0.1040 -0.7609
12825TIP3    H259891   5.642   1.116  14.187  0.1025 -0.0960 -0.3442
12826TIP3   OH259892   0.005   3.932   2.246  0.4766 -0.1840 -0.6243
12826TIP3    H159893   0.077   3.950   2.185  0.3414  0.4829 -0.6018
12826TIP3    H259894   0.006   4.006   2.306  0.8477 -1.0238  0.4364
12827TIP3   OH259895   5.001   0.596  13.754  0.2285  0.7911 -0.5117
12827TIP3    H159896   5.097   0.600  13.759  0.2479 -0.4257  0.6950
12827TIP3    H259897   4.981   0.503  13.760 -1.0312  1.0080 -1.0943
12828TIP3   OH259898   2.471   5.326   1.413 -0.1586  0.1349  0.6832
12828TIP3    H159899   2.541   5.382   1.446 -0.5896  1.7354 -0.9730
12828TIP3    H259900   2.501   5.298   1.327 -1.3156  0.4504  0.1541
12829TIP3   OH259901   2.507   5.514  16.870 -0.1117 -0.0891 -0.4454
12829TIP3    H159902   2.548   5.495  16.955  0.8495 -0.2934 -0.9382
12829TIP3    H259903   2.531   5.439  16.815 -1.2648 -0.2711 -0.7239
12830TIP3   OH259904   1.952   6.319   2.590  0.2979  0.2659 -0.2895
12830TIP3    H159905   1.886   6.361   2.644  1.6045  0.4771  1.2263
12830TIP3    H259906   1.933   6.225   2.597  1.4240  0.1448  1.9965
12831TIP3   OH259907   2.557   0.743   0.862  0.2597 -0.0953  0.0432
12831TIP3    H159908   2.477   0.762   0.814  1.4169  0.4242 -1.7472
12831TIP3    H259909   2.614   0.818   0.846  0.8608 -0.0811  1.9396
12832TIP3   OH259910   1.276   3.658  16.020  0.3838  0.1777 -0.0252
12832TIP3    H159911   1.185   3.646  16.047  0.1127  1.0194 -0.5222
12832TIP3    H259912   1.327   3.622  16.092 -0.2702 -3.9723 -1.3447
12833TIP3   OH259913   6.274   4.166   3.095 -0.2812 -0.0974 -0.3358
12833TIP3    H159914   6.220   4.154   3.016 -0.1386 -0.8400 -0.3287
12833TIP3    H259915   6.356   4.121   3.075  0.0529  0.3857 -0.0586
12834TIP3   OH259916   1.031   5.442   0.446 -0.0051 -0.5951 -0.1962
12834TIP3    H159917   0.966   5.446   0.375 -1.3647 -1.0597  0.9781
12834TIP3    H259918   1.116   5.446   0.401 -0.8204 -1.1501 -1.8609
12835TIP3   OH259919   0.006   4.121   2.904  0.0179 -0.0911 -0.3235
12835TIP3    H159920  -0.021   4.030   2.914 -1.4623  0.1390 -1.8701
12835TIP3    H259921   0.049   4.125   2.819  0.0310  0.6607 -0.2935
12836TIP3   OH259922   3.460   4.845   0.662 -0.2069 -0.0424  0.0173
12836TIP3    H159923   3.516   4.876   0.733  0.0374  3.4579 -1.5210
12836TIP3    H259924   3.373   4.842   0.700  0.0547  0.8957  0.7210
12837TIP3   OH259925   3.735   2.968  10.993  0.1351  0.1512 -0.3314
12837TIP3    H159926   3.737   3.050  11.041 -2.7710  1.1248 -1.6333
12837TIP3    H259927   3.826   2.949  10.972  0.8462  3.4257 -0.6086
12838TIP3   OH259928   5.906   4.271  16.158 -0.9976 -0.0536 -0.2861
12838TIP3    H159929   5.904   4.367  16.157 -0.3730  0.0081  1.5541
12838TIP3    H259930   5.958   4.248  16.080 -1.9624  1.0293 -1.2938
12839TIP3   OH259931   3.672   5.451  12.228 -0.1173  0.9340  0.1460
12839TIP3    H159932   3.744   5.511  12.245 -0.0799  0.8423  0.3229
12839TIP3    H259933   3.673   5.438  12.133 -0.0961  1.1736  0.1141
12840TIP3   OH259934   2.505   1.016  15.982 -0.2209 -0.1157  0.2318
12840TIP3    H159935   2.553   1.099  15.993 -3.0157  1.4405  1.7762
12840TIP3    H259936   2.413   1.042  15.979 -1.1356 -3.0780 -1.0769
12841TIP3   OH259937   0.595   3.058  14.354 -0.1973 -0.0188  0.2167
12841TIP3    H159938   0.583   3.139  14.404  0.7145  0.4841 -0.3456
12841TIP3    H259939   0.581   3.083  14.263  1.3044 -0.1805 -0.0954
12842TIP3   OH259940   4.553   4.921  15.546 -0.1156  0.1455 -0.1570
12842TIP3    H159941   4.520   4.902  15.458  0.8462 -1.0771 -0.2880
12842TIP3    H259942   4.492   4.985  15.582 -1.4195 -0.5151 -1.1299
12843TIP3   OH259943   4.138   3.806   2.727  0.3496 -0.1330  0.4727
12843TIP3    H159944   4.172   3.821   2.638  1.6124  1.2409  1.1408
12843TIP3    H259945   4.132   3.893   2.765 -0.0539 -0.7163  1.7849
12844TIP3   OH259946   3.296   2.747   4.082 -0.3677  1.0484 -0.3897
12844TIP3    H159947   3.233   2.739   4.010 -0.0486  1.3541 -0.7053
12844TIP3    H259948   3.382   2.742   4.040 -0.1791  1.1797 -0.0254
12845TIP3   OH259949   2.340   5.275  12.421  0.2331  0.1980 -0.0455
12845TIP3    H159950   2.407   5.288  12.353  0.4399  0.3916  0.1915
12845TIP3    H259951   2.369   5.198  12.469 -0.8433 -1.0059 -1.2717
12846TIP3   OH259952   6.239   2.458   5.790 -0.5080 -0.1450 -0.3374
12846TIP3    H159953   6.196   2.541   5.770 -0.1490 -0.0819 -0.8770
12846TIP3    H259954   6.300   2.445   5.718  0.2687 -0.3066  0.3322
12847TIP3   OH259955   2.410   5.764  13.002  0.0348 -0.1623  1.0425
12847TIP3    H159956   2.326   5.741  12.962  1.2703 -0.3629 -1.5891
12847TIP3    H259957   2.440   5.841  12.955  1.6417 -0.4898  1.4432
12848TIP3   OH259958   4.923   5.398  16.391 -0.1691 -0.0231  0.1810
12848TIP3    H159959   5.003   5.433  16.431 -0.6057  0.7431  0.4065
12848TIP3    H259960   4.940   5.304  16.382  0.6984  0.1029  0.3539
12849TIP3   OH259961   5.042   0.236  14.373  0.4386  0.1060  0.0540
12849TIP3    H159962   5.068   0.315  14.421 -0.2715  0.9789 -0.9611
12849TIP3    H259963   4.950   0.251  14.350  0.0347 -1.3949  0.5607
12850TIP3   OH259964   0.883   1.509  10.906 -0.3304 -0.8498 -0.1359
12850TIP3    H159965   0.918   1.594  10.879 -0.9574 -0.5094  0.1037
12850TIP3    H259966   0.803   1.498  10.854 -0.9988 -0.6532  0.8402
12851TIP3   OH259967   2.396   0.634   5.372 -0.0483 -0.3031 -0.1170
12851TIP3    H159968   2.324   0.677   5.325 -0.3509  1.4634  1.8475
12851TIP3    H259969   2.358   0.552   5.403 -1.2014  0.5024  0.6948
12852TIP3   OH259970   5.716   2.855  16.601  0.3561  0.0619 -0.4012
12852TIP3    H159971   5.720   2.900  16.685 -2.6893  1.0389 -0.6665
12852TIP3    H259972   5.695   2.764  16.624  0.4325  0.1187 -0.0937
12853TIP3   OH259973   1.219   5.186   1.789 -0.1244  0.4065  0.0207
12853TIP3    H159974   1.233   5.176   1.884  0.8136  0.7344 -0.0738
12853TIP3    H259975   1.306   5.207   1.754 -0.2216 -0.8389 -1.0737
12854TIP3   OH259976   5.472   3.060  14.202 -0.3712  0.2698  0.3728
12854TIP3    H159977   5.405   2.991  14.209 -0.4681  0.2377 -0.6800
12854TIP3    H259978   5.470   3.086  14.110  0.6183  0.7343  0.4695
12855TIP3   OH259979   1.304   4.148   3.879  0.1945  0.4034  0.0731
12855TIP3    H159980   1.261   4.208   3.818 -1.9917 -0.8164  0.2943
12855TIP3    H259981   1.325   4.071   3.826 -2.0124 -0.7970  0.8150
12856TIP3   OH259982   4.792   5.690  15.122  0.5488 -0.0723  0.6545
12856TIP3    H159983   4.774   5.610  15.073  0.7851  0.3952 -0.2022
12856TIP3    H259984   4.706   5.732  15.132  0.2952 -0.8145  1.8145
12857TIP3   OH259985   3.956   2.591   1.343 -0.3956 -0.2343  0.4450
12857TIP3    H159986   3.983   2.506   1.309 -0.8751  0.2706 -1.2784
12857TIP3    H259987   3.877   2.572   1.395 -0.2982 -0.8718  0.3649
12858TIP3   OH259988   0.870   2.497  15.567  0.0048  0.8288 -0.0195
12858TIP3    H159989   0.932   2.570  15.577  2.1531 -0.7106 -1.1965
12858TIP3    H259990   0.822   2.517  15.488 -0.1352  1.4502  0.2183
12859TIP3   OH259991   2.188   1.321   5.520  0.2233  0.9231 -0.5185
12859TIP3    H159992   2.134   1.342   5.596  0.8508  3.7128 -0.7356
12859TIP3    H259993   2.270   1.287   5.557  0.3912  1.9346  0.0668
12860TIP3   OH259994   0.391   4.230  15.083 -0.1838 -0.4447  0.5743
12860TIP3    H159995   0.479   4.198  15.063  0.8115  1.6727  1.2524
12860TIP3    H259996   0.342   4.217  15.002  1.5106  0.7232 -0.7187
12861TIP3   OH259997   2.643   1.721   2.729  0.1464 -0.5103  0.2572
12861TIP3    H159998   2.598   1.680   2.804  0.5743 -0.5724  0.4799
12861TIP3    H259999   2.736   1.706   2.746  0.2206 -1.0731 -0.6108
12862TIP3   OH260000   6.591   5.942  14.640 -0.5331  0.4009 -0.4167
12862TIP3    H160001   6.651   5.889  14.587  0.3242  1.2310 -0.3004
12862TIP3    H260002   6.590   5.899  14.726  1.0872  1.1990  0.0453
12863TIP3   OH260003   6.757   4.037  12.991 -0.2984 -0.3211 -0.2276
12863TIP3    H160004   6.753   4.132  12.995 -2.9296 -0.3644  2.6266
12863TIP3    H260005   6.849   4.015  13.004 -0.0378  1.8659  2.3681
12864TIP3   OH260006   4.591   2.568   3.620 -0.6117 -0.2322 -0.5758
12864TIP3    H160007   4.600   2.658   3.653 -0.1324 -0.8360  0.9969
12864TIP3    H260008   4.658   2.561   3.552  1.3101 -0.2310  1.2304
12865TIP3   OH260009   5.154   4.165  11.694 -0.0050  0.3892 -0.0672
12865TIP3    H160010   5.213   4.094  11.668  0.3765  0.5557  0.3375
12865TIP3    H260011   5.067   4.133  11.672  0.1764 -0.1571  0.0042
12866TIP3   OH260012   3.444   2.829  16.672  0.0107 -0.1372  0.4377
12866TIP3    H160013   3.436   2.865  16.760 -1.0979  0.2153  0.2011
12866TIP3    H260014   3.500   2.752  16.683 -0.1632 -0.1316  1.4614
12867TIP3   OH260015   6.384   0.943  11.920 -0.7836 -0.4412 -0.2535
12867TIP3    H160016   6.352   0.909  12.004  0.9008 -0.0505  0.5943
12867TIP3    H260017   6.377   1.038  11.929  3.7906 -0.0380  1.4845
12868TIP3   OH260018   3.906   1.374   1.236 -0.1799 -0.0465 -0.4388
12868TIP3    H160019   3.908   1.279   1.249  0.7126  0.0724  0.3624
12868TIP3    H260020   3.980   1.392   1.178 -1.5590 -0.0548 -2.2891
12869TIP3   OH260021   1.133   4.359  15.488 -0.4322 -0.0067  0.0636
12869TIP3    H160022   1.067   4.294  15.466  0.0183 -0.5139  0.1848
12869TIP3    H260023   1.106   4.394  15.573 -2.3654  2.1910 -1.3286
12870TIP3   OH260024   4.969   2.855   4.051  0.0406  0.2054  0.2399
12870TIP3    H160025   4.932   2.850   4.139 -1.1078  1.6632 -0.1210
12870TIP3    H260026   4.971   2.949   4.031  0.7675 -0.0665 -1.0894
12871TIP3   OH260027   6.573   3.272  14.512 -0.0511 -0.4280  0.1627
12871TIP3    H160028   6.648   3.213  14.518 -1.3169 -1.9785  2.1239
12871TIP3    H260029   6.611   3.359  14.506  1.9732 -1.0302  2.5355
12872TIP3   OH260030   1.318   0.513   4.724 -1.0179  0.5334 -0.1484
12872TIP3    H160031   1.264   0.576   4.677 -2.3894  0.4562  1.2462
12872TIP3    H260032   1.331   0.552   4.810 -0.8924 -0.5640  0.3461
12873TIP3   OH260033   3.346   4.581  16.090  0.1662 -0.0463  0.4182
12873TIP3    H160034   3.399   4.528  16.149  2.5583 -0.9218 -2.3035
12873TIP3    H260035   3.396   4.662  16.079 -1.4123  1.1048  1.3262
12874TIP3   OH260036   2.146   4.298   5.950  0.0007  0.9008  0.2561
12874TIP3    H160037   2.190   4.241   6.013 -0.8344  0.6780  0.6549
12874TIP3    H260038   2.149   4.385   5.991 -1.7184  0.5313  1.2812
12875TIP3   OH260039   4.086   0.700  11.289 -0.0195  0.0032  0.5121
12875TIP3    H160040   4.079   0.796  11.292  1.8313  0.2515 -1.0605
12875TIP3    H260041   4.175   0.682  11.318  0.6986 -0.9613 -2.0083
12876TIP3   OH260042   2.181   1.775   5.693  0.4758 -0.0424  0.2484
12876TIP3    H160043   2.256   1.719   5.711  0.2739  0.0387  1.3915
12876TIP3    H260044   2.211   1.864   5.714  0.0354 -0.0213  0.8170
12877TIP3   OH260045   0.483   1.091  17.179  0.4572 -0.0973  1.0919
12877TIP3    H160046   0.486   1.014  17.236  0.8659  0.2301  1.5201
12877TIP3    H260047   0.393   1.091  17.144  0.8088 -1.4608  0.1047
12878TIP3   OH260048   6.046   6.145   2.708  0.1832 -0.2086 -0.3037
12878TIP3    H160049   6.108   6.195   2.655 -0.0143 -0.1649 -0.4954
12878TIP3    H260050   6.018   6.207   2.776 -0.6969  0.2156 -1.0364
12879TIP3   OH260051   6.711   2.046  12.102 -0.4299  0.0487 -0.0485
12879TIP3    H160052   6.697   2.004  12.017 -1.1374  0.2402 -0.0423
12879TIP3    H260053   6.642   2.009  12.158 -2.1236  2.3277 -0.4740
12880TIP3   OH260054   1.633   3.547  11.269 -0.1555  0.1553  0.8842
12880TIP3    H160055   1.583   3.598  11.206 -1.3612 -0.2830  1.4512
12880TIP3    H260056   1.665   3.471  11.220 -0.0557  0.4375  0.5147
12881TIP3   OH260057   2.778   1.122  15.404 -0.0851 -0.0245  0.6154
12881TIP3    H160058   2.709   1.081  15.456  0.0885 -0.6451  0.3615
12881TIP3    H260059   2.858   1.111  15.455 -0.0040 -0.1814  0.4556
12882TIP3   OH260060   6.709   5.369   0.960 -0.4151 -0.1668 -0.0348
12882TIP3    H160061   6.728   5.462   0.964 -0.5844 -0.0378 -1.5459
12882TIP3    H260062   6.789   5.326   0.989 -0.6085  0.4438  1.4603
12883TIP3   OH260063   3.442   6.307  12.208 -0.1779  0.3427  0.4318
12883TIP3    H160064   3.442   6.216  12.177  0.9590  0.6984 -0.7011
12883TIP3    H260065   3.461   6.359  12.130 -0.1161  1.5129  1.2026
12884TIP3   OH260066   1.116   5.994   3.921 -1.0605  0.1912 -0.1374
12884TIP3    H160067   1.026   5.967   3.936 -0.6655 -1.2695 -0.2296
12884TIP3    H260068   1.151   6.009   4.009 -1.1238 -0.1774 -0.0485
12885TIP3   OH260069   0.436   4.541   4.154  0.1199 -0.7650  0.2315
12885TIP3    H160070   0.361   4.577   4.107 -1.5269 -1.9484  1.7963
12885TIP3    H260071   0.431   4.447   4.137 -0.1768 -1.1437  2.1875
12886TIP3   OH260072   4.962   3.698  13.598  0.5112 -0.2743 -0.1622
12886TIP3    H160073   4.872   3.703  13.565  0.8041  1.1718 -0.8373
12886TIP3    H260074   4.956   3.728  13.688  0.2043 -1.0059  0.0703
12887TIP3   OH260075   3.118   5.808  15.780  0.1136 -0.0558  1.0229
12887TIP3    H160076   3.121   5.862  15.859 -1.0317  1.0845  0.3279
12887TIP3    H260077   3.042   5.841  15.732  1.7113  0.4349 -1.3460
12888TIP3   OH260078   2.039   1.748  12.452  0.2873  0.4096 -0.0133
12888TIP3    H160079   1.943   1.740  12.457  0.0312 -0.0457 -3.3027
12888TIP3    H260080   2.071   1.658  12.449  0.6464  0.5537 -0.6950
12889TIP3   OH260081   6.226   3.267   5.204  0.2629 -0.1763  0.4836
12889TIP3    H160082   6.293   3.327   5.237  0.0440  0.0861  0.4610
12889TIP3    H260083   6.211   3.296   5.114 -0.4814  0.3076  0.7538
12890TIP3   OH260084   3.662   3.653  13.711  0.1931 -0.2122  0.6152
12890TIP3    H160085   3.684   3.603  13.633  0.5099 -0.0612  0.6055
12890TIP3    H260086   3.626   3.735  13.678  0.8587  0.0879  0.6181
12891TIP3   OH260087   6.479   4.898   3.451 -0.5412  0.1002  0.8627
12891TIP3    H160088   6.521   4.975   3.413  0.0362 -0.3600  0.5597
12891TIP3    H260089   6.438   4.854   3.377 -0.8236  0.0799  1.0289
12892TIP3   OH260090   2.064   5.733  17.015 -0.0494 -0.6302  0.0054
12892TIP3    H160091   2.058   5.806  16.952  0.6190 -1.3034 -0.8679
12892TIP3    H260092   2.158   5.719  17.026 -0.0962  0.3550  2.2406
12893TIP3   OH260093   6.359   0.459  11.275 -0.0731 -0.4660  0.5621
12893TIP3    H160094   6.427   0.523  11.255 -0.7902  0.5578  1.2994
12893TIP3    H260095   6.406   0.375  11.281  0.5252 -0.6223 -3.3050
12894TIP3   OH260096   1.011   3.986  14.331  0.1203 -0.2371  0.0849
12894TIP3    H160097   1.074   4.045  14.289  0.8543  0.0427  1.5044
12894TIP3    H260098   1.062   3.907  14.349  0.5452  0.4998  2.5146
12895TIP3   OH260099   6.226   6.097   0.357  0.5285  0.6007 -0.5578
12895TIP3    H160100   6.237   6.096   0.452  1.5234  1.2986 -0.6460
12895TIP3    H260101   6.315   6.107   0.322  0.4933 -2.2253 -1.6770
12896TIP3   OH260102   5.580   3.031  13.631 -0.4305  0.2774 -0.0693
12896TIP3    H160103   5.597   3.010  13.723 -1.2866 -2.4098 -0.4442
12896TIP3    H260104   5.575   3.127  13.629  0.9558  0.4821  2.4108
12897TIP3   OH260105   3.712   5.365   5.783 -0.6966  0.6119  0.4350
12897TIP3    H160106   3.700   5.423   5.708  0.4999  0.0192 -0.2438
12897TIP3    H260107   3.625   5.354   5.820 -0.9893  2.6526  0.4494
12898TIP3   OH260108   6.424   2.387   0.086  0.3719 -0.0272  0.3742
12898TIP3    H160109   6.336   2.387   0.047 -0.5873 -1.0342  2.3843
12898TIP3    H260110   6.478   2.341   0.022 -0.6645  0.1585 -0.6820
12899TIP3   OH260111   6.218   1.716   3.908  0.0107  0.0808 -0.0051
12899TIP3    H160112   6.285   1.673   3.855  1.4094  2.8002 -0.5859
12899TIP3    H260113   6.259   1.730   3.993 -0.0444  1.1235 -0.1362
12900TIP3   OH260114   6.398   6.760  12.817  0.1515  0.0437 -0.6530
12900TIP3    H160115   6.402   6.853  12.838 -0.5027  0.0311 -0.4544
12900TIP3    H260116   6.360   6.757  12.729 -1.5143 -0.0939  0.0302
12901TIP3   OH260117   5.158   3.129  16.995 -0.3099  0.0439 -0.1543
12901TIP3    H160118   5.144   3.135  17.089 -0.9504 -3.5869  0.1523
12901TIP3    H260119   5.233   3.185  16.978  1.6713 -1.3145  3.0992
12902TIP3   OH260120   4.640   2.108  15.674 -0.1039 -0.1107  0.1448
12902TIP3    H160121   4.654   2.201  15.658  1.3137 -0.4671 -0.8969
12902TIP3    H260122   4.594   2.077  15.596 -0.5545 -0.2881  0.4788
12903TIP3   OH260123   2.627   3.827  13.980 -0.7892  0.5608  0.1644
12903TIP3    H160124   2.647   3.831  13.886 -0.9677  0.0854  0.0987
12903TIP3    H260125   2.609   3.917  14.005 -1.9894  0.5467 -0.5505
12904TIP3   OH260126   1.596   2.229  12.645 -0.5484  0.0699 -0.4419
12904TIP3    H160127   1.664   2.282  12.685 -0.6582  1.3922 -1.8853
12904TIP3    H260128   1.543   2.292  12.595 -0.2700 -1.4256 -2.8044
12905TIP3   OH260129   1.765   0.341   3.384 -0.5070  0.2392 -0.4135
12905TIP3    H160130   1.755   0.364   3.477 -0.1101  2.0082 -0.7640
12905TIP3    H260131   1.716   0.408   3.337 -1.0855 -0.9024 -1.4875
12906TIP3   OH260132   6.361   0.752  14.979 -0.0707  1.2707 -0.5675
12906TIP3    H160133   6.326   0.682  14.924  1.4789  0.3043 -0.3621
12906TIP3    H260134   6.332   0.729  15.067 -1.4252  2.1081 -0.7620
12907TIP3   OH260135   6.141   5.214   4.796 -0.6279 -0.7869  0.2422
12907TIP3    H160136   6.083   5.204   4.721 -0.6878 -2.7204  0.5133
12907TIP3    H260137   6.221   5.254   4.760 -1.5134  0.4996 -0.3889
12908TIP3   OH260138   3.678   0.028   5.918 -0.3201  0.1877 -0.4040
12908TIP3    H160139   3.595   0.025   5.966  0.9681  1.0910  2.0450
12908TIP3    H260140   3.745   0.030   5.986  1.7964 -1.5154 -2.3013
12909TIP3   OH260141   0.086   4.725   2.475  0.1062  1.1368 -0.1262
12909TIP3    H160142   0.131   4.802   2.440 -1.1955  1.0944 -2.0219
12909TIP3    H260143   0.097   4.658   2.407  0.6253 -0.1674  1.1841
12910TIP3   OH260144   3.301   3.180   2.080 -0.1271 -0.4863 -0.2761
12910TIP3    H160145   3.327   3.117   2.147 -0.1383 -0.1048  0.0853
12910TIP3    H260146   3.264   3.253   2.128  0.2874 -0.0041 -0.6776
12911TIP3   OH260147   6.582   1.030  14.499  0.2203  1.2601 -0.7689
12911TIP3    H160148   6.514   0.982  14.453 -0.9240  0.4723  1.6059
12911TIP3    H260149   6.558   1.122  14.488 -1.4973  0.9907  0.2938
12912TIP3   OH260150   0.287   6.085  16.465  0.3946  0.2712  0.0950
12912TIP3    H160151   0.366   6.137  16.482 -0.1797  0.6925  1.6633
12912TIP3    H260152   0.319   6.008  16.418  1.9405 -0.1019  1.6221
12913TIP3   OH260153   5.579   4.145   4.223 -0.5715 -0.1094 -0.2243
12913TIP3    H160154   5.600   4.201   4.149 -1.1126 -0.9640 -1.0386
12913TIP3    H260155   5.491   4.112   4.205 -0.4092 -0.9374  0.4178
12914TIP3   OH260156   0.052   5.624  12.486 -0.5563 -0.3976 -0.5674
12914TIP3    H160157   0.023   5.715  12.491 -1.3663 -0.6049 -1.2336
12914TIP3    H260158  -0.029   5.573  12.484 -0.1081 -1.1706  0.3293
12915TIP3   OH260159   2.980   4.921   3.538  0.2871 -0.5326 -0.4431
12915TIP3    H160160   2.931   4.952   3.462  1.7446 -1.9079 -2.0398
12915TIP3    H260161   3.001   4.830   3.517 -0.9378 -1.6172  2.5141
12916TIP3   OH260162   6.430   5.879   5.050  0.4478 -0.3632  0.6465
12916TIP3    H160163   6.490   5.858   5.121 -1.3325 -2.6966  1.6011
12916TIP3    H260164   6.475   5.851   4.970  1.6201  0.3459  1.0386
12917TIP3   OH260165   5.416   4.626  13.305  0.6259 -0.2815  0.3408
12917TIP3    H160166   5.465   4.563  13.253 -1.1367 -2.2305  0.8928
12917TIP3    H260167   5.437   4.604  13.396  1.6271  1.3570  0.5442
12918TIP3   OH260168   5.836   6.761  13.400 -0.3730  0.0209 -0.1396
12918TIP3    H160169   5.744   6.738  13.390 -0.3394  0.2628 -1.0997
12918TIP3    H260170   5.879   6.679  13.423 -1.1044  0.2627  2.3790
12919TIP3   OH260171   1.006   0.338   5.017  0.2288  0.3389 -0.2625
12919TIP3    H160172   1.001   0.243   5.001  0.8960  0.2966 -0.2266
12919TIP3    H260173   0.916   0.362   5.042 -0.2223 -0.0586 -1.4556
12920TIP3   OH260174   5.365   0.421   3.407 -0.2502 -0.2722 -0.1752
12920TIP3    H160175   5.444   0.384   3.447 -0.2251  1.3165  1.4129
12920TIP3    H260176   5.392   0.447   3.319  0.8583 -0.1907  0.1731
12921TIP3   OH260177   5.135   2.638  12.875  0.0449  0.1039  0.5577
12921TIP3    H160178   5.056   2.585  12.865 -0.2933  0.6169  0.4912
12921TIP3    H260179   5.119   2.716  12.822  0.8533 -0.0731  0.0375
12922TIP3   OH260180   1.377   6.479  15.004 -0.2889 -0.0620 -0.2556
12922TIP3    H160181   1.386   6.410  14.938  0.6902 -0.0030 -0.1995
12922TIP3    H260182   1.413   6.441  15.084  0.0640  0.4423 -0.1699
12923TIP3   OH260183   2.660   6.728   6.063 -0.4004 -0.4487 -0.0379
12923TIP3    H160184   2.656   6.637   6.092 -1.6084  0.0778  1.5851
12923TIP3    H260185   2.614   6.729   5.979 -1.7491 -1.0992  0.6630
12924TIP3   OH260186   0.460   0.932   4.156 -0.2666  0.4304  0.2298
12924TIP3    H160187   0.553   0.914   4.165 -0.5504 -0.6019  1.2786
12924TIP3    H260188   0.445   0.931   4.061  0.8911  1.2489  0.0160
12925TIP3   OH260189   4.463   0.400   6.314 -0.6148 -0.0740 -0.2531
12925TIP3    H160190   4.408   0.477   6.298 -0.9695 -0.5712 -1.6118
12925TIP3    H260191   4.550   0.435   6.331 -0.3805  0.6292 -2.5565
12926TIP3   OH260192   5.359   0.313  15.273 -0.3586 -0.6554  0.3738
12926TIP3    H160193   5.288   0.261  15.235 -1.1008  1.2176 -0.9551
12926TIP3    H260194   5.316   0.361  15.344  0.4775 -2.2566  2.0664
12927TIP3   OH260195   2.286   5.783  13.765  0.1919  0.0807  0.0207
12927TIP3    H160196   2.295   5.872  13.731 -1.0236 -0.5042 -2.0176
12927TIP3    H260197   2.296   5.727  13.688 -1.4411 -1.4040  0.8102
12928TIP3   OH260198   6.443   4.789  15.160 -0.1433 -0.3276  0.4130
12928TIP3    H160199   6.478   4.715  15.211  0.9217  1.0258  1.7307
12928TIP3    H260200   6.353   4.762  15.138 -0.7013 -0.9937  3.0895
12929TIP3   OH260201   1.287   2.810  16.311  0.5359  0.2510  0.5698
12929TIP3    H160202   1.246   2.782  16.229  1.7531 -1.1068  0.3946
12929TIP3    H260203   1.228   2.778  16.379  0.7193 -0.7255  0.2884
12930TIP3   OH260204   3.045   3.011   3.029 -0.0437 -0.5996  0.5656
12930TIP3    H160205   3.051   3.101   2.996 -1.4947 -1.1855 -1.4761
12930TIP3    H260206   3.015   3.021   3.119  1.4297  0.9916  0.9371
12931TIP3   OH260207   6.009   3.446  14.159 -0.5037 -0.2105 -0.1397
12931TIP3    H160208   5.930   3.413  14.116 -0.0993 -1.0573 -0.2566
12931TIP3    H260209   6.078   3.384  14.134 -0.1885 -0.5531  1.4600
12932TIP3   OH260210   5.955   5.312   0.757  0.3645  0.1744  0.5937
12932TIP3    H160211   5.961   5.354   0.842 -0.6970  0.9418  0.3186
12932TIP3    H260212   5.870   5.269   0.757  1.3859 -1.9629  0.8321
12933TIP3   OH260213   3.626   4.547  15.201 -0.1492  0.5414 -0.1143
12933TIP3    H160214   3.586   4.621  15.157  1.1230  0.9598 -0.6135
12933TIP3    H260215   3.713   4.539  15.161  0.0539 -0.6946  0.5134
12934TIP3   OH260216   2.301   2.805  11.890 -0.3400 -0.1240 -0.6031
12934TIP3    H160217   2.381   2.855  11.876  0.8971 -1.8089  0.1208
12934TIP3    H260218   2.260   2.800  11.804  1.7839 -1.5484 -1.6146
12935TIP3   OH260219   1.656   5.180   5.633  0.0386 -0.4865 -0.0831
12935TIP3    H160220   1.747   5.176   5.663 -0.3447 -2.4100  1.0045
12935TIP3    H260221   1.658   5.140   5.546  0.1220 -1.3064  0.2875
12936TIP3   OH260222   6.058   0.122   2.390  0.3374 -0.7673 -0.4156
12936TIP3    H160223   5.975   0.154   2.425 -0.3478 -1.9256 -0.9508
12936TIP3    H260224   6.121   0.190   2.414 -1.1946  1.4853 -2.2393
12937TIP3   OH260225   2.513   2.676   3.993  0.9945 -0.4367  0.3065
12937TIP3    H160226   2.482   2.668   3.903  1.4531 -0.4536  0.1478
12937TIP3    H260227   2.586   2.737   3.988  2.2022 -1.8243  0.3670
12938TIP3   OH260228   1.988   0.904  13.194 -0.4160 -0.0157 -0.2217
12938TIP3    H160229   2.002   0.880  13.285 -0.0422 -1.7933 -0.7133
12938TIP3    H260230   2.067   0.876  13.149 -0.8386  0.3109 -1.1898
12939TIP3   OH260231   3.284   1.738   3.153 -0.3058 -0.2133  0.2099
12939TIP3    H160232   3.350   1.669   3.152 -0.3134 -0.2162 -0.0049
12939TIP3    H260233   3.263   1.749   3.246  0.5898  0.3540  0.3490
12940TIP3   OH260234   0.090   3.105  15.324 -0.6320 -0.6279 -0.3726
12940TIP3    H160235   0.161   3.048  15.353  0.3157  0.5292 -0.3238
12940TIP3    H260236   0.057   3.064  15.244  3.2532  1.1281 -3.1944
12941TIP3   OH260237   6.324   6.777  12.152 -0.1982  0.2680  0.5988
12941TIP3    H160238   6.249   6.724  12.176  0.0949 -0.1579  0.5876
12941TIP3    H260239   6.347   6.747  12.064  0.2380  0.1018  0.7656
12942TIP3   OH260240   5.255   3.077  11.982 -0.1821  0.2968 -0.8062
12942TIP3    H160241   5.347   3.057  11.969  0.4079  1.2420  1.3989
12942TIP3    H260242   5.209   3.027  11.914  1.9743  0.4386 -2.4721
12943TIP3   OH260243   3.331   3.543   2.870 -0.3419  0.1028 -0.4354
12943TIP3    H160244   3.334   3.571   2.778 -2.8245  1.2021 -0.2612
12943TIP3    H260245   3.254   3.487   2.875 -0.0499 -0.1969  0.9300
12944TIP3   OH260246   0.597   3.032   2.434  0.1357 -0.0068 -0.0434
12944TIP3    H160247   0.617   3.125   2.447 -0.6228  0.1134  0.3512
12944TIP3    H260248   0.504   3.031   2.414 -0.5432 -0.8858  2.7691
12945TIP3   OH260249   5.782   1.725   6.350  0.0473 -0.3479 -0.1712
12945TIP3    H160250   5.843   1.794   6.325  1.2942 -1.3146  0.1320
12945TIP3    H260251   5.823   1.682   6.424 -1.4560 -0.4403  0.6514
12946TIP3   OH260252   2.295   5.681   2.655 -0.3572  0.5978 -0.0691
12946TIP3    H160253   2.354   5.684   2.731  0.2160  0.3105 -0.4935
12946TIP3    H260254   2.343   5.629   2.590 -2.5429 -2.8743  0.8207
12947TIP3   OH260255   2.879   0.810   1.852  0.2416  0.4989  0.0881
12947TIP3    H160256   2.900   0.760   1.930 -0.3339  0.0941 -0.0105
12947TIP3    H260257   2.959   0.860   1.833  0.4539  0.4474  0.8103
12948TIP3   OH260258   5.938   0.258   1.531 -0.1447  0.1922 -0.0798
12948TIP3    H160259   5.857   0.208   1.545  0.7199 -0.9695  1.0247
12948TIP3    H260260   5.933   0.329   1.595  0.3661 -0.7578  1.0519
12949TIP3   OH260261   1.078   0.044   5.088  0.4355 -0.6219  0.2233
12949TIP3    H160262   1.034   0.055   5.172 -3.0416  0.9040 -1.5567
12949TIP3    H260263   1.134   0.121   5.080  0.7029 -0.7188  1.0827
12950TIP3   OH260264   0.491   6.596   1.493  0.3370  0.6890  0.1793
12950TIP3    H160265   0.421   6.651   1.529 -0.1871 -0.4199  0.9198
12950TIP3    H260266   0.544   6.656   1.440 -0.2656  1.8696  0.8744
12951TIP3   OH260267   6.216   1.263  15.170 -0.0446 -0.4969 -0.1146
12951TIP3    H160268   6.222   1.247  15.076 -0.9100  0.5009 -0.3618
12951TIP3    H260269   6.222   1.176  15.210 -2.1044 -1.2012 -1.2174
12952TIP3   OH260270   0.550   5.999   1.435  0.1595  0.3237 -0.2078
12952TIP3    H160271   0.625   6.052   1.408  1.0836 -1.1829 -0.6667
12952TIP3    H260272   0.490   6.063   1.475  1.5685  1.5948 -0.0161
12953TIP3   OH260273   6.456   0.869   5.347 -0.1184 -0.2883 -0.2968
12953TIP3    H160274   6.381   0.925   5.370 -0.3753 -0.8932  0.3863
12953TIP3    H260275   6.416   0.791   5.307  0.0266 -1.1845  1.2165
12954TIP3   OH260276   5.879   6.206  11.801 -0.4032 -0.2372  0.4163
12954TIP3    H160277   5.937   6.192  11.726  1.5174  0.0396  1.7729
12954TIP3    H260278   5.832   6.124  11.811 -0.5972 -0.3278 -0.9906
12955TIP3   OH260279   0.187   2.713   3.002 -0.0136 -0.0875  0.0643
12955TIP3    H160280   0.101   2.680   3.028  1.2452 -2.1061  2.0786
12955TIP3    H260281   0.228   2.742   3.084  2.4339 -2.4294 -0.1683
12956TIP3   OH260282   6.125   4.338  16.422 -0.5720  0.6384 -0.1395
12956TIP3    H160283   6.202   4.383  16.456 -0.1226 -0.4479  0.3460
12956TIP3    H260284   6.052   4.396  16.443  0.1485  1.9275 -1.0522
12957TIP3   OH260285   2.344   5.416   0.817 -0.2930  0.3443  0.3133
12957TIP3    H160286   2.276   5.475   0.849 -0.3078  0.6876 -0.3359
12957TIP3    H260287   2.425   5.450   0.855 -0.4564  0.0424  0.9403
12958TIP3   OH260288   3.704   3.029   0.726  0.4267 -0.7210 -0.3531
12958TIP3    H160289   3.656   2.947   0.740  1.5591 -1.2739  0.4282
12958TIP3    H260290   3.718   3.063   0.814 -2.1087  1.5913 -0.7319
12959TIP3   OH260291   4.724   3.898  14.166  0.3479  0.0749  0.2966
12959TIP3    H160292   4.723   3.807  14.138 -0.5438  0.4677 -1.0162
12959TIP3    H260293   4.817   3.922  14.164  0.5925 -0.8026  0.6775
12960TIP3   OH260294   4.232   0.087   5.959  0.0256 -0.6251 -0.1214
12960TIP3    H160295   4.224   0.137   5.878  0.9842  1.3754  0.9437
12960TIP3    H260296   4.304   0.026   5.943  1.9899  1.5203 -0.0111
12961TIP3   OH260297   0.860   5.003   1.470 -0.3168 -0.0516  0.0894
12961TIP3    H160298   0.789   5.036   1.415  1.3409  1.1619 -1.4178
12961TIP3    H260299   0.836   4.911   1.487 -1.3410 -0.2017 -1.9120
12962TIP3   OH260300   0.772   6.212   1.453  0.1291 -0.1299 -0.0343
12962TIP3    H160301   0.708   6.278   1.426 -0.3908 -0.8540 -0.6150
12962TIP3    H260302   0.840   6.261   1.499  0.5507  1.0543 -1.8018
12963TIP3   OH260303   1.071   1.563   1.864 -0.6224  0.4939 -0.1572
12963TIP3    H160304   1.000   1.513   1.906 -0.0301 -0.1532  0.0959
12963TIP3    H260305   1.071   1.533   1.773 -0.3169  0.0862 -0.0236
12964TIP3   OH260306   0.975   0.413  13.689  0.0742 -0.7713 -0.2032
12964TIP3    H160307   0.999   0.498  13.653  0.8754 -1.3210 -1.0211
12964TIP3    H260308   0.895   0.429  13.739 -1.0956  0.0250 -2.2314
12965TIP3   OH260309   1.018   6.680  13.690  0.1831 -0.1227 -0.4926
12965TIP3    H160310   1.018   6.670  13.595 -0.4945 -0.2188 -0.4907
12965TIP3    H260311   0.973   6.763  13.705  4.3736  2.4383 -0.4390
12966TIP3   OH260312   6.674   4.587   6.732  0.3421 -0.5080 -0.1052
12966TIP3    H160313   6.619   4.656   6.769  1.5970  0.0739  0.7363
12966TIP3    H260314   6.749   4.634   6.694  0.2842 -1.2795 -1.2233
12967TIP3   OH260315   1.280   4.349   5.940  0.5531  0.7690  0.0892
12967TIP3    H160316   1.342   4.402   5.891  2.5677 -1.8478 -0.3878
12967TIP3    H260317   1.330   4.314   6.014 -1.5568  1.9918  2.2799
12968TIP3   OH260318   2.243   0.454  16.052 -0.2706 -0.0427  0.5781
12968TIP3    H160319   2.214   0.545  16.049  0.3131  0.1265 -0.2452
12968TIP3    H260320   2.165   0.403  16.032 -0.9786  0.1778  2.5648
12969TIP3   OH260321   1.236   1.889  15.151  0.5807  0.8395 -0.0867
12969TIP3    H160322   1.196   1.950  15.213  0.0983 -0.7923  1.2966
12969TIP3    H260323   1.166   1.829  15.127  1.7398 -1.2035  1.2740
12970TIP3   OH260324   6.677   0.088  16.322 -0.0853  0.3647 -0.0548
12970TIP3    H160325   6.744   0.154  16.343  2.0103 -1.7638  0.3026
12970TIP3    H260326   6.612   0.098  16.392  0.7602  1.2772  0.6365
12971TIP3   OH260327   4.534   3.219  12.563 -0.1382  0.2549 -0.1521
12971TIP3    H160328   4.445   3.189  12.582 -0.3793  1.0302 -0.0244
12971TIP3    H260329   4.583   3.139  12.542 -0.6420 -0.2690  0.6559
12972TIP3   OH260330   6.389   2.163  10.986  0.3901 -0.4409 -0.0580
12972TIP3    H160331   6.425   2.251  10.977 -0.9832 -0.0284 -2.1547
12972TIP3    H260332   6.430   2.113  10.915  0.9819 -1.4745  0.9688
12973TIP3   OH260333   6.552   6.633  16.900 -0.4692  0.0188 -0.5497
12973TIP3    H160334   6.621   6.680  16.852  0.1869  0.5087  0.8192
12973TIP3    H260335   6.539   6.552  16.850  1.9954 -0.6775 -0.2015
12974TIP3   OH260336   3.715   6.449   1.157 -0.2123  0.1439 -0.5286
12974TIP3    H160337   3.728   6.529   1.106  0.5473  0.6235  0.4019
12974TIP3    H260338   3.669   6.390   1.097  0.8348  0.6158 -1.8531
12975TIP3   OH260339   3.515   5.666   2.463  0.3521  0.2753  0.1442
12975TIP3    H160340   3.567   5.687   2.540  1.7118  0.7909 -0.8649
12975TIP3    H260341   3.486   5.575   2.476  1.2431  0.0929  0.8824
12976TIP3   OH260342   4.557   1.485  16.569  0.2198  0.2379 -0.4393
12976TIP3    H160343   4.504   1.482  16.490  1.1909  0.5434 -1.1244
12976TIP3    H260344   4.561   1.578  16.591  0.5240  0.2276 -0.4403
12977TIP3   OH260345   2.595   1.848   5.431  0.6544  0.2831  0.3006
12977TIP3    H160346   2.513   1.799   5.438  1.3269 -2.0860 -4.2710
12977TIP3    H260347   2.568   1.938   5.412 -0.9502 -0.3715 -0.7346
12978TIP3   OH260348   5.975   6.499   3.603 -0.5708 -0.6920  0.0186
12978TIP3    H160349   5.984   6.416   3.650  0.1423 -1.0078 -0.6567
12978TIP3    H260350   6.037   6.493   3.531  0.2176  0.8241  0.5242
12979TIP3   OH260351   0.142   6.320  14.484  0.0464 -0.3990  0.0429
12979TIP3    H160352   0.113   6.235  14.453 -1.0130 -0.3188  0.7488
12979TIP3    H260353   0.166   6.305  14.576  0.2805 -0.0330  0.0421
12980TIP3   OH260354   3.535   3.285  15.744  0.4002 -0.0641  0.3983
12980TIP3    H160355   3.464   3.241  15.697  0.1020 -0.1428  0.9170
12980TIP3    H260356   3.591   3.320  15.675 -0.6925  0.9013 -0.0203
12981TIP3   OH260357   3.706   0.221  14.189  0.1151 -0.5610 -0.3132
12981TIP3    H160358   3.647   0.218  14.264  1.5349 -0.2686  0.8541
12981TIP3    H260359   3.706   0.312  14.161 -0.7296 -0.7433 -0.9649
12982TIP3   OH260360   3.283   6.523   1.789 -0.6797  0.8986 -0.0046
12982TIP3    H160361   3.225   6.540   1.864  1.2835  3.3348  1.1058
12982TIP3    H260362   3.371   6.539   1.822  0.3911  0.6443 -2.4985
12983TIP3   OH260363   4.006   4.219   2.117  0.4051 -0.8735 -0.2639
12983TIP3    H160364   3.932   4.173   2.076 -1.1891  0.1707  1.2877
12983TIP3    H260365   4.078   4.208   2.055 -2.1032  1.6595 -4.0920
12984TIP3   OH260366   1.128   2.332   2.001  0.4070 -0.3492  0.1037
12984TIP3    H160367   1.174   2.249   2.014 -0.2703 -0.7396  0.0657
12984TIP3    H260368   1.036   2.310   2.013  0.0574  0.0367 -1.6343
12985TIP3   OH260369   5.385   0.691  11.160 -0.4988 -0.1104 -0.3712
12985TIP3    H160370   5.328   0.711  11.234  1.6986  0.3620  1.2821
12985TIP3    H260371   5.335   0.628  11.108 -2.0851 -0.5509  1.5672
12986TIP3   OH260372   4.600   6.551  14.221  0.6266  0.1946 -0.1897
12986TIP3    H160373   4.598   6.549  14.317  1.6014 -1.0627 -0.1654
12986TIP3    H260374   4.573   6.640  14.198  1.3980  0.8481  1.2912
12987TIP3   OH260375   6.770   3.942  16.658  0.1607  0.2549  0.9392
12987TIP3    H160376   6.786   3.996  16.581 -0.8008  0.8499  1.1294
12987TIP3    H260377   6.767   4.005  16.730 -3.7914  0.4479  0.8403
12988TIP3   OH260378   1.622   0.742  12.633 -0.4728  0.1324 -0.6079
12988TIP3    H160379   1.626   0.737  12.729  2.5482  2.2444 -0.4547
12988TIP3    H260380   1.572   0.822  12.615  0.7197  0.8987 -0.6456
12989TIP3   OH260381   6.218   5.170  15.903 -0.5764 -0.1028  0.0464
12989TIP3    H160382   6.266   5.234  15.957  0.8336  0.4189 -1.6993
12989TIP3    H260383   6.169   5.118  15.966 -0.1819  1.4012  1.7078
12990TIP3   OH260384   3.833   4.311   5.837  0.2067 -0.1278  0.7467
12990TIP3    H160385   3.843   4.249   5.909  1.3825 -1.4761 -0.5083
12990TIP3    H260386   3.886   4.274   5.766  0.0151  1.7430 -0.4359
12991TIP3   OH260387   6.487   2.156   6.033  0.0406  0.1341 -0.1936
12991TIP3    H160388   6.460   2.115   6.115 -0.9801  0.6186 -0.2696
12991TIP3    H260389   6.572   2.195   6.052  1.7187 -3.0163 -0.4443
12992TIP3   OH260390   3.318   3.734   4.756  0.0552 -0.3235 -0.1008
12992TIP3    H160391   3.385   3.773   4.812 -0.3694  0.5848 -0.2113
12992TIP3    H260392   3.368   3.690   4.687  0.5655 -0.8818  0.6134
12993TIP3   OH260393   1.284   5.967  16.879 -0.2941  0.0372  0.1881
12993TIP3    H160394   1.191   5.955  16.858 -0.5439  2.1025 -0.0238
12993TIP3    H260395   1.288   5.960  16.975 -0.6607 -0.0102  0.2024
12994TIP3   OH260396   3.662   6.140   4.311  0.0801 -0.3941  0.2817
12994TIP3    H160397   3.594   6.080   4.341 -0.7133 -0.0235 -0.7329
12994TIP3    H260398   3.675   6.200   4.384  1.1116 -1.9386  1.4477
12995TIP3   OH260399   5.194   1.870  11.338  0.0732  0.2590 -0.5799
12995TIP3    H160400   5.217   1.877  11.245  0.0935 -0.8088 -0.6776
12995TIP3    H260401   5.214   1.956  11.375  3.3596 -0.2414 -0.8495
12996TIP3   OH260402   6.608   0.326  12.567  0.6437 -0.2919  0.4563
12996TIP3    H160403   6.681   0.333  12.505 -0.1898 -0.5547 -0.5696
12996TIP3    H260404   6.591   0.417  12.593 -0.7574  0.1773 -1.8209
12997TIP3   OH260405   5.029   3.820   3.102  0.2259 -0.0713  0.3760
12997TIP3    H160406   5.120   3.805   3.079  0.4832  0.4049  1.0468
12997TIP3    H260407   5.001   3.740   3.146  0.3626 -0.1698  0.2818
12998TIP3   OH260408   0.974   6.365   6.752  0.1304 -0.0016 -0.2963
12998TIP3    H160409   0.979   6.287   6.697  0.2606  0.3723 -0.8264
12998TIP3    H260410   1.057   6.410   6.736  0.1563  0.1231  0.1887
12999TIP3   OH260411   0.534   0.470   0.193 -0.2262  0.0947 -0.4210
12999TIP3    H160412   0.474   0.395   0.192 -1.0601  0.7598 -0.6801
12999TIP3    H260413   0.614   0.436   0.234 -0.1955 -1.2443 -1.5187
13000TIP3   OH260414   1.322   4.851  16.972 -0.3593  0.0386 -0.1447
13000TIP3    H160415   1.290   4.858  16.882 -0.9272 -0.8794 -0.0252
13000TIP3    H260416   1.417   4.862  16.964 -0.5146  1.1442 -0.7029
13001TIP3   OH260417   4.977   6.258   5.158  0.0659  0.0604 -0.1540
13001TIP3    H160418   5.072   6.248   5.157 -0.0511 -1.2947 -1.3193
13001TIP3    H260419   4.952   6.233   5.247  0.8312  0.9600  0.3295
13002TIP3   OH260420   1.320   3.047  16.073 -0.4591 -0.2588 -0.2821
13002TIP3    H160421   1.296   2.955  16.076  1.5480 -0.8151  0.8847
13002TIP3    H260422   1.338   3.070  16.164  0.0636  0.9863 -0.6765
13003TIP3   OH260423   3.690   0.172  11.766 -0.3476  0.1566  0.2246
13003TIP3    H160424   3.684   0.151  11.672 -0.9134 -0.4597  0.3915
13003TIP3    H260425   3.631   0.110  11.808 -0.8913  1.1099  0.8941
13004TIP3   OH260426   1.970   1.158   1.338  0.0807 -0.0484  0.3382
13004TIP3    H160427   2.048   1.214   1.329  0.6840 -0.8097  0.7627
13004TIP3    H260428   1.926   1.165   1.253 -0.3605  1.7834  0.6578
13005TIP3   OH260429   1.602   6.365   1.492 -0.5179 -0.1887 -0.3759
13005TIP3    H160430   1.567   6.303   1.556 -0.9779  1.1012  0.6535
13005TIP3    H260431   1.672   6.411   1.538  0.1218 -0.2325 -1.2716
13006TIP3   OH260432   0.551   6.309  13.976 -0.1753 -0.3129  0.0663
13006TIP3    H160433   0.619   6.247  14.001 -1.1518 -0.6146  2.2858
13006TIP3    H260434   0.469   6.267  14.005 -1.1545  0.7178 -1.0904
13007TIP3   OH260435   1.973   4.140   0.284  0.7534 -0.8818 -0.2368
13007TIP3    H160436   2.030   4.102   0.217  0.7837 -1.2286 -0.0199
13007TIP3    H260437   2.013   4.113   0.367  0.4481 -0.8649 -0.0836
13008TIP3   OH260438   1.962   3.990   5.537 -0.8559  0.0956  0.1323
13008TIP3    H160439   1.929   4.035   5.615 -1.0634 -0.6925  0.5110
13008TIP3    H260440   2.022   4.053   5.496 -1.4022  0.8407  0.4547
13009TIP3   OH260441   5.922   4.912  12.646  0.0674  0.5367  0.0292
13009TIP3    H160442   5.833   4.935  12.673  0.1158 -0.5881  1.2435
13009TIP3    H260443   5.943   4.976  12.578 -1.2141  1.5776  0.5599
13010TIP3   OH260444   6.370   1.760  15.390  0.0865 -0.1515 -0.0341
13010TIP3    H160445   6.312   1.822  15.433  0.6533 -0.6493  1.5184
13010TIP3    H260446   6.388   1.694  15.457  1.9480 -0.3342 -0.6604
13011TIP3   OH260447   3.348   3.057   1.700  0.1715  0.3539  0.0656
13011TIP3    H160448   3.312   3.041   1.613  0.9105  0.2892 -0.2370
13011TIP3    H260449   3.431   3.009   1.701  0.3855  0.7233  0.6468
13012TIP3   OH260450   4.852   2.279  16.444 -0.1481 -0.0886  0.2890
13012TIP3    H160451   4.874   2.289  16.352  2.8334  0.9657  1.0199
13012TIP3    H260452   4.912   2.211  16.476  0.3964  1.0669  1.8738
13013TIP3   OH260453   5.253   2.006  15.092  0.1876 -0.4842 -0.4684
13013TIP3    H160454   5.235   2.049  15.176 -0.7773 -2.0081  0.1528
13013TIP3    H260455   5.261   2.078  15.030 -2.1654  0.6128  0.3618
13014TIP3   OH260456   2.694   3.844  13.183  1.1249 -0.0960  0.2578
13014TIP3    H160457   2.706   3.855  13.278 -2.4238  2.3661  0.6517
13014TIP3    H260458   2.622   3.782  13.176  0.1733  1.0674 -0.6806
13015TIP3   OH260459   2.878   1.605   6.466  0.6542 -0.2152 -0.4493
13015TIP3    H160460   2.844   1.687   6.503 -2.5668 -1.2151 -0.8230
13015TIP3    H260461   2.845   1.605   6.376  0.7315 -1.8173 -0.4963
13016TIP3   OH260462   2.505   2.990  15.882  0.3258 -0.2205  0.0638
13016TIP3    H160463   2.434   3.053  15.894 -0.2453 -0.8600  0.0855
13016TIP3    H260464   2.541   2.978  15.970 -0.0548 -0.4852  0.1873
13017TIP3   OH260465   1.100   1.940   1.090  0.2944 -0.0390 -0.1969
13017TIP3    H160466   1.062   1.852   1.096  0.9516 -0.5306 -2.2203
13017TIP3    H260467   1.139   1.956   1.175 -1.4729 -0.9103  0.8278
13018TIP3   OH260468   3.309   0.665  16.685  0.1344  0.1692 -0.1341
13018TIP3    H160469   3.218   0.680  16.658 -0.2256 -0.8917  0.4228
13018TIP3    H260470   3.361   0.711  16.619 -0.7537 -1.0356 -1.7735
13019TIP3   OH260471   5.140   1.543   4.013  0.1087 -0.0395  0.1804
13019TIP3    H160472   5.148   1.451   4.036  1.4981  0.6223  2.6878
13019TIP3    H260473   5.224   1.566   3.973  0.4515  0.5104  1.1792
13020TIP3   OH260474   1.457   5.061   3.471 -0.0928 -0.7150 -0.3195
13020TIP3    H160475   1.408   5.143   3.478 -0.1648 -0.8201  0.5388
13020TIP3    H260476   1.391   4.996   3.444 -0.4487 -0.8554  0.8318
13021TIP3   OH260477   4.683   1.826  16.116 -0.3814  0.0133  0.6285
13021TIP3    H160478   4.597   1.784  16.124 -0.5009  0.1233 -0.0311
13021TIP3    H260479   4.664   1.909  16.071  0.3377 -0.9048 -1.4938
13022TIP3   OH260480   4.956   5.643  14.819  0.1915 -0.1561  0.6662
13022TIP3    H160481   4.904   5.563  14.831  1.4275 -0.7097  2.8734
13022TIP3    H260482   4.909   5.710  14.869  0.6588 -0.2316  1.2187
13023TIP3   OH260483   0.953   3.349  11.795 -0.0025 -0.3759  0.4302
13023TIP3    H160484   0.858   3.342  11.791 -0.0698 -0.0394  1.2458
13023TIP3    H260485   0.977   3.392  11.713 -0.6396  0.3371  0.6074
13024TIP3   OH260486   4.514   0.390  15.699  0.5558  0.1331 -0.3850
13024TIP3    H160487   4.544   0.307  15.734 -0.5834 -0.1112  0.0709
13024TIP3    H260488   4.587   0.423  15.647  2.5118  0.7753  2.5831
13025TIP3   OH260489   5.841   0.118  11.293  0.6906 -0.2535 -0.1776
13025TIP3    H160490   5.851   0.090  11.384 -3.2599 -0.6945  0.3264
13025TIP3    H260491   5.844   0.213  11.297  0.6814 -0.2711  0.4187
13026TIP3   OH260492   4.220   1.984  14.168 -0.2055  0.2465  0.3186
13026TIP3    H160493   4.286   2.049  14.191  0.0429  0.2053 -0.2651
13026TIP3    H260494   4.270   1.905  14.147 -0.5328 -0.3118  1.5669
13027TIP3   OH260495   3.981   2.068  14.779  0.1277  0.2403 -0.4884
13027TIP3    H160496   3.920   2.047  14.708 -0.2127 -0.5532  0.0286
13027TIP3    H260497   4.059   2.102  14.734 -0.3899  0.5102 -1.1931
13028TIP3   OH260498   1.880   2.508   5.868  0.4343 -0.0519  0.0481
13028TIP3    H160499   1.897   2.489   5.775 -2.1959 -0.9395 -0.3161
13028TIP3    H260500   1.818   2.580   5.867 -0.5767 -0.8706  1.0540
13029TIP3   OH260501   5.371   3.445  17.204  0.2961  0.2393  0.4147
13029TIP3    H160502   5.404   3.532  17.228  1.0193  0.4205 -1.0725
13029TIP3    H260503   5.300   3.428  17.265  0.1414  1.8828  0.7450
13030TIP3   OH260504   6.298   5.032  10.836 -0.8015  0.4647  0.0612
13030TIP3    H160505   6.225   5.091  10.854 -1.0915  0.0084  0.4215
13030TIP3    H260506   6.374   5.089  10.829 -0.8550  0.7954  1.6794
13031TIP3   OH260507   6.701   0.365   5.666  0.1611  0.1243  0.4633
13031TIP3    H160508   6.679   0.346   5.758 -0.7153 -1.2273  0.0076
13031TIP3    H260509   6.682   0.458   5.656 -0.5435  0.1076  1.4385
13032TIP3   OH260510   2.799   5.234  16.608 -0.5290  0.4290  0.2260
13032TIP3    H160511   2.849   5.295  16.554  1.3839 -0.8879  0.4309
13032TIP3    H260512   2.812   5.149  16.568 -2.1829 -0.0674  0.6381
13033TIP3   OH260513   3.842   4.095   1.667 -0.3094  0.2229 -0.3903
13033TIP3    H160514   3.830   4.108   1.572 -0.0213  0.2376 -0.4264
13033TIP3    H260515   3.754   4.103   1.703 -0.4095  0.3169 -0.6466
13034TIP3   OH260516   4.381   2.651   0.597 -0.0832 -0.3674  0.0261
13034TIP3    H160517   4.386   2.674   0.504 -0.3478 -0.9891 -0.1458
13034TIP3    H260518   4.393   2.556   0.599  0.7511 -0.2556  0.7002
13035TIP3   OH260519   5.415   2.951   4.985 -0.3647 -0.1792 -0.2918
13035TIP3    H160520   5.374   3.019   5.038  0.1677  0.7906 -1.0917
13035TIP3    H260521   5.456   2.893   5.049 -0.5641  0.4219  0.3982
13036TIP3   OH260522   4.131   2.954  11.703  0.4480 -0.1787  0.2618
13036TIP3    H160523   4.166   3.036  11.668  0.1092 -0.0662  0.1738
13036TIP3    H260524   4.040   2.953  11.673  0.3558 -0.4269  0.5464
13037TIP3   OH260525   6.014   2.098   4.085  0.0415  0.3293 -0.5140
13037TIP3    H160526   6.067   2.121   4.009 -0.2754 -1.0238 -1.1756
13037TIP3    H260527   6.012   2.178   4.138  2.1101  0.6534 -0.8264
13038TIP3   OH260528   3.867   0.772   5.573  0.1842  0.4179  0.1512
13038TIP3    H160529   3.896   0.862   5.592  0.4986  0.4108 -0.2914
13038TIP3    H260530   3.789   0.760   5.628  1.0848  0.3899  1.4623
13039TIP3   OH260531   0.650   0.634  13.297 -0.5765  0.2927 -0.1402
13039TIP3    H160532   0.666   0.665  13.386 -0.2238  1.5152 -0.6182
13039TIP3    H260533   0.655   0.712  13.242 -1.6888 -0.2904 -1.1362
13040TIP3   OH260534   2.976   3.239  15.174 -0.0236  0.3364  0.5854
13040TIP3    H160535   2.979   3.276  15.086 -0.1365 -0.1477  0.3752
13040TIP3    H260536   3.016   3.153  15.166 -0.3690  0.1381  0.9316
13041TIP3   OH260537   3.331   0.419   2.428  0.1472 -0.5388 -0.8238
13041TIP3    H160538   3.393   0.443   2.497  0.2859 -1.4500 -0.6160
13041TIP3    H260539   3.305   0.329   2.449 -3.1506  0.5676  0.4998
13042TIP3   OH260540   3.728   5.601   4.330  0.0340 -0.2298  0.3320
13042TIP3    H160541   3.647   5.600   4.382  0.7453 -0.2006  1.4705
13042TIP3    H260542   3.791   5.648   4.384  1.2894 -1.6881  0.2029
13043TIP3   OH260543   3.657   5.403  14.970 -0.3210  0.3208 -0.3797
13043TIP3    H160544   3.597   5.405  14.896 -0.7185  0.9752 -0.0525
13043TIP3    H260545   3.601   5.412  15.047  0.1593  0.5148 -0.0458
13044TIP3   OH260546   3.537   3.069  13.047 -0.1296  0.0497  0.1348
13044TIP3    H160547   3.488   3.101  12.972  1.0763  1.4466 -0.0916
13044TIP3    H260548   3.533   2.973  13.039 -1.2376  0.1510 -0.8694
13045TIP3   OH260549   5.240   4.778   4.653 -0.2474 -0.0612 -0.7183
13045TIP3    H160550   5.274   4.858   4.613 -1.1160  0.4356 -0.4774
13045TIP3    H260551   5.268   4.708   4.594 -0.3937  0.5289 -1.4953
13046TIP3   OH260552   2.854   0.830   1.574 -0.0076  0.8209  0.2301
13046TIP3    H160553   2.788   0.883   1.530 -0.8352  1.2788  1.9392
13046TIP3    H260554   2.855   0.862   1.664  1.1565 -0.5092  0.7338
13047TIP3   OH260555   3.608   0.461   2.246 -0.3788  0.6281  0.3227
13047TIP3    H160556   3.640   0.461   2.336 -1.1912  1.4642  0.6332
13047TIP3    H260557   3.547   0.387   2.241  2.1323 -1.5487 -0.5244
13048TIP3   OH260558   2.219   5.807  11.203  0.0246 -0.2451 -0.2741
13048TIP3    H160559   2.124   5.809  11.192  0.1757  1.0414 -1.8105
13048TIP3    H260560   2.233   5.790  11.296 -1.6539 -2.5970 -0.3780
13049TIP3   OH260561   0.835   3.674   6.478 -0.1167 -0.2066  0.2807
13049TIP3    H160562   0.902   3.672   6.545 -1.9686  0.9828  2.2732
13049TIP3    H260563   0.754   3.651   6.524 -1.3881  0.1760 -1.6442
13050TIP3   OH260564   5.648   0.273  13.885 -0.9164 -0.6135  0.4905
13050TIP3    H160565   5.585   0.202  13.894 -0.7917 -0.7807  0.0706
13050TIP3    H260566   5.684   0.262  13.797 -0.5288 -0.3319  0.6118
13051TIP3   OH260567   2.311   3.945  11.957  0.6039  0.2318  0.0743
13051TIP3    H160568   2.377   3.877  11.972  0.0198 -0.1618  0.9626
13051TIP3    H260569   2.259   3.945  12.038  0.9612  2.1454  0.3553
13052TIP3   OH260570   2.544   5.366   5.618  0.6398 -0.2321 -0.5351
13052TIP3    H160571   2.595   5.407   5.548  1.0993 -0.4936 -0.3518
13052TIP3    H260572   2.541   5.432   5.687 -0.1267  0.1705 -0.9349
13053TIP3   OH260573   5.791   2.163   1.824 -0.1182  0.1318 -0.2573
13053TIP3    H160574   5.743   2.222   1.881  0.3543  1.6755 -1.3889
13053TIP3    H260575   5.881   2.193   1.828  0.4495 -1.5132  0.3306
13054TIP3   OH260576   6.376   4.960  12.482  0.0972  0.2649 -0.1409
13054TIP3    H160577   6.435   4.884  12.493  0.4713  0.5526 -0.1398
13054TIP3    H260578   6.425   5.019  12.425  0.2057  0.9255  0.6225
13055TIP3   OH260579   6.633   4.881  16.855 -0.5480 -1.0298 -1.0163
13055TIP3    H160580   6.573   4.817  16.893 -0.6415  0.3223  1.3503
13055TIP3    H260581   6.581   4.961  16.847  0.1960 -0.5955 -1.6135
13056TIP3   OH260582   2.808   3.015   5.108  0.0742 -0.6147 -0.3465
13056TIP3    H160583   2.822   3.064   5.189  0.8197 -1.0224 -0.2230
13056TIP3    H260584   2.864   3.059   5.044  0.2293 -0.8926 -0.4008
13057TIP3   OH260585   3.483   5.483  17.042 -0.2366  0.1198 -0.7085
13057TIP3    H160586   3.547   5.555  17.038 -1.5574  1.2766 -2.4241
13057TIP3    H260587   3.514   5.428  17.114  1.3115  1.9365  0.1131
13058TIP3   OH260588   6.128   2.384   4.226  0.3898  1.0149 -0.1849
13058TIP3    H160589   6.035   2.401   4.240  0.5507  0.2120  2.3865
13058TIP3    H260590   6.171   2.416   4.305  2.0495 -0.4215 -0.4285
13059TIP3   OH260591   5.602   6.159   1.209  0.0036 -0.3099 -0.0829
13059TIP3    H160592   5.581   6.132   1.120 -2.5568  0.0906  0.3231
13059TIP3    H260593   5.622   6.252   1.203 -1.9664  0.1629 -0.0712
13060TIP3   OH260594   5.163   5.535  16.047 -0.1862 -0.4100  0.2001
13060TIP3    H160595   5.104   5.564  15.978  1.8063  0.6871 -1.1667
13060TIP3    H260596   5.137   5.585  16.124 -0.4989  0.7032 -0.5967
13061TIP3   OH260597   3.220   1.095   5.216  0.2483  0.3955 -0.0157
13061TIP3    H160598   3.202   1.001   5.222  0.5029  0.1897 -1.8678
13061TIP3    H260599   3.176   1.133   5.291 -1.3950 -1.0087 -0.2145
13062TIP3   OH260600   2.718   1.991   1.598 -0.3213  0.2029  0.3034
13062TIP3    H160601   2.665   1.938   1.657  0.6979 -0.2696  0.8152
13062TIP3    H260602   2.697   1.958   1.511 -1.7091  0.7900  0.3797
13063TIP3   OH260603   1.754   1.129  13.497  0.1808  0.3170 -0.4504
13063TIP3    H160604   1.681   1.160  13.445 -0.7711 -0.4870  0.3481
13063TIP3    H260605   1.791   1.207  13.537  0.6658  0.8869 -1.9831
13064TIP3   OH260606   4.618   5.667   3.520  0.3018  0.2175  0.6731
13064TIP3    H160607   4.617   5.593   3.459  1.1394 -0.1930  1.1433
13064TIP3    H260608   4.555   5.729   3.483  0.0416 -0.4636 -0.0570
13065TIP3   OH260609   0.855   6.205  11.036 -0.4039 -0.4579 -0.5768
13065TIP3    H160610   0.775   6.230  10.990 -0.7377  1.1442  0.7896
13065TIP3    H260611   0.902   6.288  11.050  1.1431 -1.2685 -0.6790
13066TIP3   OH260612   0.538   5.746  14.128 -0.2466 -0.1877  0.8779
13066TIP3    H160613   0.554   5.826  14.078 -0.5586 -0.7471 -0.1297
13066TIP3    H260614   0.457   5.764  14.176 -0.7814 -0.1984 -0.0012
13067TIP3   OH260615   2.202   2.271   5.798 -0.1285  0.1838  0.0627
13067TIP3    H160616   2.116   2.234   5.820  0.1180 -0.2597  0.3139
13067TIP3    H260617   2.230   2.316   5.878 -0.2510  0.5634 -0.1104
13068TIP3   OH260618   4.562   1.286  14.904 -0.1165  0.2652 -0.0279
13068TIP3    H160619   4.654   1.289  14.928 -0.0017  0.4081 -0.4790
13068TIP3    H260620   4.562   1.274  14.809 -0.5626 -0.1197  0.0158
13069TIP3   OH260621   3.819   6.525  14.329  0.4490 -0.0280  0.3870
13069TIP3    H160622   3.726   6.530  14.309  0.3086 -0.0312  1.0275
13069TIP3    H260623   3.863   6.543  14.246 -0.1180 -1.8786 -0.3788
13070TIP3   OH260624   5.193   0.596  14.794 -0.4040  0.4424 -0.0054
13070TIP3    H160625   5.178   0.660  14.863  0.9513 -1.0028  1.7415
13070TIP3    H260626   5.151   0.516  14.825  0.9056 -0.4608 -0.4292
13071TIP3   OH260627   4.028   3.639   5.189 -0.0283 -0.1128  0.2835
13071TIP3    H160628   4.096   3.703   5.170 -0.3535  0.1442 -0.0072
13071TIP3    H260629   3.996   3.611   5.104  0.6145 -1.2110  0.3741
13072TIP3   OH260630   2.295   0.381   0.037 -0.0695  0.3696 -0.2626
13072TIP3    H160631   2.340   0.378  -0.048 -0.3752 -1.0978 -0.3860
13072TIP3    H260632   2.240   0.303   0.038 -1.0180  1.0288  0.7812
13073TIP3   OH260633   0.573   4.097  13.078  0.1015 -0.2235  0.2728
13073TIP3    H160634   0.632   4.104  13.152 -2.3890 -0.5858  2.4514
13073TIP3    H260635   0.546   4.187  13.059 -0.6595 -0.2729  1.0702
13074TIP3   OH260636   4.557   4.534   1.931  0.0451  0.3079  0.5260
13074TIP3    H160637   4.462   4.524   1.930  0.0883 -0.1446 -0.9994
13074TIP3    H260638   4.587   4.489   1.853  1.5613  0.1488  1.1616
13075TIP3   OH260639   0.766   5.007   3.039  0.0673 -0.2084  0.7143
13075TIP3    H160640   0.842   4.987   3.094  0.8195 -1.8687 -0.8226
13075TIP3    H260641   0.748   4.925   2.993 -2.0666  0.4249  0.2897
13076TIP3   OH260642   4.726   5.892   1.033 -0.2472 -0.0376  1.1639
13076TIP3    H160643   4.776   5.822   1.075  0.1776  1.8586  4.1118
13076TIP3    H260644   4.793   5.951   0.997 -0.4928  0.2924  1.2406
13077TIP3   OH260645   0.189   4.178  14.598 -0.1276 -0.4222  0.9192
13077TIP3    H160646   0.254   4.233  14.555  1.0676 -0.8136  2.1700
13077TIP3    H260647   0.235   4.140  14.672 -2.2237  0.5932  2.8513
13078TIP3   OH260648   4.414   5.652   2.074 -0.0328  0.1268 -0.3167
13078TIP3    H160649   4.438   5.651   2.167  1.5958 -0.2294 -0.7065
13078TIP3    H260650   4.386   5.562   2.055 -0.4750  0.2271 -0.1629
13079TIP3   OH260651   2.307   2.086  16.320 -0.3366 -0.3607 -0.0043
13079TIP3    H160652   2.388   2.081  16.269 -0.6953 -0.2066 -0.6077
13079TIP3    H260653   2.249   2.023  16.278 -0.1173 -1.4169  1.2155
13080TIP3   OH260654   6.789   0.285   0.686  0.2135  0.1121 -0.2089
13080TIP3    H160655   6.734   0.287   0.608 -0.1627 -0.3963  0.0371
13080TIP3    H260656   6.801   0.192   0.705 -0.4017  0.2157  0.8106
13081TIP3   OH260657   3.494   1.144   5.299 -0.1353 -0.2991 -0.3189
13081TIP3    H160658   3.530   1.230   5.278 -1.9123  0.4646 -0.4623
13081TIP3    H260659   3.416   1.136   5.243 -1.3414 -0.9669  1.3507
13082TIP3   OH260660   0.517   2.806   0.662  0.3805  0.2504 -0.5531
13082TIP3    H160661   0.494   2.768   0.577  0.2321 -0.1230 -0.3492
13082TIP3    H260662   0.512   2.900   0.648  3.0437  0.3127 -1.7142
13083TIP3   OH260663   3.000   3.721   5.306 -0.7035 -0.3934 -0.7023
13083TIP3    H160664   2.912   3.683   5.304 -0.0675 -2.0955  0.7071
13083TIP3    H260665   3.036   3.701   5.219 -1.8147  0.6907 -1.4444
13084TIP3   OH260666   3.146   1.720  13.566  0.2597 -0.0916  0.1816
13084TIP3    H160667   3.162   1.690  13.656 -0.7813  0.9333  0.7395
13084TIP3    H260668   3.089   1.654  13.528  0.1991 -0.2148  0.4858
13085TIP3   OH260669   3.341   5.148  13.118 -0.3474  1.0084 -0.0097
13085TIP3    H160670   3.378   5.221  13.069 -0.6617  0.9150 -0.3880
13085TIP3    H260671   3.327   5.183  13.206  0.3244  1.1409  0.0458
13086TIP3   OH260672   3.189   3.921  16.226  0.0987  0.1545 -0.1043
13086TIP3    H160673   3.168   3.831  16.249 -0.7210  0.3856  0.0645
13086TIP3    H260674   3.285   3.923  16.223  0.1433 -1.3331 -2.5464
13087TIP3   OH260675   1.058   2.095  16.684 -0.2296 -0.2617 -0.1739
13087TIP3    H160676   1.054   2.033  16.611 -1.7658 -0.3768 -0.0309
13087TIP3    H260677   1.141   2.077  16.726 -0.0611 -1.3353 -0.9191
13088TIP3   OH260678   1.205   5.074  17.113 -0.4871  0.3482  0.2257
13088TIP3    H160679   1.160   5.128  17.049 -0.6341  0.7143  0.6278
13088TIP3    H260680   1.237   4.999  17.064 -2.9118 -0.7626  0.1989
13089TIP3   OH260681   3.357   3.840  13.782  0.0234 -0.5544  0.6229
13089TIP3    H160682   3.322   3.911  13.836  1.7056  0.2872  0.6844
13089TIP3    H260683   3.450   3.837  13.805 -0.1182 -3.3111  1.1718
13090TIP3   OH260684   4.473   1.553   3.401 -0.2876  0.3144 -0.0818
13090TIP3    H160685   4.555   1.577   3.357 -0.2046 -0.4329 -0.3483
13090TIP3    H260686   4.408   1.613   3.364 -0.3016 -0.5661 -1.5570
13091TIP3   OH260687   4.440   4.216   2.150 -0.5634 -0.6836  0.2188
13091TIP3    H160688   4.511   4.152   2.157 -0.6248 -0.9153 -1.0575
13091TIP3    H260689   4.465   4.286   2.210 -1.0560 -2.3824  2.5405
13092TIP3   OH260690   5.787   2.700   5.568 -0.1131  0.4228  0.1193
13092TIP3    H160691   5.747   2.647   5.499  0.6824 -2.3971  1.6428
13092TIP3    H260692   5.733   2.778   5.573 -1.1997 -0.0422 -2.4985
13093TIP3   OH260693   1.265   3.123   1.539 -0.0371 -0.8562 -0.1661
13093TIP3    H160694   1.169   3.121   1.541 -0.0268 -1.2706 -0.0374
13093TIP3    H260695   1.287   3.182   1.467 -0.3845 -1.4276 -0.7434
13094TIP3   OH260696   0.440   1.304  16.800  0.7001 -0.8524  0.1526
13094TIP3    H160697   0.524   1.273  16.831  0.5081  1.0041  2.8307
13094TIP3    H260698   0.375   1.255  16.851  0.2063 -0.9162 -0.5177
13095TIP3   OH260699   1.990   3.578   2.192  0.7430 -0.1678 -0.7708
13095TIP3    H160700   1.914   3.525   2.218  1.6092 -0.4649  1.3601
13095TIP3    H260701   1.953   3.662   2.167 -0.4115 -0.7966 -1.2746
13096TIP3   OH260702   5.957   5.889   4.737  0.1016  0.5202 -0.0697
13096TIP3    H160703   5.862   5.891   4.727  0.0088 -0.8366  0.3048
13096TIP3    H260704   5.976   5.798   4.759  1.3483  1.0659  1.2300
13097TIP3   OH260705   4.593   2.810   3.758  0.4606 -0.1003  0.1850
13097TIP3    H160706   4.614   2.890   3.710 -1.0891 -0.4445 -1.1572
13097TIP3    H260707   4.674   2.788   3.805  1.7470  0.7900 -1.5127
13098TIP3   OH260708   0.986   3.285   1.321 -0.0004  0.1047  0.6431
13098TIP3    H160709   0.925   3.252   1.256  1.7951 -1.3225 -0.4140
13098TIP3    H260710   0.979   3.223   1.394  1.0270 -0.7875  0.0087
13099TIP3   OH260711   1.782   4.696  10.979  0.2945  0.9393  0.8238
13099TIP3    H160712   1.694   4.694  10.944  0.8531 -0.0730 -0.6395
13099TIP3    H260713   1.771   4.721  11.071 -1.9389 -2.7891  1.8009
13100TIP3   OH260714   6.157   3.067   3.001  0.0067 -0.0973 -0.2012
13100TIP3    H160715   6.177   3.107   2.917 -0.8311  0.7057 -0.0373
13100TIP3    H260716   6.105   3.133   3.047  0.6402 -0.4260  1.0400
13101TIP3   OH260717   0.150   5.159  14.892  0.2063 -0.1681 -0.1134
13101TIP3    H160718   0.057   5.143  14.876 -0.0327  0.8501  0.1802
13101TIP3    H260719   0.153   5.248  14.928  1.2320 -0.4180  0.4532
13102TIP3   OH260720   1.489   3.054   3.440  0.3296  0.2777  0.0633
13102TIP3    H160721   1.469   3.116   3.510 -1.5771 -0.2439  0.0403
13102TIP3    H260722   1.506   3.108   3.363  1.1833  0.8242  0.6252
13103TIP3   OH260723   3.022   4.531  10.467 -0.5522 -0.0087  0.0729
13103TIP3    H160724   2.959   4.590  10.509  0.1320  0.9956 -0.2807
13103TIP3    H260725   2.968   4.475  10.411 -1.0983  1.3433 -0.8185
13104TIP3   OH260726   4.451   4.712  11.820 -0.1792 -0.2262 -0.0474
13104TIP3    H160727   4.403   4.667  11.890  0.8724 -1.9144 -0.3639
13104TIP3    H260728   4.542   4.710  11.849  0.1185  0.0930 -0.9505
13105TIP3   OH260729   3.144   6.663  14.732  0.2386 -0.2129  0.1406
13105TIP3    H160730   3.228   6.651  14.776  1.0714  0.2572 -1.2496
13105TIP3    H260731   3.140   6.591  14.670  1.0782  1.4110 -1.9248
13106TIP3   OH260732   4.210   1.233  11.666 -0.0108  0.0837  0.1922
13106TIP3    H160733   4.289   1.204  11.621  0.0008  0.0457  0.2364
13106TIP3    H260734   4.241   1.268  11.750 -0.2047 -1.6509  1.0350
13107TIP3   OH260735   3.617   5.635  13.378 -0.4137 -0.1885  0.3777
13107TIP3    H160736   3.549   5.570  13.359  0.4252 -1.0092  0.0186
13107TIP3    H260737   3.696   5.582  13.392  1.2054  0.7906 -3.6553
13108TIP3   OH260738   3.197   2.238   3.927  0.2400  0.0374  0.0501
13108TIP3    H160739   3.265   2.297   3.959 -0.7094  1.1506  0.0827
13108TIP3    H260740   3.209   2.157   3.976  0.4370  0.8311  1.3392
13109TIP3   OH260741   6.542   1.609  13.463 -0.2001 -0.0454  0.0114
13109TIP3    H160742   6.479   1.651  13.522  0.0506 -0.1241  0.3397
13109TIP3    H260743   6.623   1.658  13.477  0.0730 -0.5801  0.3316
13110TIP3   OH260744   2.205   4.789   1.214 -0.5703  0.0234 -0.6137
13110TIP3    H160745   2.293   4.760   1.192 -0.8650  0.2469 -2.3056
13110TIP3    H260746   2.152   4.760   1.140 -1.3954  2.2760 -0.9883
13111TIP3   OH260747   5.362   1.381   4.505  0.1597  0.4667  0.1912
13111TIP3    H160748   5.290   1.396   4.566  0.6847  0.5840  0.7918
13111TIP3    H260749   5.440   1.412   4.552  0.6504 -0.0175 -0.2954
13112TIP3   OH260750   0.133   4.675  11.820 -0.2507  0.8106 -0.3292
13112TIP3    H160751   0.119   4.721  11.738  1.2253  3.9999  1.0269
13112TIP3    H260752   0.224   4.644  11.816 -0.4740  0.1354 -0.2698
13113TIP3   OH260753   5.549   3.781   5.412 -0.2760  0.1073  0.2925
13113TIP3    H160754   5.475   3.805   5.467 -0.8405  0.5212 -0.6190
13113TIP3    H260755   5.550   3.848   5.343  1.3431  0.4828  0.6367
13114TIP3   OH260756   6.085   3.689  12.096 -0.4685  0.1547  0.4189
13114TIP3    H160757   6.051   3.630  12.164  1.2221 -1.0610  0.2780
13114TIP3    H260758   6.174   3.658  12.081 -1.0982 -0.2844 -3.1230
13115TIP3   OH260759   6.126   6.790  13.720  0.6421  0.4656  0.4500
13115TIP3    H160760   6.193   6.815  13.784  0.6582  0.2106  0.5366
13115TIP3    H260761   6.160   6.711  13.679  0.0131 -0.1736  1.1112
13116TIP3   OH260762   0.458   0.640   5.300 -0.6915 -0.3478 -0.2985
13116TIP3    H160763   0.486   0.609   5.214 -0.9135  0.0260 -0.5080
13116TIP3    H260764   0.441   0.560   5.350 -0.1757 -0.5673 -0.4727
13117TIP3   OH260765   3.388   0.586   1.378 -0.1304 -0.7156  0.2033
13117TIP3    H160766   3.408   0.667   1.423 -1.0719 -0.3518 -0.0021
13117TIP3    H260767   3.426   0.517   1.433  1.5101 -0.1065 -0.1046
13118TIP3   OH260768   4.537   4.673   5.516 -0.0282 -0.1845  0.0910
13118TIP3    H160769   4.443   4.687   5.502 -0.3648 -1.8543  0.4971
13118TIP3    H260770   4.543   4.638   5.605  1.0808  0.6823  0.3789
13119TIP3   OH260771   4.844   1.104   6.191  0.7707 -0.1206 -0.2333
13119TIP3    H160772   4.813   1.186   6.153  0.1867 -2.0060 -4.3046
13119TIP3    H260773   4.800   1.099   6.276 -1.4374  2.4139 -1.0973
13120TIP3   OH260774   6.607   5.512  17.061 -0.3883  0.5333 -0.0823
13120TIP3    H160775   6.564   5.582  17.012 -1.1634  0.6733  0.7810
13120TIP3    H260776   6.700   5.524  17.043 -0.4608  2.1423  0.5033
13121TIP3   OH260777   2.796   4.921  16.574  0.6755 -0.5328  0.1554
13121TIP3    H160778   2.763   4.839  16.610  0.7311 -0.3443  0.6504
13121TIP3    H260779   2.881   4.898  16.535 -1.3208 -1.7106 -4.0227
13122TIP3   OH260780   6.035   0.339   6.209 -0.0815 -0.1281  0.5499
13122TIP3    H160781   6.030   0.330   6.304  1.6998 -0.3339  0.6582
13122TIP3    H260782   5.946   0.362   6.182 -0.4772  0.5714  2.3313
13123TIP3   OH260783   1.007   2.421  13.741  0.2476  0.2525  0.1139
13123TIP3    H160784   0.917   2.391  13.729 -0.0866  1.9757 -2.6127
13123TIP3    H260785   1.048   2.410  13.655  2.0030  1.4954  0.7302
13124TIP3   OH260786   0.173   5.887   2.777 -0.0339 -0.8439  0.6426
13124TIP3    H160787   0.107   5.949   2.808  0.4506 -0.3021  0.6049
13124TIP3    H260788   0.163   5.811   2.834  0.1730 -0.2559  1.4817
13125TIP3   OH260789   6.468   2.214  14.970  0.1176 -0.2000  0.6157
13125TIP3    H160790   6.398   2.197  15.034  0.5488  1.2756  1.5287
13125TIP3    H260791   6.549   2.201  15.019  0.5023 -0.9057 -0.1721
13126TIP3   OH260792   6.714   2.800  14.464  0.4995  0.4536 -0.1264
13126TIP3    H160793   6.780   2.835  14.404  1.3891  1.6704  1.4874
13126TIP3    H260794   6.646   2.867  14.466 -0.3428 -0.3426 -1.0064
13127TIP3   OH260795   1.278   2.641  11.248 -0.1387  0.2730 -0.1558
13127TIP3    H160796   1.252   2.649  11.340 -1.0436 -1.4863 -0.2291
13127TIP3    H260797   1.354   2.699  11.241 -0.4370  0.9532  1.5270
13128TIP3   OH260798   4.165   4.666  14.317  0.3565  0.2220  0.4640
13128TIP3    H160799   4.085   4.668  14.369 -0.3898 -1.0754 -0.5839
13128TIP3    H260800   4.159   4.744  14.261  0.3151  0.6563  1.0579
13129TIP3   OH260801   2.786   3.361  16.536  0.0733 -0.4757  0.3708
13129TIP3    H160802   2.810   3.268  16.536 -0.3313 -0.6229 -2.0174
13129TIP3    H260803   2.864   3.407  16.506 -0.6222 -0.3731 -1.3898
13130TIP3   OH260804   0.875   2.679   3.805  0.3181  0.7657 -0.1260
13130TIP3    H160805   0.835   2.763   3.827  0.0660  0.1774  1.7843
13130TIP3    H260806   0.965   2.702   3.780  0.3777  1.5679  0.7587
13131TIP3   OH260807   2.908   5.814   6.087  0.1744 -0.4213 -0.3952
13131TIP3    H160808   2.890   5.904   6.114  0.5115 -0.5064  0.1302
13131TIP3    H260809   2.954   5.775   6.162 -1.1054 -1.4190 -0.0787
13132TIP3   OH260810   5.767   3.579   3.351  0.0151 -0.7191  0.0182
13132TIP3    H160811   5.759   3.583   3.447  1.1416 -0.1347  0.1031
13132TIP3    H260812   5.861   3.584   3.334 -0.2186  0.2335 -1.1573
13133TIP3   OH260813   2.327   6.682   1.573  0.0795  0.4314 -0.2213
13133TIP3    H160814   2.379   6.684   1.493  0.3877 -0.8794 -0.0688
13133TIP3    H260815   2.255   6.623   1.554 -0.7401  1.3576 -0.0524
13134TIP3   OH260816   2.439   0.710  15.888  0.2143  0.0697 -0.5017
13134TIP3    H160817   2.400   0.791  15.853 -0.3860 -0.2311 -0.5449
13134TIP3    H260818   2.377   0.680  15.955  0.8603  0.1004  0.1264
13135TIP3   OH260819   6.543   5.383  11.814 -0.1625  0.2651 -0.4933
13135TIP3    H160820   6.513   5.321  11.748 -0.6606 -1.1474  1.0104
13135TIP3    H260821   6.515   5.469  11.780 -0.4887 -0.4100 -2.0398
13136TIP3   OH260822   5.797   5.033  15.523 -0.3126  0.0974 -0.0849
13136TIP3    H160823   5.867   5.017  15.586 -0.1467 -0.1695 -0.3393
13136TIP3    H260824   5.785   5.128  15.525  0.7359  0.2643 -0.7610
13137TIP3   OH260825   3.371   1.391   3.400 -0.3319  0.0197 -0.9285
13137TIP3    H160826   3.310   1.318   3.399  0.5805 -0.7805 -2.1830
13137TIP3    H260827   3.319   1.466   3.427 -1.5965 -0.8431 -0.8792
13138TIP3   OH260828   3.208   4.210  11.012  0.2960  0.5805 -0.1457
13138TIP3    H160829   3.238   4.300  10.996  1.5413  0.0259 -1.0410
13138TIP3    H260830   3.254   4.183  11.091 -0.5415  0.9053  0.4787
13139TIP3   OH260831   1.123   6.647   1.106 -0.5722  1.0084  0.3060
13139TIP3    H160832   1.163   6.569   1.068 -1.0195  1.0149 -0.1827
13139TIP3    H260833   1.183   6.673   1.176 -0.4709  0.1711  0.5416
13140TIP3   OH260834   3.656   1.944   1.450  0.7107  0.4044  0.2317
13140TIP3    H160835   3.616   1.878   1.506  0.8378  2.1386  2.5318
13140TIP3    H260836   3.747   1.917   1.441  0.5154 -0.2776  0.2398
13141TIP3   OH260837   3.696   3.388   5.661 -0.0106 -0.2013  0.1004
13141TIP3    H160838   3.734   3.419   5.743  2.5001 -2.5581 -0.0263
13141TIP3    H260839   3.755   3.420   5.593 -0.3609 -0.7865 -0.4921
13142TIP3   OH260840   1.427   2.692  15.651  0.9266  0.2453  0.0183
13142TIP3    H160841   1.450   2.655  15.566 -2.0071 -2.4548  0.2001
13142TIP3    H260842   1.463   2.630  15.715 -1.1368 -0.5716  0.4751
13143TIP3   OH260843   1.185   2.243   0.570 -0.2795 -0.1009 -0.1584
13143TIP3    H160844   1.106   2.202   0.535 -0.3728 -0.7256  0.7443
13143TIP3    H260845   1.238   2.169   0.600  0.9088  0.2785 -1.2660
13144TIP3   OH260846   3.901   3.035   5.266  0.0033 -0.2124  0.1190
13144TIP3    H160847   3.981   2.983   5.262 -0.5310 -0.9741 -0.9508
13144TIP3    H260848   3.856   3.017   5.184  0.0200  2.3085 -0.5272
13145TIP3   OH260849   4.282   5.939   5.448  0.3324  0.1165 -0.2667
13145TIP3    H160850   4.246   6.018   5.408  0.4960  0.5162  0.3513
13145TIP3    H260851   4.239   5.935   5.534  0.6963 -0.1893 -0.0961
13146TIP3   OH260852   1.542   1.564  13.896  0.6109  0.1021  0.0996
13146TIP3    H160853   1.605   1.564  13.823  2.6185  1.8233  1.7118
13146TIP3    H260854   1.567   1.488  13.948 -0.0098 -0.3974 -0.3169
13147TIP3   OH260855   0.812   4.720   1.403 -0.1063  0.0952 -0.2801
13147TIP3    H160856   0.741   4.733   1.340 -0.6220 -0.8436  0.0806
13147TIP3    H260857   0.889   4.701   1.349 -0.6326 -1.1218 -0.6421
13148TIP3   OH260858   6.634   0.674  16.688  0.3127 -0.3496  0.3952
13148TIP3    H160859   6.704   0.656  16.625  0.0526  0.8023 -0.2523
13148TIP3    H260860   6.666   0.638  16.771  2.3525  1.4777  0.4787
13149TIP3   OH260861   0.497   3.330  13.631  0.2755  0.1005 -0.5290
13149TIP3    H160862   0.536   3.417  13.638 -0.2846  0.3109  0.1838
13149TIP3    H260863   0.424   3.332  13.694 -0.3658 -0.5436 -1.2282
13150TIP3   OH260864   3.060   1.680  13.153 -0.2544 -0.3035  0.2652
13150TIP3    H160865   3.107   1.642  13.078 -0.0313  1.9064 -0.7982
13150TIP3    H260866   3.063   1.612  13.220  1.5657 -1.5004 -0.9276
13151TIP3   OH260867   3.873   5.758   2.291  0.2945 -0.1021 -0.2868
13151TIP3    H160868   3.849   5.721   2.376  0.8905 -1.1996 -0.5713
13151TIP3    H260869   3.810   5.828   2.277  0.4390  0.3740  1.2424
13152TIP3   OH260870   1.325   2.371   3.807 -0.3040 -0.3530 -0.6076
13152TIP3    H160871   1.254   2.405   3.863  0.7140 -1.0074  1.1778
13152TIP3    H260872   1.281   2.346   3.726 -1.7537  1.2579 -0.3826
13153TIP3   OH260873   5.879   2.981   3.667  0.3479  0.0637  0.7540
13153TIP3    H160874   5.931   3.060   3.651 -0.2890  0.6450  1.4409
13153TIP3    H260875   5.803   2.991   3.610  0.1610  0.0569  0.9988
13154TIP3   OH260876   2.012   5.676  11.008  0.0159 -0.4559 -0.2247
13154TIP3    H160877   2.052   5.743  10.953 -1.6410  1.2417  0.5285
13154TIP3    H260878   1.934   5.649  10.960  0.2940 -1.3296 -0.1904
13155TIP3   OH260879   2.844   1.229   2.310  0.2296  0.0192 -0.0355
13155TIP3    H160880   2.850   1.134   2.325  0.5254  0.0251 -0.1132
13155TIP3    H260881   2.803   1.237   2.224 -1.2020 -0.0182  0.6078
13156TIP3   OH260882   1.815   5.385  12.354  0.5345 -0.4952 -0.3181
13156TIP3    H160883   1.807   5.299  12.395 -2.7681  0.2032  0.8039
13156TIP3    H260884   1.909   5.405  12.358  0.9408 -2.4256  2.8050
13157TIP3   OH260885   6.551   1.831   5.522 -0.2340  0.0678 -0.5250
13157TIP3    H160886   6.577   1.774   5.595  2.2375 -0.6233 -1.8382
13157TIP3    H260887   6.504   1.903   5.564 -1.3455 -1.6986  1.4400
13158TIP3   OH260888   3.232   1.943  12.668 -0.7022  0.4747 -0.2724
13158TIP3    H160889   3.179   1.995  12.728  0.8006 -0.9169  2.4194
13158TIP3    H260890   3.320   1.943  12.706  0.2026 -1.0314 -2.1415
13159TIP3   OH260891   0.513   0.756  13.626 -0.6508 -0.0685 -0.1431
13159TIP3    H160892   0.570   0.799  13.563  1.0356  0.8787  1.8817
13159TIP3    H260893   0.551   0.777  13.711 -3.5309 -0.1860  1.3067
13160TIP3   OH260894   2.274   2.325  12.293 -0.3182 -0.1996  0.4796
13160TIP3    H160895   2.337   2.256  12.275 -1.9501 -2.0732  1.5795
13160TIP3    H260896   2.217   2.289  12.361 -1.2538  2.2377  1.0982
13161TIP3   OH260897   3.768   1.490   5.760 -0.5044 -0.1006 -0.1797
13161TIP3    H160898   3.726   1.575   5.777 -1.9578 -1.0981  1.6105
13161TIP3    H260899   3.852   1.497   5.805 -1.3534 -0.1610  1.5338
13162TIP3   OH260900   4.337   1.338  11.876 -0.2563  0.4928 -0.2551
13162TIP3    H160901   4.407   1.399  11.899 -0.1067  0.5363 -0.8092
13162TIP3    H260902   4.344   1.267  11.939  0.5118  0.3284 -0.5180
13163TIP3   OH260903   3.390   0.679  17.159  0.1767 -0.4922  0.4071
13163TIP3    H160904   3.390   0.619  17.233 -0.5805 -1.4437 -0.3290
13163TIP3    H260905   3.413   0.624  17.084  1.2219  0.5071 -0.0303
13164TIP3   OH260906   2.723   1.887  15.710  0.6009 -0.4597  0.0352
13164TIP3    H160907   2.762   1.817  15.763  1.9530 -1.1658 -1.8165
13164TIP3    H260908   2.791   1.954  15.704  0.4170 -0.3369 -0.7015
13165TIP3   OH260909   2.488   2.684  16.208 -0.1272  0.0158  0.4304
13165TIP3    H160910   2.401   2.678  16.167 -0.6378 -0.1093  1.5067
13165TIP3    H260911   2.498   2.600  16.253  0.2798  0.2799  0.8356
13166TIP3   OH260912   3.323   5.799   0.328 -0.9205 -0.0915 -0.2116
13166TIP3    H160913   3.411   5.772   0.355 -0.2540  1.0363 -1.1369
13166TIP3    H260914   3.284   5.720   0.290 -0.0332 -0.4217 -0.4523
13167TIP3   OH260915   3.190   2.124  13.391  0.3764 -0.6136  0.1198
13167TIP3    H160916   3.130   2.054  13.366  0.4243 -0.2277 -1.1581
13167TIP3    H260917   3.265   2.112  13.333  0.3248  0.5614 -0.2139
13168TIP3   OH260918   4.219   5.573  15.261 -0.1386  0.0685 -0.2934
13168TIP3    H160919   4.144   5.532  15.303  0.5982 -1.2808 -0.2517
13168TIP3    H260920   4.266   5.617  15.332  0.6906 -1.5669  0.2057
13169TIP3   OH260921   2.744   4.728  13.854  0.2558 -0.1150  0.3004
13169TIP3    H160922   2.676   4.711  13.920 -0.6026  0.4686 -0.4200
13169TIP3    H260923   2.752   4.823  13.851  1.2600 -0.1816  0.5160
13170TIP3   OH260924   4.808   2.267   0.060  0.1807 -0.0945 -0.7742
13170TIP3    H160925   4.717   2.251   0.086 -0.2770  0.3702 -1.9783
13170TIP3    H260926   4.861   2.222   0.125 -0.9431 -1.5043 -0.7971
13171TIP3   OH260927   1.762   2.345  15.577  0.1050 -0.9016  0.6310
13171TIP3    H160928   1.820   2.387  15.641 -0.5614  0.6076  0.2702
13171TIP3    H260929   1.677   2.341  15.620 -0.2225 -0.3679  0.0434
13172TIP3   OH260930   3.168   2.017   5.914 -0.0753  0.4600  0.1815
13172TIP3    H160931   3.199   2.019   6.005 -2.0919  1.6293  0.9074
13172TIP3    H260932   3.130   1.930   5.903  2.6629 -0.7498 -0.5157
13173TIP3   OH260933   0.591   5.957   4.739  0.3415  0.4195  0.0997
13173TIP3    H160934   0.650   5.882   4.748  0.2372  0.0897 -1.5154
13173TIP3    H260935   0.645   6.033   4.758  0.0503 -0.0813  3.4328
13174TIP3   OH260936   5.117   2.730   2.275 -0.1313 -0.3652  0.2292
13174TIP3    H160937   5.080   2.658   2.326  0.1168 -0.3805  0.3914
13174TIP3    H260938   5.055   2.743   2.203 -0.4237 -0.4232  0.4674
13175TIP3   OH260939   0.263   5.146   1.643  0.8153 -0.2045  0.2501
13175TIP3    H160940   0.181   5.160   1.595  0.7172  0.9874  0.7206
13175TIP3    H260941   0.258   5.206   1.717  1.5405 -1.0855  1.0337
13176TIP3   OH260942   2.426   4.081   0.549  1.1272  0.0089 -0.0112
13176TIP3    H160943   2.484   4.011   0.577  0.9115  0.4104  1.5290
13176TIP3    H260944   2.410   4.133   0.628 -3.1274 -1.3298  0.2793
13177TIP3   OH260945   5.774   3.862   6.118 -0.2813  0.6192  0.2430
13177TIP3    H160946   5.860   3.879   6.158 -0.5794 -0.6680  1.5460
13177TIP3    H260947   5.711   3.896   6.181 -0.7833  2.4931 -1.1739
13178TIP3   OH260948   0.465   6.525  17.061  0.7242  0.7726 -0.3695
13178TIP3    H160949   0.490   6.575  17.139  2.2871  1.1660 -1.0891
13178TIP3    H260950   0.411   6.585  17.010 -0.7235  0.3495  0.6018
13179TIP3   OH260951   1.077   1.935   3.003  0.2591  0.9730  0.3101
13179TIP3    H160952   1.053   2.017   2.961  0.7408  0.5659 -0.7998
13179TIP3    H260953   1.170   1.945   3.025  0.4169  0.5858 -0.1739
13180TIP3   OH260954   4.320   4.211  12.544 -0.6275  0.4025 -0.0711
13180TIP3    H160955   4.407   4.180  12.570 -0.3911  1.8777  1.0471
13180TIP3    H260956   4.337   4.273  12.473 -0.8693 -0.0475 -0.5301
13181TIP3   OH260957   1.590   4.619   4.894 -0.1201  0.6243 -0.0867
13181TIP3    H160958   1.608   4.598   4.985 -0.1219 -0.3295 -0.2947
13181TIP3    H260959   1.675   4.610   4.850 -0.5381 -1.2830 -0.5939
13182TIP3   OH260960   5.361   2.420   3.643  0.1175 -0.1059  0.1672
13182TIP3    H160961   5.419   2.411   3.567  0.2227  1.7553 -0.0360
13182TIP3    H260962   5.311   2.500   3.626  0.1763  0.3973  2.0561
13183TIP3   OH260963   1.215   6.282   5.068 -0.0643 -0.7443 -0.0650
13183TIP3    H160964   1.175   6.213   5.016  1.1771 -2.1989  0.8249
13183TIP3    H260965   1.299   6.246   5.097 -0.0348  0.5456  1.6823
13184TIP3   OH260966   3.495   6.314   3.253  0.0431  0.0129  0.6215
13184TIP3    H160967   3.423   6.288   3.194  0.8100 -0.8652  0.0338
13184TIP3    H260968   3.568   6.257   3.227  1.2445  1.5184  0.5681
13185TIP3   OH260969   3.757   4.032   4.406 -0.6586 -0.1074 -0.2366
13185TIP3    H160970   3.683   4.053   4.463 -0.9890 -0.7156 -0.4301
13185TIP3    H260971   3.722   3.967   4.345  0.5318 -1.9117  0.9065
13186TIP3   OH260972   3.872   3.789  16.766 -0.9569 -0.5978 -0.9900
13186TIP3    H160973   3.830   3.757  16.687 -1.7158 -2.2787  0.0404
13186TIP3    H260974   3.887   3.711  16.819 -1.3229  0.5481  0.9178
13187TIP3   OH260975   2.191   4.716   3.949 -1.0569  0.7186  0.1340
13187TIP3    H160976   2.177   4.639   3.894 -0.8383  1.7647 -1.4501
13187TIP3    H260977   2.268   4.695   4.001 -1.4876 -0.4460  0.3189
13188TIP3   OH260978   5.302   1.134  12.096 -0.5263  0.7401  0.1648
13188TIP3    H160979   5.339   1.094  12.017  1.2457  2.8480 -0.1452
13188TIP3    H260980   5.207   1.119  12.087 -0.3716  0.8563 -2.3298
13189TIP3   OH260981   2.107   4.191   2.110  0.4353 -0.4758 -0.0143
13189TIP3    H160982   2.190   4.238   2.109  0.5529 -0.6973 -1.0130
13189TIP3    H260983   2.104   4.149   2.197  0.7650  0.5710  0.5141
13190TIP3   OH260984   2.204   0.105  16.360  0.1067  0.1186 -0.0104
13190TIP3    H160985   2.134   0.169  16.350 -1.3773 -1.5692 -0.8838
13190TIP3    H260986   2.257   0.116  16.281 -0.1833  0.2175 -0.1922
13191TIP3   OH260987   0.242   5.220   4.638 -0.3093  0.2803  0.3847
13191TIP3    H160988   0.240   5.136   4.591 -0.0983  0.5908 -0.1902
13191TIP3    H260989   0.218   5.198   4.728  0.3546 -0.4915  0.3804
13192TIP3   OH260990   1.517   4.985  12.728  0.1381 -0.5269 -0.6891
13192TIP3    H160991   1.538   4.900  12.691 -0.4246 -0.1167 -2.0171
13192TIP3    H260992   1.443   5.016  12.677  0.7364  1.0388 -0.6658
13193TIP3   OH260993   5.088   3.843  15.292  0.1964  0.3784 -0.6684
13193TIP3    H160994   5.034   3.764  15.283  0.8072 -0.0332 -0.7585
13193TIP3    H260995   5.077   3.890  15.209  3.1171 -1.7034 -2.4196
13194TIP3   OH260996   5.680   2.853  12.850  0.0659  0.3566 -0.7670
13194TIP3    H160997   5.705   2.761  12.843  2.0287  0.8129 -0.3358
13194TIP3    H260998   5.615   2.866  12.780  1.1577 -0.8940 -2.0661
13195TIP3   OH260999   4.993   4.172  12.885 -0.6195 -0.4587 -0.2054
13195TIP3    H161000   5.007   4.158  12.978 -0.9788  0.3607 -0.0178
13195TIP3    H261001   4.947   4.093  12.856 -1.1807 -0.3925  0.4744
13196TIP3   OH261002   0.803   5.463  12.262  0.1589  1.0593 -0.4080
13196TIP3    H161003   0.806   5.545  12.213  0.3186  1.2636 -0.0612
13196TIP3    H261004   0.723   5.420  12.233 -0.1552  1.5466 -0.2584
13197TIP3   OH261005   3.429   6.445  11.617 -0.3019 -0.0113 -0.3007
13197TIP3    H161006   3.448   6.472  11.527 -2.3190  1.5576 -0.3380
13197TIP3    H261007   3.487   6.372  11.633  0.0115 -0.4381 -2.9514
13198TIP3   OH261008   0.525   4.606   4.417 -0.0959 -0.7074 -0.2510
13198TIP3    H161009   0.471   4.552   4.473 -0.4800 -0.5074 -0.4242
13198TIP3    H261010   0.484   4.600   4.331  0.8638 -1.5410 -0.6711
13199TIP3   OH261011   5.332   4.264  15.738 -0.2988  0.3668  0.1580
13199TIP3    H161012   5.326   4.178  15.778  0.7915  0.2722  0.1620
13199TIP3    H261013   5.426   4.279  15.727 -0.5298  0.8118 -1.4426
13200TIP3   OH261014   4.765   4.043   1.486  0.5161  0.2763 -0.3660
13200TIP3    H161015   4.821   4.039   1.409 -1.5386 -1.4143 -1.9042
13200TIP3    H261016   4.729   4.131   1.485 -2.3214 -0.6971 -3.6769
13201TIP3   OH261017   3.908   3.025   6.200 -0.2522 -0.9758 -0.4814
13201TIP3    H161018   3.894   3.062   6.287  0.3383 -1.5367 -0.1373
13201TIP3    H261019   3.836   3.060   6.148 -0.7484 -0.8120  0.2866
13202TIP3   OH261020   2.773   5.154   0.858 -0.3089  0.0290 -0.4570
13202TIP3    H161021   2.700   5.183   0.803  0.1612  3.0720  0.3362
13202TIP3    H261022   2.818   5.235   0.883  2.2493 -1.6010  0.6201
13203TIP3   OH261023   0.869   2.282   5.238  0.1671 -0.4871 -0.2040
13203TIP3    H161024   0.923   2.343   5.288  0.2567 -0.5040 -0.2806
13203TIP3    H261025   0.932   2.223   5.196  0.0897 -0.5040 -0.2965
13204TIP3   OH261026   3.200   4.089  11.498 -0.0996 -0.4486  0.2106
13204TIP3    H161027   3.126   4.073  11.439 -0.4400 -0.8597  0.7385
13204TIP3    H261028   3.274   4.043  11.456 -0.1325 -0.0212 -0.3268
13205TIP3   OH261029   4.398   2.093   5.830  0.2080  0.3320  0.0946
13205TIP3    H161030   4.455   2.018   5.846 -0.6982 -0.1547  1.1914
13205TIP3    H261031   4.419   2.154   5.900 -0.6535  0.1110  0.5645
13206TIP3   OH261032   5.714   5.535   0.999 -0.4872 -0.1035  0.4276
13206TIP3    H161033   5.753   5.448   1.011  0.7870  0.6259  1.9772
13206TIP3    H261034   5.654   5.524   0.926 -0.1504 -2.2206  0.3959
13207TIP3   OH261035   1.093   5.695  16.019  0.1426 -0.1667  0.3115
13207TIP3    H161036   1.144   5.699  16.100 -1.1525  1.5596  1.1133
13207TIP3    H261037   1.080   5.787  15.994  1.8534 -0.6560 -2.7869
13208TIP3   OH261038   6.778   4.802  13.389 -0.3915 -0.4503  0.2046
13208TIP3    H161039   6.762   4.830  13.480  0.2260  0.2253  0.1150
13208TIP3    H261040   6.733   4.718  13.382 -0.3923 -0.5474  1.1656
13209TIP3   OH261041   3.239   3.868   2.521 -0.3853  0.2533 -0.3249
13209TIP3    H161042   3.241   3.852   2.427 -0.4169  0.9843 -0.4543
13209TIP3    H261043   3.319   3.917   2.539 -0.8220  0.8973 -0.1184
13210TIP3   OH261044   1.696   2.648  13.601  0.5332 -0.4520 -0.2226
13210TIP3    H161045   1.739   2.565  13.580  2.2740  0.2532  0.3582
13210TIP3    H261046   1.764   2.700  13.644 -0.2537  1.5981 -1.3102
13211TIP3   OH261047   4.743   1.688   2.483  0.0569 -0.6234 -0.1646
13211TIP3    H161048   4.838   1.692   2.480  0.0486  0.0301  0.2087
13211TIP3    H261049   4.723   1.596   2.501  0.6902 -0.3384  2.3788
13212TIP3   OH261050   5.393   0.024   5.942  0.1288 -0.1688  0.3947
13212TIP3    H161051   5.309   0.014   5.985 -0.8556  0.4010 -1.3056
13212TIP3    H261052   5.405   0.118   5.934 -1.3297 -0.1142 -3.3595
13213TIP3   OH261053   0.042   0.363  16.091  0.0343  0.3887 -0.4168
13213TIP3    H161054  -0.009   0.421  16.035 -0.9335  1.0844  1.1102
13213TIP3    H261055  -0.014   0.287  16.104  0.3952  0.0803 -0.6849
13214TIP3   OH261056   3.615   5.338   1.793 -0.1827  0.2550 -0.2979
13214TIP3    H161057   3.556   5.316   1.865  0.1851  0.0886 -0.0411
13214TIP3    H261058   3.596   5.429   1.773  0.2816  0.5605  0.5714
13215TIP3   OH261059   6.439   0.907   2.110  0.0790 -0.0396  0.4219
13215TIP3    H161060   6.357   0.863   2.133  0.0777 -0.2946 -0.0734
13215TIP3    H261061   6.501   0.836   2.092 -0.0878  0.1395 -0.9799
13216TIP3   OH261062   6.035   4.540   2.219 -0.8437 -0.2161  0.5209
13216TIP3    H161063   6.030   4.452   2.256  2.7916 -1.8015 -2.0869
13216TIP3    H261064   6.034   4.526   2.124 -0.8358  2.6497  0.0151
13217TIP3   OH261065   0.813   0.071   0.732  0.5709 -0.7239 -0.2486
13217TIP3    H161066   0.785  -0.020   0.744  0.4631 -0.5256  1.1443
13217TIP3    H261067   0.799   0.112   0.817 -0.4075  0.8938 -1.1364
13218TIP3   OH261068   5.451   1.987  15.490 -0.2696  0.1306  0.2072
13218TIP3    H161069   5.513   1.969  15.419  0.3399 -0.7280  0.9339
13218TIP3    H261070   5.505   1.987  15.569 -1.1395 -0.1957  0.8130
13219TIP3   OH261071   2.461   0.379  15.554  0.1635 -0.2047 -0.0706
13219TIP3    H161072   2.436   0.324  15.480  0.6594 -2.7733  1.5528
13219TIP3    H261073   2.397   0.359  15.622  0.5076  1.0825  0.6741
13220TIP3   OH261074   6.720   2.916   0.390 -0.3307  0.2433 -0.3612
13220TIP3    H161075   6.632   2.916   0.353 -0.4704 -0.9620 -0.0790
13220TIP3    H261076   6.758   2.834   0.359  0.0966 -0.0464  0.8827
13221TIP3   OH261077   4.256   3.984  16.530 -0.3082  0.1723 -0.5395
13221TIP3    H161078   4.166   3.993  16.562 -0.2569 -3.3748  1.0361
13221TIP3    H261079   4.310   4.018  16.602 -0.3545 -2.5842  0.9136
13222TIP3   OH261080   0.994   6.579   5.300  0.3195  0.2216 -0.5876
13222TIP3    H161081   0.925   6.518   5.273 -0.6932  1.1505 -0.1695
13222TIP3    H261082   0.956   6.666   5.288  1.5947  0.7794 -0.7913
13223TIP3   OH261083   1.903   0.390  14.081 -0.1091 -0.2864 -0.0448
13223TIP3    H161084   1.962   0.392  14.157 -0.2307  2.6252  0.0805
13223TIP3    H261085   1.818   0.415  14.116 -0.2246  0.8251 -1.0867
13224TIP3   OH261086   3.669   5.808  12.299 -0.5388 -0.1023  0.5276
13224TIP3    H161087   3.698   5.835  12.386  2.4901 -1.6850  0.1686
13224TIP3    H261088   3.575   5.795  12.308 -0.3567 -0.1506  3.5517
13225TIP3   OH261089   3.344   3.062  14.727 -0.4794 -0.0402 -0.6498
13225TIP3    H161090   3.296   3.128  14.677  0.1332  0.3411 -0.7485
13225TIP3    H261091   3.427   3.105  14.749 -0.6559 -0.2723  0.5346
13226TIP3   OH261092   0.892   1.836  11.983 -0.3599  0.2809 -0.2385
13226TIP3    H161093   0.845   1.796  11.910 -0.7034 -1.1135  0.6885
13226TIP3    H261094   0.853   1.923  11.992 -0.2311  0.5145 -1.7634
13227TIP3   OH261095   1.483   4.892  13.222 -0.3131  1.1450 -0.6168
13227TIP3    H161096   1.527   4.829  13.165  0.5647  0.5671  0.6775
13227TIP3    H261097   1.405   4.846  13.253  0.1840  0.7780  0.1094
13228TIP3   OH261098   0.764   0.972  11.612  0.0034 -0.1379 -0.1257
13228TIP3    H161099   0.693   0.957  11.674 -0.4219  0.6302 -0.4128
13228TIP3    H261100   0.724   1.024  11.542  0.9099  0.5280 -0.1637
13229TIP3   OH261101   2.571   2.158  12.923  0.1511 -0.9050 -0.4877
13229TIP3    H161102   2.510   2.194  12.988 -0.3260 -1.0704 -0.8358
13229TIP3    H261103   2.598   2.234  12.871  0.3146 -0.8162 -0.2718
13230TIP3   OH261104   3.514   6.234  13.520 -0.1628  0.6982 -0.4153
13230TIP3    H161105   3.551   6.199  13.601 -0.6605 -2.4643 -1.4129
13230TIP3    H261106   3.433   6.276  13.547 -0.4857 -0.5918  0.7487
13231TIP3   OH261107   6.276   6.600   0.055  0.0776 -0.2102 -0.1807
13231TIP3    H161108   6.215   6.560  -0.007  0.4428 -1.0589 -0.0085
13231TIP3    H261109   6.362   6.580   0.020  0.3110 -1.3032  0.9403
13232TIP3   OH261110   4.782   0.204  14.220 -0.2350 -0.3067  0.1425
13232TIP3    H161111   4.691   0.216  14.244  0.2960  0.0562  2.1683
13232TIP3    H261112   4.802   0.278  14.163 -1.4436 -0.9572 -1.1761
13233TIP3   OH261113   3.096   4.525   2.334  0.3589  0.2204  0.3595
13233TIP3    H161114   3.142   4.547   2.253  0.3601  0.3961  0.4071
13233TIP3    H261115   3.014   4.484   2.305  1.2095 -1.5132  0.2710
13234TIP3   OH261116   4.911   1.048  14.648  0.0293 -0.3378  0.1365
13234TIP3    H161117   4.825   1.051  14.607 -0.5462  0.2884  1.3590
13234TIP3    H261118   4.968   1.093  14.585 -0.0234 -2.6739 -1.7275
13235TIP3   OH261119   6.111   4.539  17.108 -0.9050  0.4560 -0.0421
13235TIP3    H161120   6.199   4.561  17.139 -0.3386 -0.3690 -0.9878
13235TIP3    H261121   6.111   4.563  17.016 -0.8684 -1.6379 -0.6442
13236TIP3   OH261122   1.522   3.278  13.736  0.1797 -0.6708  0.0594
13236TIP3    H161123   1.529   3.299  13.829  0.9999  0.6126 -0.2560
13236TIP3    H261124   1.554   3.189  13.728  1.1027 -0.4228  0.8714
13237TIP3   OH261125   1.815   5.333  14.469 -0.2989 -0.1468  0.7710
13237TIP3    H161126   1.824   5.247  14.426  0.0934  0.8623 -1.3031
13237TIP3    H261127   1.893   5.381  14.442 -1.1140  1.2730  0.8784
13238TIP3   OH261128   2.601   6.024  14.197 -0.4953 -0.3232 -0.0784
13238TIP3    H161129   2.548   6.081  14.140 -1.9820 -1.0499  0.5126
13238TIP3    H261130   2.671   6.081  14.229 -0.1131  0.3246 -1.9287
13239TIP3   OH261131   1.177   4.062   2.840  0.2863  0.4740  0.7769
13239TIP3    H161132   1.121   4.070   2.763  0.0297  0.7086  0.9848
13239TIP3    H261133   1.219   4.148   2.848 -1.9807  1.4979  2.6461
13240TIP3   OH261134   1.383   5.654   2.423 -0.4672  0.2045 -0.1143
13240TIP3    H161135   1.331   5.580   2.392 -0.5780 -0.5548  1.7368
13240TIP3    H261136   1.368   5.657   2.518  0.4660  1.8731  0.0393
13241TIP3   OH261137   1.446   1.746  10.449  0.4386 -0.4122 -0.2310
13241TIP3    H161138   1.420   1.810  10.383 -0.5888 -1.3914 -0.8128
13241TIP3    H261139   1.419   1.662  10.412 -0.8296 -0.9268  1.7270
13242TIP3   OH261140   2.035   3.014   1.279  0.8619 -0.5365  0.2310
13242TIP3    H161141   2.077   3.001   1.194  0.2176 -1.4864  0.0382
13242TIP3    H261142   2.070   2.944   1.334 -0.7478 -1.6258 -0.0606
13243TIP3   OH261143   3.464   3.924  16.212  0.0190 -0.4020 -0.2064
13243TIP3    H161144   3.464   3.987  16.140  0.0419  0.7195  0.7525
13243TIP3    H261145   3.516   3.851  16.180 -0.3800 -0.1408 -1.5049
13244TIP3   OH261146   4.465   1.201  11.543 -0.2146 -0.1518 -0.0118
13244TIP3    H161147   4.549   1.247  11.548  0.3104 -1.0687 -0.2468
13244TIP3    H261148   4.477   1.137  11.473 -0.9236 -0.6646  0.3277
13245TIP3   OH261149   5.121   2.313   3.506  0.6837  0.4018 -0.4688
13245TIP3    H161150   5.066   2.382   3.470 -0.8378 -0.5857 -0.1322
13245TIP3    H261151   5.142   2.344   3.595  0.5116  0.7064 -0.5313
13246TIP3   OH261152   5.221   0.876   5.298  0.0161 -0.8614  0.4237
13246TIP3    H161153   5.242   0.880   5.205 -0.6788  2.9943  0.2827
13246TIP3    H261154   5.145   0.818   5.304 -0.9603  0.1222 -1.6727
13247TIP3   OH261155   5.248   5.132   4.519  0.1196  0.1872  0.1716
13247TIP3    H161156   5.213   5.103   4.435 -1.4614 -2.3316  1.5549
13247TIP3    H261157   5.329   5.082   4.530  0.8804  1.2841 -0.2521
13248TIP3   OH261158   4.386   4.360   4.717 -0.4680  0.6789  0.3628
13248TIP3    H161159   4.361   4.447   4.688 -0.7620  1.0350  1.6077
13248TIP3    H261160   4.412   4.372   4.808  0.5807 -0.3503  0.2133
13249TIP3   OH261161   5.904   4.045   5.962 -0.0268  0.6418 -0.0748
13249TIP3    H161162   5.997   4.026   5.962 -0.2370 -0.4733  0.1259
13249TIP3    H261163   5.863   3.965   5.996 -1.0604  1.0688 -0.2655
13250TIP3   OH261164   6.023   0.955   0.085  0.0271 -0.0673 -0.2218
13250TIP3    H161165   5.981   0.995   0.162  0.5478  0.8286 -0.3783
13250TIP3    H261166   6.101   0.913   0.120  0.5077  0.7316 -0.3047
13251TIP3   OH261167   1.561   2.265   2.147  0.9689  0.1739  0.0119
13251TIP3    H161168   1.586   2.193   2.205 -0.1060 -1.1332 -1.0614
13251TIP3    H261169   1.627   2.264   2.078  0.6367 -0.1938 -0.3109
13252TIP3   OH261170   3.620   6.732   2.887  0.6533 -0.1082 -0.0944
13252TIP3    H161171   3.687   6.668   2.861 -0.3973 -1.1731 -0.2473
13252TIP3    H261172   3.578   6.693   2.963  0.0644  0.4630 -0.1204
13253TIP3   OH261173   0.472   1.327   3.448  0.0102 -0.0427  0.0478
13253TIP3    H161174   0.465   1.286   3.535  1.3834  0.0026  0.2107
13253TIP3    H261175   0.383   1.352   3.426 -0.8995 -2.8707  0.0459
13254TIP3   OH261176   0.881   4.342  11.597 -0.8204 -0.2597 -0.3329
13254TIP3    H161177   0.856   4.346  11.689  2.5984  0.2331  0.6993
13254TIP3    H261178   0.826   4.408  11.554  0.6029  2.8554  2.2509
13255TIP3   OH261179   3.678   5.471   6.556 -0.1112  0.9419 -0.3366
13255TIP3    H161180   3.748   5.521   6.598  0.9091 -1.0865  0.5187
13255TIP3    H261181   3.663   5.515   6.472  0.2022  3.0615  0.6549
13256TIP3   OH261182   2.684   2.387  11.082  0.2070  0.1898 -0.1661
13256TIP3    H161183   2.610   2.330  11.063  0.1824  0.4805 -0.9883
13256TIP3    H261184   2.759   2.327  11.090  0.1498  0.0199 -0.8486
13257TIP3   OH261185   3.703   4.164  12.861  0.3525  0.5877  0.1090
13257TIP3    H161186   3.741   4.148  12.947  1.3082 -2.9786 -0.7992
13257TIP3    H261187   3.763   4.224  12.818  0.4322  1.5567  1.5040
13258TIP3   OH261188   0.128   5.154  15.906  0.0014  0.6389 -0.2373
13258TIP3    H161189   0.042   5.128  15.872 -2.0668  2.3048  3.1783
13258TIP3    H261190   0.148   5.087  15.972 -0.0194  1.6657  0.8382
13259TIP3   OH261191   5.550   0.648   0.180  0.0855 -0.5618  0.5286
13259TIP3    H161192   5.591   0.577   0.229  0.1116  0.7758  2.5673
13259TIP3    H261193   5.616   0.672   0.114  0.7515 -1.3416  0.8862
13260TIP3   OH261194   4.794   6.061  15.105 -0.4410 -0.3397 -0.4830
13260TIP3    H161195   4.726   6.005  15.068  1.9995 -3.5606 -0.4816
13260TIP3    H261196   4.828   6.012  15.180  0.4765  2.1737  0.8832
13261TIP3   OH261197   4.639   2.256  11.488  0.1626 -0.7942 -0.1346
13261TIP3    H161198   4.563   2.201  11.509 -0.6109 -0.4389 -1.8184
13261TIP3    H261199   4.693   2.201  11.431  2.5907 -2.0154  3.0509
13262TIP3   OH261200   0.984   4.041   0.234 -0.3418  0.2361  0.3086
13262TIP3    H161201   1.019   4.115   0.185  0.9815 -0.4413  0.1805
13262TIP3    H261202   1.035   3.966   0.204 -0.5644 -0.4592  1.5826
13263TIP3   OH261203   4.183   1.774   0.436  0.7688 -0.1741  0.2186
13263TIP3    H161204   4.255   1.739   0.384  2.1053  0.2327  1.6925
13263TIP3    H261205   4.169   1.862   0.402  0.9288 -0.2839 -0.1301
13264TIP3   OH261206   2.785   2.445   0.297 -0.3234 -0.0048 -0.5955
13264TIP3    H161207   2.739   2.529   0.306 -0.3677 -0.1190  0.4550
13264TIP3    H261208   2.866   2.467   0.250 -0.0242  0.7662  0.2299
13265TIP3   OH261209   0.686   1.149  13.607  0.1819 -0.3564 -0.0246
13265TIP3    H161210   0.702   1.243  13.613 -0.8358 -0.2318  1.4218
13265TIP3    H261211   0.645   1.127  13.691 -2.4282 -1.4989 -1.4639
13266TIP3   OH261212   3.496   4.745  11.479 -0.0010  0.2242 -0.3064
13266TIP3    H161213   3.460   4.674  11.531  0.6363  0.8586  1.0526
13266TIP3    H261214   3.480   4.719  11.388 -0.1925 -1.4187  0.1687
13267TIP3   OH261215   4.851   5.136   6.651  0.1625  0.3375  0.4081
13267TIP3    H161216   4.921   5.074   6.632 -0.5461 -0.5655  0.6739
13267TIP3    H261217   4.896   5.220   6.661  0.9264  0.3486 -2.2004
13268TIP3   OH261218   2.435   6.613  16.525 -0.2392  0.2187  1.0032
13268TIP3    H161219   2.451   6.519  16.521 -0.8839  0.0284  2.2422
13268TIP3    H261220   2.405   6.637  16.437 -0.0611 -0.7221  0.6757
13269TIP3   OH261221   5.455   0.033  11.014 -0.2933 -0.7281  0.2430
13269TIP3    H161222   5.446  -0.005  11.102  2.7820 -1.4860  0.3767
13269TIP3    H261223   5.473   0.125  11.029 -1.8117 -0.4213  0.2630
13270TIP3   OH261224   1.919   6.546  16.944 -0.1274  0.0133  0.4808
13270TIP3    H161225   2.005   6.505  16.948  0.1347  0.5078 -0.0042
13270TIP3    H261226   1.937   6.640  16.945 -0.5653  0.1451 -1.2473
13271TIP3   OH261227   2.477   0.847  11.836 -0.2771 -0.5594  0.0806
13271TIP3    H161228   2.545   0.845  11.769  0.8261 -1.3091  1.1841
13271TIP3    H261229   2.491   0.930  11.881 -0.6407 -0.3314 -0.2166
13272TIP3   OH261230   6.733   2.994   3.028 -0.6112 -0.3695 -0.6801
13272TIP3    H161231   6.739   2.947   2.945 -0.4460 -0.0273 -0.8655
13272TIP3    H261232   6.756   3.084   3.006  1.4144 -0.6459  0.0840
13273TIP3   OH261233   1.398   6.591   5.853  0.5020 -0.0044  0.1287
13273TIP3    H161234   1.421   6.529   5.923  2.2061  2.3287  1.7895
13273TIP3    H261235   1.306   6.612   5.868  0.1185 -1.4841  0.0077
13274TIP3   OH261236   4.974   6.175  15.545  0.1092 -0.0426  0.5521
13274TIP3    H161237   4.891   6.187  15.591  0.9970  1.2977  1.8944
13274TIP3    H261238   5.034   6.141  15.611  0.5721 -1.3111 -0.4778
13275TIP3   OH261239   6.051   6.187   5.657  0.5071  0.3887 -0.5335
13275TIP3    H161240   5.972   6.240   5.646  1.0189  1.0617 -1.0126
13275TIP3    H261241   6.019   6.104   5.693 -0.1816  1.4633  1.4933
13276TIP3   OH261242   4.987   4.761  13.028  0.2242  0.1453  0.0462
13276TIP3    H161243   5.045   4.713  13.087 -0.7066 -0.8845  0.1695
13276TIP3    H261244   5.029   4.846  13.017  1.2095 -0.1932  0.9594
13277TIP3   OH261245   2.805   4.408   1.192  1.1120  0.4207  0.2397
13277TIP3    H161246   2.809   4.474   1.123  0.6713  0.1030 -0.1004
13277TIP3    H261247   2.800   4.458   1.273 -0.7524  0.8546 -0.0846
13278TIP3   OH261248   5.779   0.670  13.745  0.2153 -0.2650 -0.0891
13278TIP3    H161249   5.716   0.628  13.803  2.2281 -2.2945  0.8105
13278TIP3    H261250   5.811   0.745  13.794  1.2427 -1.4468  1.1386
13279TIP3   OH261251   6.230   3.895   3.180 -0.0620  0.2127 -0.6089
13279TIP3    H161252   6.152   3.949   3.165 -0.6323  0.1876  1.8213
13279TIP3    H261253   6.255   3.914   3.270  1.3848 -1.5199 -0.5953
13280TIP3   OH261254   4.087   3.362   6.431 -0.1741 -0.0357  0.3833
13280TIP3    H161255   4.176   3.336   6.457  0.9547  1.4737 -1.6965
13280TIP3    H261256   4.042   3.280   6.412  1.4608 -0.7694 -0.4976
13281TIP3   OH261257   2.832   0.451   3.412  0.4653 -0.1144 -0.4857
13281TIP3    H161258   2.853   0.541   3.385 -0.4334  0.6191  1.1104
13281TIP3    H261259   2.786   0.414   3.337 -2.5443  2.0603  0.1269
13282TIP3   OH261260   3.378   6.150  14.202 -0.3764 -0.3621  0.7759
13282TIP3    H161261   3.443   6.089  14.166 -2.7148 -2.4878 -0.1079
13282TIP3    H261262   3.389   6.143  14.297  1.5628  0.3878  0.6432
13283TIP3   OH261263   0.832   3.068  12.558  0.3487 -0.1891 -0.5817
13283TIP3    H161264   0.843   3.163  12.556 -1.1078 -0.0032 -1.0780
13283TIP3    H261265   0.798   3.046  12.472  1.0348 -1.2230 -0.6029
13284TIP3   OH261266   6.430   2.092   4.958 -0.0524 -0.1876 -0.1696
13284TIP3    H161267   6.449   2.175   4.915 -0.9711  1.4082  2.2529
13284TIP3    H261268   6.514   2.064   4.995 -0.2229  1.2096  1.3946
13285TIP3   OH261269   0.313   1.412   4.725  0.6126 -0.3791  0.7884
13285TIP3    H161270   0.342   1.321   4.722 -0.2231 -0.6693  1.1523
13285TIP3    H261271   0.218   1.408   4.710  0.4927  0.3892  1.2675
13286TIP3   OH261272   2.268   0.025   5.020  0.6065  0.0286 -0.1398
13286TIP3    H161273   2.240  -0.051   5.070  0.4414 -0.4116 -0.8897
13286TIP3    H261274   2.187   0.072   5.000  0.6564  0.1089 -0.1584
13287TIP3   OH261275   4.001   1.384   6.233 -0.1344 -0.5000  0.5116
13287TIP3    H161276   3.914   1.419   6.216  0.3784 -0.3347 -2.2036
13287TIP3    H261277   4.054   1.460   6.258  0.4004  0.4587 -3.0203
13288TIP3   OH261278   6.363   5.516   3.766 -0.1189 -0.3143  0.5919
13288TIP3    H161279   6.408   5.586   3.814 -0.6311  0.4207  0.0099
13288TIP3    H261280   6.433   5.471   3.719  0.1155  0.2972  0.3510
13289TIP3   OH261281   0.744   2.811   5.693 -0.5119 -0.1204  0.5147
13289TIP3    H161282   0.721   2.728   5.736 -0.6886 -0.6537 -0.5874
13289TIP3    H261283   0.662   2.861   5.695 -1.1540 -1.0234 -1.1395
13290TIP3   OH261284   4.283   6.018  12.807 -0.1692  0.5900 -0.7368
13290TIP3    H161285   4.302   6.092  12.865 -1.1683 -0.7740  1.4307
13290TIP3    H261286   4.203   6.044  12.761  0.4233  1.5191 -1.2914
13291TIP3   OH261287   1.067   4.263  16.348  0.1185 -0.4846  0.0516
13291TIP3    H161288   1.154   4.238  16.315 -0.1580  1.3786 -2.3327
13291TIP3    H261289   1.020   4.180  16.356  1.8237 -1.4563  0.5576
13292TIP3   OH261290   5.778   5.359   2.453 -0.5848 -0.1323 -0.2124
13292TIP3    H161291   5.852   5.386   2.399 -0.3852 -0.1440  0.0514
13292TIP3    H261292   5.807   5.377   2.543 -0.0385 -2.1505  0.0692
13293TIP3   OH261293   4.020   5.200  12.042 -0.5912 -1.0606 -0.0401
13293TIP3    H161294   3.963   5.242  12.107  0.8255  2.1858 -0.7386
13293TIP3    H261295   3.975   5.213  11.959 -0.3748 -1.4340 -0.2201
13294TIP3   OH261296   6.777   0.117  10.854  0.0936  0.1810 -0.1817
13294TIP3    H161297   6.706   0.166  10.814 -0.4198 -1.1459 -0.9598
13294TIP3    H261298   6.740   0.031  10.873  0.9681  0.0655  1.1206
13295TIP3   OH261299   0.181   5.698  13.278  0.3832 -0.2652  0.0296
13295TIP3    H161300   0.199   5.781  13.235 -0.0705  3.0097  5.3118
13295TIP3    H261301   0.086   5.690  13.276  0.3895 -0.3335  0.0044
13296TIP3   OH261302   5.757   6.585  11.723  0.3275  0.0583 -0.0367
13296TIP3    H161303   5.743   6.569  11.817 -1.1326 -3.0581 -0.6760
13296TIP3    H261304   5.683   6.543  11.680 -0.4168  3.5689 -2.5811
13297TIP3   OH261305   0.084   4.612  12.987 -0.0200  0.3416 -0.6430
13297TIP3    H161306   0.122   4.578  12.906  0.7219  1.8743 -0.9790
13297TIP3    H261307   0.135   4.571  13.057  0.2913  0.1044 -1.0085
13298TIP3   OH261308   2.431   2.987   6.407  0.5400  0.2757  0.4556
13298TIP3    H161309   2.473   2.901   6.395 -0.3491 -0.2576  1.0341
13298TIP3    H261310   2.352   2.968   6.457 -0.0808  1.3429 -0.0959
13299TIP3   OH261311   3.919   2.975  16.233  0.2471  0.4158  0.1807
13299TIP3    H161312   3.997   3.030  16.237  0.8593 -0.0215 -3.1080
13299TIP3    H261313   3.871   3.006  16.157 -1.6913 -0.7764  0.8345
13300TIP3   OH261314   4.529   2.593   4.483  0.3791  0.4511 -0.3011
13300TIP3    H161315   4.569   2.509   4.505 -0.8858  0.1789  1.1079
13300TIP3    H261316   4.501   2.583   4.392  1.1997 -0.2518 -0.4843
13301TIP3   OH261317   1.516   3.134  15.421 -0.4149 -0.8558  0.1381
13301TIP3    H161318   1.554   3.094  15.343 -2.7324  0.1227 -1.6026
13301TIP3    H261319   1.470   3.062  15.464 -0.9307 -0.9677 -0.5894
13302TIP3   OH261320   1.952   0.665  14.744 -0.1324 -0.2925 -0.3012
13302TIP3    H161321   1.886   0.597  14.733  1.4664 -2.0861  0.4473
13302TIP3    H261322   1.940   0.696  14.834  1.4256 -2.3311  0.7115
13303TIP3   OH261323   2.539   6.275  16.227 -0.3365 -0.0366  0.1676
13303TIP3    H161324   2.522   6.193  16.273  0.3715 -0.4970 -0.3571
13303TIP3    H261325   2.474   6.276  16.156  0.3656 -0.7135 -0.5083
13304TIP3   OH261326   6.574   1.494   0.701 -0.3638 -0.3255 -0.3966
13304TIP3    H161327   6.507   1.427   0.716 -0.8912  0.3370  0.3412
13304TIP3    H261328   6.574   1.546   0.782  0.3605  0.2788 -0.7704
13305TIP3   OH261329   3.784   0.798  12.195 -0.3842 -0.1008  0.3642
13305TIP3    H161330   3.807   0.780  12.104 -1.2925  0.8247 -0.0613
13305TIP3    H261331   3.757   0.713  12.230  1.0272 -0.6900  0.1231
13306TIP3   OH261332   1.551   6.294  16.195 -0.2939  0.6812  0.4287
13306TIP3    H161333   1.524   6.215  16.242  2.1760 -1.7765 -1.9267
13306TIP3    H261334   1.573   6.357  16.264 -1.0407 -1.1118  2.4182
13307TIP3   OH261335   1.144   5.398  11.661  0.6617 -0.0523 -0.1198
13307TIP3    H161336   1.122   5.319  11.712  0.6800 -0.5814 -0.9081
13307TIP3    H261337   1.238   5.391  11.647  0.7731  0.4569  0.3706
13308TIP3   OH261338   3.526   1.994   4.982  0.4299  0.4005  0.1977
13308TIP3    H161339   3.452   1.960   5.032  1.3151 -0.7992  0.7260
13308TIP3    H261340   3.595   2.007   5.046  0.6046  1.7922 -0.2429
13309TIP3   OH261341   3.541   6.143  16.343  0.4869 -0.2699 -0.3806
13309TIP3    H161342   3.524   6.217  16.285 -0.7687  0.3225  0.6828
13309TIP3    H261343   3.482   6.074  16.311 -0.4102  0.1480  0.3122
13310TIP3   OH261344   0.055   1.806  14.609 -0.0426 -0.0278 -0.4071
13310TIP3    H161345   0.103   1.730  14.576  1.3578  0.7736 -0.3044
13310TIP3    H261346   0.069   1.873  14.543 -0.7888  0.3176 -0.2176
13311TIP3   OH261347   4.520   5.875   4.855  0.1777 -0.2502  1.2202
13311TIP3    H161348   4.533   5.898   4.947  2.5005 -0.1703  0.9203
13311TIP3    H261349   4.530   5.780   4.852  0.9355 -0.1646  0.9360
13312TIP3   OH261350   4.251   5.724  11.818 -0.2523  0.5463  0.1761
13312TIP3    H161351   4.161   5.744  11.791  0.1081  0.5560 -1.0687
13312TIP3    H261352   4.241   5.682  11.903 -1.5430 -0.6677 -0.5260
13313TIP3   OH261353   1.347   2.642   1.281 -0.0851 -0.1214  0.7598
13313TIP3    H161354   1.344   2.659   1.187 -1.1352 -2.9540  0.1616
13313TIP3    H261355   1.365   2.727   1.321 -0.0260  1.2438 -1.9599
13314TIP3   OH261356   5.890   1.292  14.372  0.1052 -0.5183  0.3767
13314TIP3    H161357   5.955   1.224  14.353 -0.2311 -1.1629  1.4292
13314TIP3    H261358   5.939   1.374  14.368  0.4772 -0.7730 -1.1272
13315TIP3   OH261359   3.874   5.737   0.600 -0.1621 -0.4883  0.4188
13315TIP3    H161360   3.880   5.827   0.569  2.3203 -0.8291 -0.3023
13315TIP3    H261361   3.860   5.744   0.694  0.4883  0.6814  0.4418
13316TIP3   OH261362   3.392   4.370  12.573 -0.5395 -1.2031  0.0520
13316TIP3    H161363   3.409   4.380  12.479  1.0170  2.1615  0.5112
13316TIP3    H261364   3.311   4.418  12.588  0.9500  1.2946  0.7655
13317TIP3   OH261365   4.384   3.607   3.826  0.4951  0.2699 -0.3432
13317TIP3    H161366   4.441   3.679   3.802 -0.4047  1.5371  1.1778
13317TIP3    H261367   4.386   3.604   3.921 -0.5591 -0.8367 -0.3221
13318TIP3   OH261368   6.057   0.082   4.626 -0.3307  0.1698  0.2386
13318TIP3    H161369   6.114   0.035   4.687  0.7502  0.9475 -0.1327
13318TIP3    H261370   5.999   0.015   4.590 -0.5299 -0.4199  1.5986
13319TIP3   OH261371   3.800   4.401   1.730 -0.4688 -0.4353 -0.3240
13319TIP3    H161372   3.766   4.344   1.799 -2.0417  0.8916  0.0495
13319TIP3    H261373   3.748   4.379   1.653 -1.2837  0.6592 -0.1050
13320TIP3   OH261374   1.991   3.650  16.910  0.4658  0.0352  0.5135
13320TIP3    H161375   1.914   3.626  16.859 -0.9864  1.2254  2.0085
13320TIP3    H261376   2.052   3.578  16.898 -0.9411 -1.0201 -0.6119
13321TIP3   OH261377   6.124   0.269  15.926  0.6348 -0.5423  0.6524
13321TIP3    H161378   6.137   0.279  16.021  0.2364 -0.8047  0.7321
13321TIP3    H261379   6.209   0.295  15.889  0.5841  0.2242  1.0396
13322TIP3   OH261380   2.129   4.983   5.949 -0.0776 -0.4924 -0.0044
13322TIP3    H161381   2.075   5.021   5.880 -0.2539 -0.8720 -0.0799
13322TIP3    H261382   2.103   4.891   5.952 -0.2811 -0.4174  0.7658
13323TIP3   OH261383   6.203   3.934  17.237  0.3402  0.0834 -0.3392
13323TIP3    H161384   6.232   3.881  17.163  0.2937 -0.3919 -0.0248
13323TIP3    H261385   6.121   3.975  17.206  0.2335 -0.2409 -0.4915
13324TIP3   OH261386   0.967   4.156  14.576  0.1601  0.4246  0.3605
13324TIP3    H161387   0.932   4.126  14.492 -0.1974 -0.1170  0.6957
13324TIP3    H261388   1.058   4.179  14.557  0.1353  0.1320 -0.1372
13325TIP3   OH261389   5.842   2.710  13.306  0.1645  0.6104  0.2916
13325TIP3    H161390   5.902   2.770  13.261  1.8815 -0.9681  0.3537
13325TIP3    H261391   5.841   2.741  13.397 -0.0076  1.3142  0.0550
13326TIP3   OH261392   1.002   5.414  14.692 -0.1736 -0.4168 -0.6068
13326TIP3    H161393   1.032   5.403  14.783  0.5755  3.3827 -0.2110
13326TIP3    H261394   1.038   5.339  14.646 -0.4843 -2.4371  2.1722
13327TIP3   OH261395   4.289   3.527  16.190 -0.4261  0.6566 -0.3097
13327TIP3    H161396   4.248   3.463  16.132 -1.1619  1.6378 -0.8936
13327TIP3    H261397   4.238   3.520  16.271 -1.9326  1.9948 -1.0913
13328TIP3   OH261398   0.004   4.139  16.860 -0.1717 -0.8714 -0.3251
13328TIP3    H161399  -0.035   4.102  16.939 -0.1488 -0.7525 -0.2593
13328TIP3    H261400  -0.024   4.230  16.860  1.8132 -0.1972  0.8472
13329TIP3   OH261401   4.808   1.435   5.784 -0.1071 -0.7437 -0.4424
13329TIP3    H161402   4.780   1.495   5.715  1.8714  0.2599 -0.4557
13329TIP3    H261403   4.731   1.426   5.840 -1.1312  0.0571 -1.6445
13330TIP3   OH261404   5.391   4.926  16.361  0.3413 -0.3604 -0.4858
13330TIP3    H161405   5.352   4.860  16.418 -0.4369  0.0889 -0.4903
13330TIP3    H261406   5.453   4.972  16.417  0.8746 -1.0729 -0.4765
13331TIP3   OH261407   4.328   4.603  13.722 -0.3421  0.0267 -0.0840
13331TIP3    H161408   4.326   4.674  13.658 -0.7648 -0.1589 -0.2835
13331TIP3    H261409   4.322   4.523  13.669  1.9665 -0.2622 -0.0006
13332TIP3   OH261410   2.753   2.906  15.398  0.4689 -0.3075 -0.7237
13332TIP3    H161411   2.790   2.993  15.408  3.1155 -1.2700 -1.4083
13332TIP3    H261412   2.722   2.882  15.486  2.8939  0.0155  0.2918
13333TIP3   OH261413   1.933   5.345  11.643 -0.2515 -0.1918 -0.4878
13333TIP3    H161414   1.899   5.416  11.697 -0.7673  0.2468 -1.3685
13333TIP3    H261415   1.972   5.389  11.567  1.1178 -0.7542 -0.1429
13334TIP3   OH261416   5.620   5.840   5.986 -0.2654  0.1830  0.0563
13334TIP3    H161417   5.695   5.872   6.037 -0.7956 -1.0844  1.6888
13334TIP3    H261418   5.551   5.904   6.003 -2.0780 -2.5948  5.1867
13335TIP3   OH261419   5.212   6.498  16.187  0.5712 -0.6591 -0.1394
13335TIP3    H161420   5.168   6.449  16.256  0.4686 -0.7838 -0.2918
13335TIP3    H261421   5.186   6.454  16.106  0.3821 -0.2833 -0.2891
13336TIP3   OH261422   4.126   5.970  15.897 -0.1937  0.0684 -0.5039
13336TIP3    H161423   4.031   5.967  15.904 -0.3221  1.8650 -0.9884
13336TIP3    H261424   4.153   5.878  15.895 -1.7869 -0.4876  1.0946
13337TIP3   OH261425   3.273   2.507  11.712  0.0149  0.6193  0.2037
13337TIP3    H161426   3.239   2.519  11.624 -0.0985 -0.5192  0.0814
13337TIP3    H261427   3.332   2.582  11.725 -0.2817  1.0189 -0.6718
13338TIP3   OH261428   0.528   2.116   5.465 -0.5417 -0.7321  0.1839
13338TIP3    H161429   0.440   2.133   5.500  0.1180  1.3737  1.0090
13338TIP3    H261430   0.574   2.073   5.537 -0.9064 -1.9573 -0.2954
13339TIP3   OH261431   1.482   0.024   2.376 -0.3627 -0.3263  0.1605
13339TIP3    H161432   1.459   0.075   2.453 -1.1012 -0.2713 -0.0816
13339TIP3    H261433   1.577   0.031   2.368 -0.1407 -1.1908  1.6679
13340TIP3   OH261434   3.431   2.575   6.083 -0.7378 -0.1530 -0.2822
13340TIP3    H161435   3.431   2.619   6.168 -2.1982  0.6978 -0.6912
13340TIP3    H261436   3.440   2.646   6.019 -2.7693 -0.4088 -0.9322
13341TIP3   OH261437   6.368   1.785   0.737 -0.2099 -0.5193  0.1215
13341TIP3    H161438   6.315   1.706   0.739  0.3615 -0.9175 -0.2568
13341TIP3    H261439   6.314   1.850   0.692 -1.1021 -0.3704  1.3716
13342TIP3   OH261440   1.330   0.382   3.373  0.1499  0.4157  0.4025
13342TIP3    H161441   1.380   0.448   3.422 -0.7909  1.3620  0.1229
13342TIP3    H261442   1.260   0.357   3.433 -0.4837  0.9265 -0.1104
13343TIP3   OH261443   0.180   5.447  11.458  0.3311 -0.0770  0.3773
13343TIP3    H161444   0.099   5.414  11.497 -0.2999  1.5243  0.4983
13343TIP3    H261445   0.241   5.374  11.465 -0.9920 -1.2057  0.6051
13344TIP3   OH261446   1.247   2.221   5.741 -0.5063  0.1806  0.8366
13344TIP3    H161447   1.267   2.314   5.754 -1.2915  0.5587 -0.4046
13344TIP3    H261448   1.175   2.221   5.677 -0.0878 -1.3051  0.3283
13345TIP3   OH261449   2.139   3.365  12.399  0.1080  0.2540  0.1385
13345TIP3    H161450   2.086   3.286  12.412  0.2344  0.3702  1.5330
13345TIP3    H261451   2.149   3.401  12.487  0.3176  1.6636 -0.4509
13346TIP3   OH261452   6.340   1.683  13.617  0.1109 -0.1339  0.4708
13346TIP3    H161453   6.302   1.747  13.677  0.0803  1.5732 -1.2608
13346TIP3    H261454   6.269   1.621  13.599  0.1844 -0.7866  2.2922
13347TIP3   OH261455   4.509   2.532  11.339  0.2340 -0.7201  0.1342
13347TIP3    H161456   4.471   2.534  11.426 -0.6996  0.8063 -0.2735
13347TIP3    H261457   4.501   2.622  11.306  1.1231 -1.1104 -1.2901
13348TIP3   OH261458   5.190   6.286   3.937 -0.1433  0.4712  0.5339
13348TIP3    H161459   5.104   6.291   3.896  0.3217 -0.3180 -0.6176
13348TIP3    H261460   5.220   6.377   3.943  0.2598  0.5748 -2.0507
13349TIP3   OH261461   2.047   0.992  15.524  0.1091 -0.6503 -0.5474
13349TIP3    H161462   1.995   1.064  15.560  1.4964  0.1046  0.0357
13349TIP3    H261463   2.076   0.942  15.600  2.2567  0.3895 -0.5873
13350TIP3   OH261464   1.464   1.302  17.051 -0.0771  0.4053  0.1086
13350TIP3    H161465   1.403   1.358  17.100 -0.0777 -0.1304  0.7257
13350TIP3    H261466   1.549   1.346  17.060  0.0117  0.0575  0.9924
13351TIP3   OH261467   4.907   6.609  14.295 -0.8718 -0.1122  0.1934
13351TIP3    H161468   4.832   6.590  14.352 -0.7912  1.0116  0.7216
13351TIP3    H261469   4.949   6.524  14.281  0.6939 -0.2167  4.0878
13352TIP3   OH261470   0.077   5.175   4.859 -0.4236 -0.2842  0.3799
13352TIP3    H161471   0.003   5.197   4.917  0.1071 -0.6209  1.1986
13352TIP3    H261472   0.091   5.081   4.873  0.6417 -0.0763  0.8155
13353TIP3   OH261473   1.939   3.912  12.171  0.3921  0.1959  0.0239
13353TIP3    H161474   1.926   3.915  12.076  0.1679  1.0173  0.0721
13353TIP3    H261475   1.890   3.988  12.204 -0.3678 -0.6563  0.8968
13354TIP3   OH261476   2.082   3.254   1.419  0.2940 -0.1317 -0.9537
13354TIP3    H161477   2.037   3.181   1.376  1.5230  0.3330 -3.1653
13354TIP3    H261478   2.027   3.330   1.399  0.4572 -0.0321 -1.0200
13355TIP3   OH261479   5.663   0.133   0.099 -0.3813  0.5013  0.2859
13355TIP3    H161480   5.639   0.152   0.189  1.4561  2.5743  0.4279
13355TIP3    H261481   5.584   0.150   0.048 -0.9964  0.8292  1.3352
13356TIP3   OH261482   0.050   2.019  14.432 -0.4040 -0.2244 -0.3707
13356TIP3    H161483   0.091   2.068  14.504 -0.5016 -0.5176 -0.1110
13356TIP3    H261484   0.066   2.072  14.354  1.2363 -0.7235 -0.4269
13357TIP3   OH261485   2.410   5.853   0.396  0.4111 -0.2669  0.0611
13357TIP3    H161486   2.325   5.808   0.401 -0.2097  0.8049 -0.4869
13357TIP3    H261487   2.388   5.944   0.377  1.6955  0.0210 -0.1500
13358TIP3   OH261488   1.712   5.312  12.004  0.8823  0.0225  0.5141
13358TIP3    H161489   1.734   5.393  12.049 -0.2396  0.5844  0.0722
13358TIP3    H261490   1.618   5.303  12.014  0.7043 -0.2135 -1.0773
13359TIP3   OH261491   0.382   1.740   4.816  0.3939  0.0959 -0.2291
13359TIP3    H161492   0.377   1.816   4.759  0.3062 -1.2886 -2.1588
13359TIP3    H261493   0.308   1.685   4.790  0.0375 -0.3671  1.6023
13360TIP3   OH261494   2.243   4.833  15.796  0.5300  0.5759 -0.1211
13360TIP3    H161495   2.179   4.805  15.731 -0.8960  2.0264  0.5888
13360TIP3    H261496   2.318   4.862  15.744  0.9364 -1.7736 -0.9459
13361TIP3   OH261497   6.681   4.374  15.707 -0.3701 -0.1342 -0.0931
13361TIP3    H161498   6.776   4.384  15.714 -0.2857 -1.8017  3.0851
13361TIP3    H261499   6.669   4.286  15.670 -0.6937  0.3339 -1.1108
13362TIP3   OH261500   6.617   2.968  11.938 -0.4644  0.5793  0.4956
13362TIP3    H161501   6.578   2.960  11.851 -0.6714  1.5130  0.4960
13362TIP3    H261502   6.694   3.023  11.925  1.7248 -2.2793  0.2525
13363TIP3   OH261503   0.826   5.803   0.851  0.3566  0.0744  0.9268
13363TIP3    H161504   0.768   5.877   0.834  1.1736  0.3010 -1.0736
13363TIP3    H261505   0.887   5.836   0.918  0.8396  1.3039 -0.0942
13364TIP3   OH261506   0.867   2.852   0.675  0.4508 -0.0217  0.0037
13364TIP3    H161507   0.915   2.785   0.626  0.9860  0.2777  0.1125
13364TIP3    H261508   0.777   2.819   0.678  0.9823 -1.5189  1.3715
13365TIP3   OH261509   1.409   1.177   6.445  0.1858 -0.5970  0.5085
13365TIP3    H161510   1.384   1.259   6.487  0.0738  0.9457 -2.3369
13365TIP3    H261511   1.504   1.176   6.448  0.4906  1.8443 -2.9928
13366TIP3   OH261512   2.047   1.720  11.855  0.1236 -0.4536 -0.1642
13366TIP3    H161513   1.976   1.696  11.796  2.0021 -1.9282 -1.9650
13366TIP3    H261514   2.099   1.641  11.865  1.5043  0.5490  1.1468
13367TIP3   OH261515   3.684   1.855  13.148 -0.2929 -0.3760  0.3925
13367TIP3    H161516   3.729   1.806  13.080  1.3759 -1.9040  2.4406
13367TIP3    H261517   3.729   1.830  13.229 -1.0328  2.6463  1.8917
13368TIP3   OH261518   0.399   4.510   1.196  0.1913  0.0306  0.1724
13368TIP3    H161519   0.330   4.452   1.162  0.3420  0.5880 -1.1456
13368TIP3    H261520   0.469   4.504   1.131  0.9366  0.3424  0.9272
13369TIP3   OH261521   5.774   3.696   3.663  0.4579 -0.8080 -0.0899
13369TIP3    H161522   5.866   3.703   3.637  0.8462 -0.3615  1.3626
13369TIP3    H261523   5.776   3.662   3.752 -0.7181  0.5547  0.4983
13370TIP3   OH261524   2.820   3.226   1.837  0.4158  0.0074  0.0952
13370TIP3    H161525   2.846   3.142   1.801  1.5459  0.4978 -0.2933
13370TIP3    H261526   2.821   3.286   1.762 -3.1367 -0.1285 -0.2459
13371TIP3   OH261527   6.634   5.845   4.344 -0.0147  0.2038  0.1798
13371TIP3    H161528   6.592   5.927   4.317 -0.4223  0.3789  1.3010
13371TIP3    H261529   6.727   5.865   4.350 -0.1862  0.7763  1.0823
13372TIP3   OH261530   1.440   2.554  11.925  0.1381  0.2734  0.4885
13372TIP3    H161531   1.354   2.511  11.925  0.2259  0.0985  0.9555
13372TIP3    H261532   1.488   2.511  11.995  0.7573  0.0824 -0.0429
13373TIP3   OH261533   0.147   4.550   3.975 -0.3070  0.0314 -0.1125
13373TIP3    H161534   0.051   4.547   3.967 -0.3494  1.2301 -0.2336
13373TIP3    H261535   0.176   4.467   3.938 -1.2081  0.3997 -1.7621
13374TIP3   OH261536   5.477   5.684  10.862 -0.1506  0.1268 -0.2325
13374TIP3    H161537   5.462   5.757  10.922  1.4107 -0.5431  1.0314
13374TIP3    H261538   5.393   5.638  10.859  0.0071 -0.5044  2.4419
13375TIP3   OH261539   6.410   3.742  15.252  0.6133  0.7099  0.6580
13375TIP3    H161540   6.326   3.705  15.281  1.2753  0.6192  2.5830
13375TIP3    H261541   6.385   3.816  15.196 -0.7212 -0.7845 -0.8540
13376TIP3   OH261542   1.596   5.522  17.119 -0.1133  0.0952  0.4083
13376TIP3    H161543   1.650   5.467  17.177 -0.7912 -0.7474  0.2580
13376TIP3    H261544   1.627   5.500  17.031 -0.7522 -0.4755  0.3137
13377TIP3   OH261545   6.400   2.849   2.342 -0.5229 -0.0104  0.7517
13377TIP3    H161546   6.389   2.827   2.249 -1.8563 -0.7577  1.0564
13377TIP3    H261547   6.466   2.918   2.343 -0.9717  0.4805 -0.8139
13378TIP3   OH261548   0.748   0.115   3.361 -0.3752 -0.0485 -0.1682
13378TIP3    H161549   0.682   0.139   3.297  0.3665  0.2660 -0.8282
13378TIP3    H261550   0.790   0.198   3.385  0.3727 -0.3447 -0.4206
13379TIP3   OH261551   6.544   3.580  11.536 -0.2237 -0.6206  0.3157
13379TIP3    H161552   6.491   3.512  11.494  0.5723 -0.6310 -0.7314
13379TIP3    H261553   6.597   3.533  11.600 -1.2579 -0.6471  1.1738
13380TIP3   OH261554   4.614   0.180   3.040 -0.3769  0.2385  0.3174
13380TIP3    H161555   4.666   0.260   3.032 -1.3350  0.6758 -2.7011
13380TIP3    H261556   4.679   0.112   3.057  0.6938  1.3364  0.8326
13381TIP3   OH261557   5.268   2.236   2.909 -0.4865  0.7426  0.0099
13381TIP3    H161558   5.215   2.306   2.871 -0.7573  0.0807 -0.8540
13381TIP3    H261559   5.221   2.209   2.988 -0.4535  1.4223  0.2712
13382TIP3   OH261560   0.403   1.852  12.987  0.3476  0.3670  0.1447
13382TIP3    H161561   0.447   1.797  12.922  1.0420  0.1089  0.8184
13382TIP3    H261562   0.410   1.802  13.068 -0.1769  0.8640  0.4967
13383TIP3   OH261563   0.067   4.613   4.279  0.0205 -0.3236 -0.6109
13383TIP3    H161564   0.129   4.588   4.347 -0.4832  1.8258  0.7405
13383TIP3    H261565   0.060   4.536   4.223  2.6238 -1.1870  0.1279
13384TIP3   OH261566   1.622   0.131   3.109  0.3060 -0.2118  0.3588
13384TIP3    H161567   1.684   0.194   3.073 -0.3953 -0.5184 -1.5345
13384TIP3    H261568   1.676   0.055   3.133  0.8354  0.0421 -0.0020
13385TIP3   OH261569   1.651   4.449   6.499  0.2696  0.2603 -0.1213
13385TIP3    H161570   1.729   4.462   6.446 -1.0904  0.4380 -2.1939
13385TIP3    H261571   1.643   4.353   6.507 -1.0887  0.0456 -2.8775
13386TIP3   OH261572   0.211   1.616  13.043  0.5575  0.1852  0.2932
13386TIP3    H161573   0.282   1.637  13.104  0.7577  1.4179 -0.3504
13386TIP3    H261574   0.254   1.595  12.961  0.1807  1.5700 -0.2866
13387TIP3   OH261575   0.649   5.639   0.269  0.3374  0.3861  0.2948
13387TIP3    H161576   0.644   5.734   0.259  0.9656  0.5191  1.1819
13387TIP3    H261577   0.563   5.615   0.305 -0.1631  0.4851 -0.7773
13388TIP3   OH261578   1.708   1.624  15.302 -0.0054 -0.0813 -0.1222
13388TIP3    H161579   1.794   1.620  15.343 -0.9787  0.5222  2.1622
13388TIP3    H261580   1.698   1.716  15.275  0.1621 -0.2087 -0.6215
13389TIP3   OH261581   4.570   4.309  14.718  0.0800 -0.4797 -0.5773
13389TIP3    H161582   4.662   4.324  14.694  0.1802  0.3718  0.2687
13389TIP3    H261583   4.538   4.395  14.744  0.6205 -1.4609  4.3095
13390TIP3   OH261584   1.063   1.046   3.402 -0.3153 -0.0867 -0.0715
13390TIP3    H161585   0.997   0.977   3.395 -0.4515  0.0180  0.1752
13390TIP3    H261586   1.145   1.002   3.379 -0.2718 -0.5395  0.8830
13391TIP3   OH261587   5.114   0.725  15.006  0.3306  0.1879  0.2457
13391TIP3    H161588   5.112   0.655  15.072  0.5092 -0.2555 -0.2168
13391TIP3    H261589   5.026   0.726  14.970  0.5839 -0.4633 -0.4273
13392TIP3   OH261590   0.354   5.420  14.744  0.4977 -0.4735  0.1315
13392TIP3    H161591   0.278   5.477  14.756  1.3328  0.6922  0.0623
13392TIP3    H261592   0.428   5.480  14.735  1.4920 -1.5893  0.6020
13393TIP3   OH261593   4.440   2.798  17.011  0.3046  0.2956  0.2056
13393TIP3    H161594   4.411   2.769  17.097  1.5876 -0.2825  0.4674
13393TIP3    H261595   4.528   2.834  17.026  0.2761  0.8044 -0.7568
13394TIP3   OH261596   3.298   4.608  13.587  0.3279 -0.1972 -0.8847
13394TIP3    H161597   3.221   4.660  13.608  0.0126 -0.5881 -1.0604
13394TIP3    H261598   3.304   4.609  13.492 -0.2486 -1.2789 -0.9481
13395TIP3   OH261599   5.521   0.678   4.569 -0.0955  0.3953 -0.3473
13395TIP3    H161600   5.559   0.615   4.508  0.7169 -0.2645  0.7976
13395TIP3    H261601   5.427   0.662   4.565 -0.1017  0.7240 -1.7994
13396TIP3   OH261602   3.556   4.063   0.117 -0.2867 -0.5263  0.2072
13396TIP3    H161603   3.516   4.014   0.045  1.3127 -1.3706 -0.1590
13396TIP3    H261604   3.596   3.996   0.173  0.0998  0.2364  0.8731
13397TIP3   OH261605   1.687   0.372   4.620  0.3494  0.5554  0.5985
13397TIP3    H161606   1.595   0.359   4.641  0.5226  1.1552  1.8018
13397TIP3    H261607   1.694   0.349   4.527 -0.3518 -2.7509  1.2326
13398TIP3   OH261608   3.063   5.718   3.056 -0.0602 -0.7942  0.0390
13398TIP3    H161609   3.038   5.699   2.966  0.8908 -1.6205 -0.0744
13398TIP3    H261610   3.034   5.642   3.106  0.2976 -0.7919  0.2569
13399TIP3   OH261611   0.280   0.531  13.678 -0.1349  0.3338 -0.3484
13399TIP3    H161612   0.265   0.621  13.708  0.9689  0.1314  0.9114
13399TIP3    H261613   0.203   0.483  13.707 -1.7968  1.1972 -2.8761
13400TIP3   OH261614   3.179   4.572  11.172 -0.4394  0.5869 -0.2435
13400TIP3    H161615   3.162   4.515  11.098 -0.5620 -2.6053  2.0450
13400TIP3    H261616   3.269   4.602  11.160  0.0383 -1.0686 -0.9525
13401TIP3   OH261617   4.396   0.557   2.977  0.2907  0.2396 -0.1854
13401TIP3    H161618   4.435   0.473   2.953 -1.2311 -0.2529 -1.0421
13401TIP3    H261619   4.404   0.561   3.072 -1.0967 -1.6417  0.0612
13402TIP3   OH261620   1.030   2.597   5.263 -0.5868 -0.5312  0.0415
13402TIP3    H161621   0.987   2.606   5.348 -1.8969 -2.1416 -0.3825
13402TIP3    H261622   1.105   2.656   5.267  0.7352 -2.2109  3.1546
13403TIP3   OH261623   2.009   6.707   3.495 -0.0174 -0.0307  1.1199
13403TIP3    H161624   2.014   6.789   3.445 -0.3116  0.7963  2.3732
13403TIP3    H261625   2.093   6.665   3.483 -0.1843  0.0082 -0.2763
13404TIP3   OH261626   3.767   1.103  11.063  0.1133 -0.1002 -0.2205
13404TIP3    H161627   3.820   1.107  10.983  0.0721  0.4009 -0.2203
13404TIP3    H261628   3.680   1.075  11.033  0.0208  0.3577 -0.3900
13405TIP3   OH261629   4.262   2.278   0.859  0.3069 -0.1797  0.0678
13405TIP3    H161630   4.321   2.234   0.920  0.7264 -0.8867 -0.8191
13405TIP3    H261631   4.183   2.296   0.909  0.1281 -1.9425  0.4587
13406TIP3   OH261632   2.941   1.392  12.650  0.0087  0.3351 -0.6609
13406TIP3    H161633   2.931   1.487  12.646  1.1300  0.4414 -1.2071
13406TIP3    H261634   3.030   1.376  12.620  0.2491 -0.8062  0.5854
13407TIP3   OH261635   0.565   3.937  14.168 -0.6667  0.2266 -0.1261
13407TIP3    H161636   0.628   3.954  14.239 -0.3570  0.3820 -0.4358
13407TIP3    H261637   0.582   3.847  14.142 -0.0112  0.5107 -0.7496
13408TIP3   OH261638   1.974   5.905   4.834  0.2949  0.3413 -0.1264
13408TIP3    H161639   1.947   5.950   4.754 -1.5054 -0.6159 -0.1102
13408TIP3    H261640   1.892   5.892   4.883  1.1397 -0.5680  1.0936
13409TIP3   OH261641   6.717   0.959  16.524  0.0038 -0.2111  0.3715
13409TIP3    H161642   6.647   0.895  16.515 -0.3144 -0.5445  4.0062
13409TIP3    H261643   6.780   0.934  16.455 -3.4910  0.5070 -3.5006
13410TIP3   OH261644   6.073   3.339  15.814 -0.4220 -0.1898 -0.0708
13410TIP3    H161645   6.162   3.340  15.849 -0.5908  1.0004  0.3963
13410TIP3    H261646   6.060   3.250  15.782  0.9862 -0.3362 -0.2899
13411TIP3   OH261647   1.447   2.870   3.152  0.4149  0.4261  0.9123
13411TIP3    H161648   1.495   2.830   3.079  2.0098  2.3717  0.8136
13411TIP3    H261649   1.500   2.851   3.229 -0.1062  0.2638  1.2376
13412TIP3   OH261650   6.437   5.370   1.706 -0.9151  0.9720  0.0119
13412TIP3    H161651   6.443   5.417   1.789  1.5957 -1.0333  1.0820
13412TIP3    H261652   6.510   5.403   1.654 -1.6004  1.1604 -0.8522
13413TIP3   OH261653   2.549   4.480  16.774  0.1693 -0.2245  0.0399
13413TIP3    H161654   2.543   4.464  16.868  1.0656  1.0604  0.3523
13413TIP3    H261655   2.642   4.467  16.754  0.4228  1.6851 -0.1946
13414TIP3   OH261656   6.381   4.762  13.636  0.3003  0.2625  0.0494
13414TIP3    H161657   6.339   4.834  13.589  0.9599  0.3244 -0.4591
13414TIP3    H261658   6.387   4.692  13.572  0.8878  0.2248  0.1441
13415TIP3   OH261659   6.125   2.583   2.898  0.6385  0.0754 -0.8954
13415TIP3    H161660   6.107   2.662   2.948  1.6904  0.8207 -1.6399
13415TIP3    H261661   6.045   2.568   2.847 -0.3449 -0.5603  0.7804
13416TIP3   OH261662   5.016   2.200  16.765  0.3234 -0.3315  0.6661
13416TIP3    H161663   5.041   2.141  16.836 -2.0841 -2.1280  0.1450
13416TIP3    H261664   5.028   2.150  16.685 -2.4788 -0.5276  0.2585
13417TIP3   OH261665   2.414   6.364   1.254 -0.7373  0.9079 -0.0582
13417TIP3    H161666   2.357   6.386   1.328 -0.2328 -0.9917  0.9509
13417TIP3    H261667   2.500   6.399   1.278 -0.4016 -0.3352  0.6300
13418TIP3   OH261668   1.859   2.706  13.952 -0.3170  0.0011 -0.5055
13418TIP3    H161669   1.876   2.612  13.961 -1.0722 -0.1946 -1.0149
13418TIP3    H261670   1.860   2.739  14.042  1.6215 -0.1663 -0.4099
13419TIP3   OH261671   1.741   3.930  13.924 -0.8013 -0.3547  0.2840
13419TIP3    H161672   1.668   3.884  13.883 -3.4501  1.5119  2.5352
13419TIP3    H261673   1.735   4.020  13.892  0.4126 -0.1186  0.6592
13420TIP3   OH261674   4.220   6.021  15.523  0.4584 -0.3622 -0.1932
13420TIP3    H161675   4.147   6.036  15.583  0.5778 -1.9210  0.3827
13420TIP3    H261676   4.261   6.107  15.513 -0.8802  0.3485  0.2160
13421TIP3   OH261677   3.354   2.776   5.605  0.0227  0.1742  0.2486
13421TIP3    H161678   3.365   2.806   5.695 -2.1472  2.2273 -0.0489
13421TIP3    H261679   3.260   2.760   5.597 -0.2121  2.0850 -2.1528
13422TIP3   OH261680   0.181   4.370   1.574 -0.1073 -0.0939  0.3873
13422TIP3    H161681   0.122   4.297   1.592 -0.0749 -0.2028  0.0591
13422TIP3    H261682   0.253   4.331   1.524  1.7045 -0.5462  3.1100
13423TIP3   OH261683   6.322   2.052  16.103 -0.4178 -0.5414 -0.0872
13423TIP3    H161684   6.265   1.977  16.083  0.0265 -0.8411 -0.2525
13423TIP3    H261685   6.331   2.098  16.020 -0.8865 -0.1614  0.0665
13424TIP3   OH261686   3.087   3.527  10.739  0.0852  0.5127  0.4295
13424TIP3    H161687   3.135   3.494  10.815  0.3719  0.4033  0.2005
13424TIP3    H261688   3.059   3.615  10.766 -0.9099  0.0027  1.1388
13425TIP3   OH261689   5.029   0.942   6.099  0.2316  0.2566  0.0846
13425TIP3    H161690   4.960   1.001   6.131  0.5706  0.2726  0.8245
13425TIP3    H261691   5.061   0.984   6.019 -1.3480 -0.3187 -0.8920
13426TIP3   OH261692   0.854   3.589  12.155 -0.4136 -0.2910 -0.7386
13426TIP3    H161693   0.947   3.582  12.178 -1.2686 -3.0498  2.9004
13426TIP3    H261694   0.816   3.640  12.226 -1.8528  0.2102 -1.8234
13427TIP3   OH261695   5.087   3.842   2.119 -0.3668 -0.7291  0.2660
13427TIP3    H161696   5.139   3.762   2.113 -0.5682 -0.9801  1.5803
13427TIP3    H261697   5.119   3.885   2.199 -0.0372  0.6719 -0.5815
13428TIP3   OH261698   2.907   6.098  13.443  0.8360  0.2261  0.3560
13428TIP3    H161699   2.935   6.031  13.381 -0.2520 -0.8036  0.9465
13428TIP3    H261700   2.837   6.145  13.396  0.1796 -0.3972  0.6894
13429TIP3   OH261701   2.733   5.121   5.633 -0.2838 -0.1524 -0.0103
13429TIP3    H161702   2.784   5.134   5.714  2.0906 -2.3044 -1.0462
13429TIP3    H261703   2.799   5.103   5.566 -2.3721 -1.7442 -1.7456
13430TIP3   OH261704   3.120   0.220   0.169  0.0266 -0.1890  0.8165
13430TIP3    H161705   3.118   0.131   0.134  0.3913 -0.3381  1.1818
13430TIP3    H261706   3.114   0.209   0.264  0.6097  0.1513  0.8953
13431TIP3   OH261707   0.102   3.364   4.604  0.1231 -0.4828  0.5474
13431TIP3    H161708   0.118   3.314   4.524 -1.1119 -0.6531  0.3829
13431TIP3    H261709   0.169   3.433   4.604  0.0628 -0.4100 -0.6967
13432TIP3   OH261710   6.492   5.981   3.516 -0.0936 -0.3152 -1.0671
13432TIP3    H161711   6.458   5.892   3.513 -0.9245 -0.0352 -0.4703
13432TIP3    H261712   6.560   5.984   3.449  0.0180 -1.4232 -1.0114
13433TIP3   OH261713   3.946   3.387  16.109 -0.2959 -1.1308 -0.1202
13433TIP3    H161714   4.019   3.397  16.047 -0.7558  2.8692 -0.2314
13433TIP3    H261715   3.868   3.379  16.053 -0.3279 -1.5964 -0.0133
13434TIP3   OH261716   5.010   1.997   4.869 -0.3934 -0.7759  0.2055
13434TIP3    H161717   4.976   2.086   4.876  0.9254 -0.2307 -0.0844
13434TIP3    H261718   5.023   1.969   4.959 -1.8587 -1.1234  0.3418
13435TIP3   OH261719   6.087   0.314   4.490  0.0562 -0.2450 -0.6257
13435TIP3    H161720   6.081   0.239   4.549 -0.9128 -0.3865 -0.8952
13435TIP3    H261721   6.156   0.369   4.529 -0.6792 -0.2352  0.7537
13436TIP3   OH261722   6.313   0.871   4.390 -0.1158  0.7354 -0.6749
13436TIP3    H161723   6.309   0.811   4.315  0.8209  0.1924 -0.3004
13436TIP3    H261724   6.233   0.855   4.438 -0.1341  0.1857 -0.8850
13437TIP3   OH261725   4.791   0.015   3.167 -0.2319 -0.4093  0.6267
13437TIP3    H161726   4.743  -0.066   3.184  0.8505 -1.3581 -0.5960
13437TIP3    H261727   4.880  -0.014   3.144 -0.4158  0.8993 -2.2454
13438TIP3   OH261728   1.566   4.642  16.916  0.4027  0.1263 -0.0112
13438TIP3    H161729   1.591   4.705  16.849  0.0325  0.3083  0.0212
13438TIP3    H261730   1.516   4.575  16.869 -0.1177  0.4109  0.1275
13439TIP3   OH261731   1.229   1.617   6.650 -0.6604  0.1095  0.1440
13439TIP3    H161732   1.281   1.678   6.701 -1.4896  0.5300  0.5051
13439TIP3    H261733   1.291   1.550   6.622  0.3822  1.3578 -0.6795
13440TIP3   OH261734   0.649   1.986  16.134 -0.0551  0.5703 -0.6028
13440TIP3    H161735   0.670   1.900  16.097 -2.6923 -0.9190  1.0530
13440TIP3    H261736   0.727   2.011  16.183  0.7247 -0.9268 -1.0337
13441TIP3   OH261737   5.575   4.046  17.067 -0.2964  0.3067  0.2962
13441TIP3    H161738   5.550   3.959  17.035 -1.8693  0.8862 -0.1393
13441TIP3    H261739   5.644   4.074  17.007  0.0267 -0.5218  0.2676
13442TIP3   OH261740   5.582   5.064   0.021 -0.0552  0.0385 -0.4249
13442TIP3    H161741   5.584   5.018   0.105 -0.3731 -1.5965 -1.2765
13442TIP3    H261742   5.670   5.053  -0.014  0.0207  0.5534 -0.4097
13443TIP3   OH261743   0.129   4.343  12.235 -0.6362 -0.0795  0.4789
13443TIP3    H161744   0.067   4.389  12.179 -0.2392  0.1299  0.2080
13443TIP3    H261745   0.203   4.403  12.245  0.0263 -0.7730 -0.1300
13444TIP3   OH261746   6.259   2.494   4.445 -0.5356 -0.0196 -0.0374
13444TIP3    H161747   6.328   2.555   4.419 -1.1317  0.5916 -0.2239
13444TIP3    H261748   6.209   2.542   4.511 -0.3763 -0.7180  0.6045
13445TIP3   OH261749   5.681   4.287  11.492 -0.0122  0.5540 -0.5599
13445TIP3    H161750   5.745   4.357  11.480 -0.6400  1.0696 -1.0373
13445TIP3    H261751   5.632   4.312  11.571  0.6222 -0.0434  0.0320
13446TIP3   OH261752   2.344   3.175   5.911 -0.5134 -0.3920 -0.4489
13446TIP3    H161753   2.297   3.148   5.990  1.1857  0.1353  0.7831
13446TIP3    H261754   2.322   3.268   5.901  1.1289  0.1719  0.8162
13447TIP3   OH261755   4.911   5.897  12.709 -0.3286  0.4019  0.2781
13447TIP3    H161756   4.858   5.849  12.646 -0.3588  0.1950  0.4609
13447TIP3    H261757   4.999   5.897  12.672 -0.5803  1.3463 -0.3758
13448TIP3   OH261758   5.100   2.018  13.496 -0.2655  0.6997 -0.0887
13448TIP3    H161759   5.052   1.937  13.514 -1.3344  1.6101  1.3812
13448TIP3    H261760   5.080   2.037  13.404  2.6026 -2.3025 -1.5604
13449TIP3   OH261761   4.459   5.903  13.487 -0.4281  0.1147 -0.4766
13449TIP3    H161762   4.461   5.994  13.458  0.1466  0.3775  0.3300
13449TIP3    H261763   4.510   5.855  13.422 -0.0480  0.5147 -0.4804
13450TIP3   OH261764   1.551   5.366   6.247  0.1213 -0.2575 -0.3319
13450TIP3    H161765   1.605   5.310   6.303 -0.9707  0.0892  1.1469
13450TIP3    H261766   1.552   5.451   6.290  0.7072  0.5473 -1.8553
13451TIP3   OH261767   2.397   3.573  13.687  0.0992 -0.5320 -0.2449
13451TIP3    H161768   2.316   3.609  13.722 -0.4749 -1.8139 -0.2237
13451TIP3    H261769   2.434   3.522  13.759  0.1680 -1.1509 -0.7109
13452TIP3   OH261770   1.592   1.061  14.185 -0.2988 -0.0826  0.0883
13452TIP3    H161771   1.541   1.078  14.264 -1.8890  2.2171 -1.2986
13452TIP3    H261772   1.533   1.007  14.131  0.2338 -0.5259 -0.0525
13453TIP3   OH261773   3.940   1.309  14.498  0.3066 -0.3943  0.1817
13453TIP3    H161774   3.944   1.262  14.582  0.6564 -1.4015 -0.3790
13453TIP3    H261775   3.934   1.401  14.522 -0.1614 -0.7090  1.3209
13454TIP3   OH261776   2.067   6.617  10.538  0.3571  0.1207 -0.0848
13454TIP3    H161777   2.159   6.630  10.560 -0.2613  0.3679  2.6658
13454TIP3    H261778   2.033   6.705  10.521  0.6298  0.0133 -1.2765
13455TIP3   OH261779   0.490   6.369  12.310 -0.2242 -0.1111 -0.5401
13455TIP3    H161780   0.580   6.336  12.314 -0.6237 -1.1174  1.2065
13455TIP3    H261781   0.441   6.299  12.265 -0.1537  0.4511 -1.5203
13456TIP3   OH261782   5.098   0.809  14.132 -0.5893  0.9878  0.2130
13456TIP3    H161783   5.091   0.717  14.108  0.8940  1.0428 -0.4951
13456TIP3    H261784   5.009   0.833  14.158 -1.0143 -0.6168  0.3598
13457TIP3   OH261785   1.635   3.591  15.147 -0.0482 -0.4022  0.0106
13457TIP3    H161786   1.690   3.655  15.193  0.0173  0.1979 -0.8813
13457TIP3    H261787   1.649   3.610  15.054 -1.2799 -0.6469 -0.2409
13458TIP3   OH261788   5.274   1.753   3.672 -0.6276  0.6568  0.0149
13458TIP3    H161789   5.288   1.835   3.625 -0.1544  0.0814 -0.8894
13458TIP3    H261790   5.356   1.738   3.720 -0.1263 -0.0029 -0.9951
13459TIP3   OH261791   1.249   0.279  13.693  0.4030 -0.2773  0.2120
13459TIP3    H161792   1.331   0.328  13.689  0.0113  0.2993 -1.1793
13459TIP3    H261793   1.182   0.343  13.668 -0.4465 -0.8204  1.0435
13460TIP3   OH261794   4.461   3.399   1.194 -0.1994 -0.4753  0.0048
13460TIP3    H161795   4.497   3.471   1.246  2.1862 -0.7926 -1.0699
13460TIP3    H261796   4.520   3.325   1.211  0.3825 -0.7339 -2.6506
13461TIP3   OH261797   0.036   3.781  15.597  0.0772  0.2206  0.4610
13461TIP3    H161798   0.096   3.855  15.609 -0.0555  0.7002 -1.5001
13461TIP3    H261799   0.089   3.703  15.615  0.3029  0.7299  2.2330
13462TIP3   OH261800   1.839   5.639   0.992 -0.1970  0.5126 -0.0270
13462TIP3    H161801   1.778   5.565   0.994  1.0728 -0.5581  0.3605
13462TIP3    H261802   1.786   5.714   1.016 -1.2684 -0.4671  0.7964
13463TIP3   OH261803   1.964   3.196   0.418 -0.0367  0.4328 -0.7321
13463TIP3    H161804   1.976   3.290   0.422  0.9187  0.3384 -1.3327
13463TIP3    H261805   1.990   3.171   0.330  0.0142 -0.4395 -0.4819
13464TIP3   OH261806   1.564   0.624  13.269 -0.1999  0.1103  0.1261
13464TIP3    H161807   1.627   0.673  13.217 -0.1974  1.3213  1.2422
13464TIP3    H261808   1.483   0.676  13.264  0.1262  0.9096  2.2852
13465TIP3   OH261809   5.623   0.292   3.476  0.2392 -0.2728  0.3048
13465TIP3    H161810   5.717   0.299   3.459  0.0669 -0.3339 -0.7979
13465TIP3    H261811   5.616   0.268   3.568  1.2634  0.8753  0.6952
13466TIP3   OH261812   3.053   3.141   4.657  0.0352 -0.3942  0.4174
13466TIP3    H161813   3.089   3.052   4.665  0.9931 -0.2025 -1.2604
13466TIP3    H261814   3.130   3.197   4.653 -0.5510  0.4275  0.4751
13467TIP3   OH261815   6.161   1.074   3.567  0.2538 -0.4791 -0.7359
13467TIP3    H161816   6.253   1.096   3.582 -0.0865 -0.6549  2.1261
13467TIP3    H261817   6.117   1.098   3.648 -2.3563  0.0221 -2.1774
13468TIP3   OH261818   5.680   2.972  13.878 -0.3833 -0.3606  0.2751
13468TIP3    H161819   5.774   2.958  13.885 -0.1057  0.3678 -1.5312
13468TIP3    H261820   5.642   2.884  13.875  0.1337 -0.6663  1.8356
13469TIP3   OH261821   5.502   0.051   1.662  0.0315  1.1707 -0.1307
13469TIP3    H161822   5.548   0.106   1.725  0.0038  0.8601  0.1697
13469TIP3    H261823   5.445   0.110   1.614 -1.6934  1.1098  1.7195
13470TIP3   OH261824   3.341   0.995   6.312  0.1332 -1.5868  0.0020
13470TIP3    H161825   3.343   1.065   6.246 -0.1092 -0.4732  1.1276
13470TIP3    H261826   3.430   0.993   6.347 -0.8500  1.7844  3.4967
13471TIP3   OH261827   2.810   4.576  11.856  0.2145  0.1897 -0.0113
13471TIP3    H161828   2.719   4.547  11.853  0.2367  0.0503  0.5366
13471TIP3    H261829   2.805   4.669  11.879  0.2302  0.0357  0.6254
13472TIP3   OH261830   0.878   4.673   6.519  0.4577 -0.3853  0.4522
13472TIP3    H161831   0.912   4.760   6.496 -0.0758  0.0082  1.1122
13472TIP3    H261832   0.828   4.688   6.599 -0.0984 -1.2093  0.2635
13473TIP3   OH261833   4.952   5.969  16.651  0.3032 -0.1291 -0.7869
13473TIP3    H161834   4.899   5.892  16.631  0.3640 -0.2892 -0.3243
13473TIP3    H261835   4.891   6.043  16.641 -0.7327 -0.4577  2.1815
13474TIP3   OH261836   2.228   3.255   6.374  0.1731 -0.2276 -0.3147
13474TIP3    H161837   2.171   3.330   6.389  0.0127 -0.5939  0.9907
13474TIP3    H261838   2.270   3.239   6.458  1.1740 -0.8162 -0.9048
13475TIP3   OH261839   1.704   0.859  11.659  0.3552  0.3616  0.0055
13475TIP3    H161840   1.658   0.813  11.589  1.0202 -0.6376  0.2028
13475TIP3    H261841   1.792   0.820  11.660  1.0923  1.9164 -0.0828
13476TIP3   OH261842   2.159   5.632  14.100  0.0290 -0.0139 -0.1161
13476TIP3    H161843   2.066   5.651  14.088 -0.1982 -0.9614  0.0102
13476TIP3    H261844   2.191   5.700  14.158 -1.2441 -1.2029  2.0893
13477TIP3   OH261845   3.597   1.212   4.525  0.2065 -0.2683  0.2590
13477TIP3    H161846   3.525   1.264   4.562 -0.8637 -1.4200 -0.1260
13477TIP3    H261847   3.553   1.144   4.474  1.5575 -1.4871  0.6519
13478TIP3   OH261848   6.773   2.229   0.870 -0.3871  0.1765 -0.4787
13478TIP3    H161849   6.781   2.224   0.775 -0.6459  3.2694 -0.7885
13478TIP3    H261850   6.850   2.277   0.899 -0.7120 -0.0024  0.7687
13479TIP3   OH261851   6.404   2.863   4.291  0.0725  0.2600  0.1801
13479TIP3    H161852   6.374   2.780   4.253 -0.1679  0.1750  0.5482
13479TIP3    H261853   6.337   2.884   4.357 -0.5751  1.4109 -0.8036
13480TIP3   OH261854   1.504   0.669  16.436 -0.2553 -0.4704  0.2375
13480TIP3    H161855   1.424   0.652  16.486 -0.3295 -0.9629 -0.0414
13480TIP3    H261856   1.568   0.695  16.502  0.1463 -2.7889  0.8615
13481TIP3   OH261857   5.084   5.807   0.918 -0.2798  0.6617 -0.3984
13481TIP3    H161858   5.160   5.866   0.906  0.5093  0.3262  2.3027
13481TIP3    H261859   5.019   5.862   0.962 -0.1781  0.0047  0.5999
13482TIP3   OH261860   3.194   4.308  13.510 -0.0565 -0.3754  0.0996
13482TIP3    H161861   3.259   4.351  13.565 -1.2685  0.3860  0.9883
13482TIP3    H261862   3.243   4.281  13.432  1.6308 -1.1771  1.3768
13483TIP3   OH261863   4.494   0.865  15.169 -0.1579  0.1119  0.3661
13483TIP3    H161864   4.485   0.877  15.074  0.1901  0.0484  0.3231
13483TIP3    H261865   4.493   0.954  15.204  0.0234  0.1509  0.2739
13484TIP3   OH261866   3.832   0.845  13.417  0.0978 -0.0675  0.1411
13484TIP3    H161867   3.750   0.891  13.431 -0.3713 -0.9843  0.4906
13484TIP3    H261868   3.894   0.886  13.478  0.4595  1.9228 -1.4442
13485TIP3   OH261869   6.265   2.118   0.912 -1.4315  0.1796 -0.3638
13485TIP3    H161870   6.237   2.028   0.930  1.6493 -0.1821  4.2080
13485TIP3    H261871   6.347   2.109   0.863 -2.0076  0.6625 -1.4635
13486TIP3   OH261872   5.538   4.901  11.793  0.0524 -0.7241  0.3281
13486TIP3    H161873   5.582   4.830  11.745 -2.6816 -1.9434 -0.6264
13486TIP3    H261874   5.468   4.857  11.840  0.3655  0.9922  2.5138
13487TIP3   OH261875   2.321   4.742  14.647  0.5745  0.0563  0.0105
13487TIP3    H161876   2.318   4.648  14.664  0.5007  0.1177  0.3574
13487TIP3    H261877   2.404   4.770  14.686  0.8876  0.0339 -0.6369
13488TIP3   OH261878   0.451   1.391  13.604  0.3325  0.0196 -0.3791
13488TIP3    H161879   0.445   1.382  13.699 -0.9449 -0.7635 -0.5071
13488TIP3    H261880   0.441   1.302  13.571  0.6538  0.2993 -1.2615
13489TIP3   OH261881   3.022   2.307  11.407 -0.2342  0.5182  0.7347
13489TIP3    H161882   3.027   2.260  11.491  0.3758 -0.0879  0.3624
13489TIP3    H261883   3.056   2.394  11.427 -1.4698  0.8596  1.4517
13490TIP3   OH261884   1.775   2.349  11.308 -0.4725  0.2212  0.5906
13490TIP3    H161885   1.753   2.308  11.225 -2.1726  0.3360  0.9370
13490TIP3    H261886   1.865   2.323  11.325 -0.2889 -0.2768 -0.9966
13491TIP3   OH261887   3.021   2.393  15.107 -0.5060  0.3037  0.7197
13491TIP3    H161888   2.945   2.443  15.138 -0.5280 -0.3071  1.6967
13491TIP3    H261889   3.013   2.393  15.012 -0.8965  1.5387  0.7451
13492TIP3   OH261890   0.052   3.476  14.397 -0.1267 -0.0358  0.0067
13492TIP3    H161891  -0.027   3.490  14.450 -0.7000 -1.9896 -0.2410
13492TIP3    H261892   0.052   3.548  14.334 -2.2934 -0.5108 -0.6246
13493TIP3   OH261893   0.507   5.897   2.600 -0.0765 -0.0536 -0.2265
13493TIP3    H161894   0.429   5.943   2.632 -0.3756 -0.6516 -0.0782
13493TIP3    H261895   0.515   5.924   2.509 -0.0075  0.6121 -0.0304
13494TIP3   OH261896   1.453   5.418  12.366  0.3132  0.6708  0.2030
13494TIP3    H161897   1.493   5.365  12.435  0.0639  2.1352  1.5613
13494TIP3    H261898   1.525   5.473  12.334 -0.0528  1.6863  1.0378
13495TIP3   OH261899   4.480   4.659   1.217 -0.3427 -0.3196  0.3277
13495TIP3    H161900   4.407   4.719   1.202  0.1530  0.1633 -0.2427
13495TIP3    H261901   4.508   4.632   1.129  0.2483 -0.3808  0.5265
13496TIP3   OH261902   1.878   0.653  15.019 -0.0104 -0.2202  0.1048
13496TIP3    H161903   1.918   0.580  15.067  1.6631  1.5706  1.6039
13496TIP3    H261904   1.790   0.661  15.056  0.5604 -0.1246  1.4925
13497TIP3   OH261905   2.594   5.259  15.626  0.0500 -0.1300 -0.1765
13497TIP3    H161906   2.541   5.192  15.583  0.5338 -1.0416  0.6059
13497TIP3    H261907   2.581   5.338  15.573 -2.6343 -0.1141  0.3875
13498TIP3   OH261908   6.431   3.810   0.164 -0.3616  0.0814 -0.2222
13498TIP3    H161909   6.347   3.837   0.128 -0.9164 -1.2321  0.0295
13498TIP3    H261910   6.441   3.719   0.135  0.6467  0.0048  0.3328
13499TIP3   OH261911   1.519   5.155  14.202 -0.0747  0.3248  0.4828
13499TIP3    H161912   1.437   5.174  14.156  0.5254  0.0677 -0.7180
13499TIP3    H261913   1.566   5.238  14.203 -0.4105  0.5188  1.3413
13500TIP3   OH261914   4.744   2.107  13.907  0.1121 -0.2345 -0.2463
13500TIP3    H161915   4.741   2.103  13.812 -0.0235  0.0298 -0.2557
13500TIP3    H261916   4.818   2.052  13.932 -0.2272 -0.8022 -0.4688
13501TIP3   OH261917   4.860   0.596   5.169 -0.2235  0.0108 -0.3731
13501TIP3    H161918   4.824   0.669   5.119  0.0097 -0.2670 -0.9488
13501TIP3    H261919   4.791   0.529   5.167 -0.0991 -0.1130 -0.5770
13502TIP3   OH261920   0.390   0.841  12.622 -0.0577  0.4087 -0.0496
13502TIP3    H161921   0.481   0.829  12.595 -0.3856 -1.3215 -0.5135
13502TIP3    H261922   0.360   0.917  12.572  0.6988  0.0485 -1.0776
13503TIP3   OH261923   6.785   0.556  16.882 -0.5967 -0.0852 -0.0895
13503TIP3    H161924   6.831   0.570  16.799  2.2288  1.7169  1.6043
13503TIP3    H261925   6.807   0.467  16.907 -0.1284 -0.0990 -0.5346
13504TIP3   OH261926   3.668   1.960  11.761  0.1921  0.5622 -0.0121
13504TIP3    H161927   3.631   2.009  11.834 -2.0126 -1.0567  0.0802
13504TIP3    H261928   3.746   1.919  11.797 -0.5620  0.2207  1.3232
13505TIP3   OH261929   1.451   4.897  14.269  0.3570 -0.1307  1.0038
13505TIP3    H161930   1.518   4.845  14.224  1.0484  2.4003 -1.1426
13505TIP3    H261931   1.479   4.988  14.257 -1.8871  0.8821  2.7253
13506TIP3   OH261932   2.630   2.638  11.836  0.3464 -0.4563 -0.5836
13506TIP3    H161933   2.550   2.597  11.869  0.4998 -1.2602 -1.1950
13506TIP3    H261934   2.609   2.731  11.832  0.0604 -0.4312  1.0038
13507TIP3   OH261935   1.299   2.279  16.345  0.5168  0.3072  0.3146
13507TIP3    H161936   1.365   2.285  16.414  0.6915  0.6017  0.1226
13507TIP3    H261937   1.217   2.266  16.391  0.7035 -0.0551  0.5566
13508TIP3   OH261938   2.674   5.087  10.589 -0.0685 -1.0734 -0.4129
13508TIP3    H161939   2.581   5.096  10.611  0.1718 -1.1616  0.7257
13508TIP3    H261940   2.677   5.019  10.521 -0.7785 -1.5463  0.0187
13509TIP3   OH261941   2.462   3.427  14.736  0.2885  0.0384  0.4952
13509TIP3    H161942   2.509   3.457  14.659 -0.9553 -2.4359 -1.3699
13509TIP3    H261943   2.524   3.368  14.780  0.0233 -0.8752 -0.3120
13510TIP3   OH261944   5.224   6.603  14.191  0.3613 -0.4184 -0.5413
13510TIP3    H161945   5.157   6.630  14.127 -1.5059  0.7681  1.7278
13510TIP3    H261946   5.252   6.685  14.232  2.4126 -1.0232 -0.6282
13511TIP3   OH261947   1.841   5.505   6.598  0.1857  0.1988  0.3250
13511TIP3    H161948   1.782   5.580   6.592 -0.4105 -0.1685  1.3624
13511TIP3    H261949   1.784   5.429   6.590  0.7847 -0.1720 -0.7134
13512TIP3   OH261950   2.049   0.675   6.516 -0.1473 -0.0048 -0.1286
13512TIP3    H161951   2.002   0.671   6.433 -0.2302 -2.5150 -0.0465
13512TIP3    H261952   2.128   0.623   6.501  0.1940  0.1029  1.1571
13513TIP3   OH261953   3.337   4.046   2.029  0.0500  0.1380 -0.2672
13513TIP3    H161954   3.304   4.122   2.077 -0.4884 -0.3172  0.1035
13513TIP3    H261955   3.359   4.080   1.943 -1.2070  0.5170 -0.4632
13514TIP3   OH261956   4.359   4.813  16.015 -0.5551  0.2065  0.1890
13514TIP3    H161957   4.357   4.885  15.951  2.2969 -1.1790 -1.7163
13514TIP3    H261958   4.306   4.744  15.975 -0.7288  0.1579  0.5006
13515TIP3   OH261959   1.207   4.180   5.514 -0.3895  0.2724  0.3654
13515TIP3    H161960   1.234   4.122   5.585 -0.3818 -0.9875 -0.6170
13515TIP3    H261961   1.245   4.265   5.536  0.5070 -0.3535  1.3153
13516TIP3   OH261962   1.961   2.814  11.393 -0.5195  0.1983  0.0789
13516TIP3    H161963   1.927   2.751  11.457 -1.3810  1.9459  1.4293
13516TIP3    H261964   1.900   2.888  11.398  0.0741  0.9011 -1.9351
13517TIP3   OH261965   3.649   3.303   3.758  0.5639  0.2198 -0.0056
13517TIP3    H161966   3.637   3.213   3.725  0.7311  0.3806 -0.5186
13517TIP3    H261967   3.560   3.332   3.781  0.5997 -0.3429  0.8882
13518TIP3   OH261968   6.655   6.229  10.379 -0.3918 -0.4029 -0.3065
13518TIP3    H161969   6.681   6.165  10.312  2.4198  0.7060 -0.3819
13518TIP3    H261970   6.734   6.281  10.395 -2.0148  1.7696  1.2171
13519TIP3   OH261971   1.155   1.219   6.292 -0.3201  0.3650 -0.6327
13519TIP3    H161972   1.238   1.204   6.336 -0.7256 -1.1622 -0.3004
13519TIP3    H261973   1.089   1.189   6.355 -1.0410  0.4503 -1.3337
13520TIP3   OH261974   6.682   1.466   4.273 -0.8441  0.1743  0.4324
13520TIP3    H161975   6.663   1.452   4.180 -2.2653 -1.7515  0.9407
13520TIP3    H261976   6.605   1.510   4.307 -1.6370 -1.7281  1.2225
13521TIP3   OH261977   3.317   2.296  13.551 -0.0630  0.6454 -0.4904
13521TIP3    H161978   3.267   2.248  13.485  2.5529 -1.1876 -1.3034
13521TIP3    H261979   3.257   2.304  13.626 -1.5929 -1.2779 -1.4243
13522TIP3   OH261980   5.352   3.280   1.568  0.8003  0.2736 -0.4592
13522TIP3    H161981   5.411   3.348   1.602  0.3190  0.3956  0.1333
13522TIP3    H261982   5.392   3.254   1.485  0.8392  1.4881 -0.8413
13523TIP3   OH261983   2.153   4.588  13.358  0.2948  0.1687  0.0685
13523TIP3    H161984   2.189   4.675  13.337  1.3040  0.2805  2.0567
13523TIP3    H261985   2.227   4.540  13.395 -0.5679 -1.1163  0.1742
13524TIP3   OH261986   0.898   3.111  14.142 -0.2957  0.2322 -0.3022
13524TIP3    H161987   0.931   3.146  14.224  1.4357 -0.3527 -0.7069
13524TIP3    H261988   0.970   3.057  14.108 -0.2982  1.7257 -2.9845
13525TIP3   OH261989   3.809   3.747  11.416  0.5596 -0.1820 -0.7920
13525TIP3    H161990   3.782   3.791  11.336 -0.6703  2.1520  0.7619
13525TIP3    H261991   3.889   3.700  11.392 -0.0239  0.0245 -3.4447
13526TIP3   OH261992   3.982   4.775  14.768 -0.0725 -0.5561 -0.3093
13526TIP3    H161993   3.910   4.732  14.722  0.7294 -0.2255 -1.9605
13526TIP3    H261994   3.940   4.840  14.824 -1.0913 -0.8895 -0.6686
13527TIP3   OH261995   1.899   0.274  17.135  0.6215 -0.4847  0.2279
13527TIP3    H161996   1.975   0.331  17.142  0.4279 -0.0646 -0.8033
13527TIP3    H261997   1.825   0.334  17.125  0.6877 -0.7501 -3.8739
13528TIP3   OH261998   3.646   1.127  16.371  0.1368 -0.4093  0.4995
13528TIP3    H161999   3.734   1.152  16.345 -0.3399  2.5990  1.3307
13528TIP3    H262000   3.591   1.146  16.295  0.0787 -1.5917  0.2276
13529TIP3   OH262001   1.300   0.329   3.096  0.3547 -0.5734 -0.0923
13529TIP3    H162002   1.306   0.307   3.189  2.2741  0.7087  0.1314
13529TIP3    H262003   1.290   0.244   3.052 -0.3179 -1.2192  1.2293
13530TIP3   OH262004   3.833   0.827  10.917 -0.1683  0.0919  0.0367
13530TIP3    H162005   3.862   0.916  10.896  0.8154 -0.2740 -0.2070
13530TIP3    H262006   3.832   0.823  11.012  2.7363 -0.5048  0.1460
13531TIP3   OH262007   3.572   5.168   2.022  0.0801 -0.0899 -0.4211
13531TIP3    H162008   3.604   5.080   2.043  0.4108 -0.5056 -2.4314
13531TIP3    H262009   3.635   5.227   2.062  0.5001 -0.7994 -0.0217
13532TIP3   OH262010   1.914   2.330   4.657 -0.0161 -0.0128  0.0704
13532TIP3    H162011   1.953   2.349   4.572 -0.6443  0.7140 -0.0674
13532TIP3    H262012   1.841   2.391   4.664 -0.2700 -0.3973  0.9245
13533TIP3   OH262013   0.655   0.998  16.570  0.0990  0.4662 -0.4624
13533TIP3    H162014   0.693   0.913  16.594  1.3614  0.8550 -1.0143
13533TIP3    H262015   0.712   1.030  16.500 -0.5315  1.6498 -0.4422
13534TIP3   OH262016   6.532   4.529  14.887  0.0251  0.1266 -0.1565
13534TIP3    H162017   6.608   4.533  14.945 -0.1735 -1.0344  0.2209
13534TIP3    H262018   6.492   4.445  14.907 -1.6015  0.8951 -0.0746
13535TIP3   OH262019   2.733   0.363  14.916 -0.3731  0.0581  0.1107
13535TIP3    H162020   2.769   0.402  14.837 -1.4706  0.4299 -0.2237
13535TIP3    H262021   2.730   0.269  14.898  2.2873 -0.2611  0.9218
13536TIP3   OH262022   1.133   4.642   1.598 -0.1209 -0.1473 -0.2806
13536TIP3    H162023   1.093   4.659   1.684  4.2229  1.6230  1.7258
13536TIP3    H262024   1.097   4.710   1.542 -2.8076 -1.1206  0.1310
13537TIP3   OH262025   1.600   4.738  15.297 -0.0316 -0.1849 -0.4030
13537TIP3    H162026   1.569   4.783  15.219  0.2033 -1.6667 -1.4030
13537TIP3    H262027   1.565   4.789  15.370 -0.9255  0.7844 -1.4658
13538TIP3   OH262028   2.421   3.042  14.899 -0.3314  0.5514  0.0024
13538TIP3    H162029   2.506   3.077  14.874 -0.8369  0.6559 -1.7196
13538TIP3    H262030   2.370   3.043  14.818 -2.0500  0.7116  1.0317
13539TIP3   OH262031   5.404   1.523  16.478  0.6628  0.2452 -0.1253
13539TIP3    H162032   5.421   1.512  16.572 -0.7444 -2.3481 -0.1060
13539TIP3    H262033   5.491   1.523  16.438  1.2676  1.1182  1.1195
13540TIP3   OH262034   2.712   2.793   3.462  1.0977  0.2036 -0.1867
13540TIP3    H162035   2.786   2.737   3.485 -0.0780 -1.6291 -0.6051
13540TIP3    H262036   2.675   2.818   3.547  0.1739 -1.7971  0.0766
13541TIP3   OH262037   1.024   1.366  16.778 -0.4151 -0.7230  0.0815
13541TIP3    H162038   0.988   1.279  16.796 -0.8187 -0.0657  2.9807
13541TIP3    H262039   0.970   1.400  16.706 -1.2061 -2.3029 -0.1172
13542TIP3   OH262040   6.046   2.166   4.763  0.0244 -0.0114 -0.4729
13542TIP3    H162041   5.965   2.123   4.791  0.0508  0.0258 -0.3419
13542TIP3    H262042   6.059   2.134   4.673  0.2016 -0.5052 -0.2763
13543TIP3   OH262043   2.682   6.760  16.547 -0.1981 -0.0701  0.1308
13543TIP3    H162044   2.727   6.743  16.630 -1.6792  0.1263  1.0077
13543TIP3    H262045   2.629   6.682  16.533 -0.4002  0.1523 -0.3370
13544TIP3   OH262046   3.012   5.806   2.167  0.6202  0.4065  0.0623
13544TIP3    H162047   3.052   5.815   2.253 -0.3417  0.4386  0.5139
13544TIP3    H262048   2.923   5.778   2.184  0.3786  0.5244 -0.9213
13545TIP3   OH262049   4.867   3.966   0.316 -0.0858 -0.1388  0.1721
13545TIP3    H162050   4.940   3.955   0.256  0.2902  1.8705  0.1762
13545TIP3    H262051   4.905   4.006   0.394 -0.6555 -2.2064  1.5933
13546TIP3   OH262052   4.138   5.908  11.074 -0.1131 -0.1563  0.1299
13546TIP3    H162053   4.218   5.922  11.126 -1.2360  0.4953  1.7526
13546TIP3    H262054   4.165   5.926  10.984  2.0414 -1.8518  0.3499
13547TIP3   OH262055   6.647   6.668   6.331  0.1825  0.0222 -0.3607
13547TIP3    H162056   6.739   6.679   6.304  0.6230 -2.1310  0.0166
13547TIP3    H262057   6.653   6.612   6.409 -1.3060  2.4582  1.6428
13548TIP3   OH262058   5.601   5.078  13.117 -0.2445  0.2124 -0.0271
13548TIP3    H162059   5.557   5.010  13.067 -1.4961 -0.1515  1.5013
13548TIP3    H262060   5.602   5.154  13.058  1.0792 -1.0183 -1.7214
13549TIP3   OH262061   1.218   3.250  10.465 -0.3197 -0.1557  0.4125
13549TIP3    H162062   1.163   3.303  10.523 -0.7126 -0.5769  0.4291
13549TIP3    H262063   1.240   3.308  10.392 -2.1609 -0.4772 -0.4350
13550TIP3   OH262064   3.178   5.970   3.563  0.0434 -0.4784  1.0537
13550TIP3    H162065   3.086   5.944   3.557 -0.0004 -0.8169  2.6110
13550TIP3    H262066   3.209   5.972   3.473 -1.9876  1.5016  0.3211
13551TIP3   OH262067   0.563   3.993   4.661  0.6722 -0.0249 -0.0527
13551TIP3    H162068   0.518   3.909   4.650 -3.8792  2.1553 -0.8679
13551TIP3    H262069   0.609   4.006   4.578  2.4730 -2.0829  0.5306
13552TIP3   OH262070   5.826   0.124  14.607 -0.0977 -0.3249 -0.5273
13552TIP3    H162071   5.921   0.138  14.607 -0.1900  0.4021  0.3247
13552TIP3    H262072   5.815   0.034  14.577  1.0819 -1.6032  2.4672
13553TIP3   OH262073   2.907   6.229  15.636  0.3665  0.0865 -1.0221
13553TIP3    H162074   2.930   6.136  15.636  1.3744  0.3190 -1.3437
13553TIP3    H262075   2.855   6.241  15.557 -4.4531 -1.2180  1.5583
13554TIP3   OH262076   4.773   1.137   3.185 -0.0112  0.7850 -0.4076
13554TIP3    H162077   4.861   1.099   3.194  0.0523  0.3011 -2.4737
13554TIP3    H262078   4.766   1.200   3.257  1.4093 -0.2922  0.7412
13555TIP3   OH262079   3.913   2.813   0.169 -0.5122  0.1555  0.0722
13555TIP3    H162080   3.981   2.751   0.195  0.5263  0.4538 -1.7374
13555TIP3    H262081   3.922   2.885   0.231  2.2226  1.0881 -1.2174
13556TIP3   OH262082   5.236   4.920  15.191 -0.4607 -0.1819 -0.1189
13556TIP3    H162083   5.200   4.956  15.110 -2.4953  0.4104  0.9569
13556TIP3    H262084   5.161   4.917  15.251  0.7835 -1.3868  1.4852
13557TIP3   OH262085   0.803   2.218  13.714  0.4729 -1.0142  0.0873
13557TIP3    H162086   0.772   2.191  13.628  1.2698  0.7976 -0.8274
13557TIP3    H262087   0.724   2.231  13.765 -0.1866  0.5631 -1.2572
13558TIP3   OH262088   3.708   3.143   4.091  0.1751 -0.4390 -0.2977
13558TIP3    H162089   3.788   3.108   4.052  2.6429  3.1845  0.9981
13558TIP3    H262090   3.673   3.202   4.025  2.0895  2.5865  1.2176
13559TIP3   OH262091   4.172   5.292   0.598 -0.2691 -0.7021 -0.3898
13559TIP3    H162092   4.185   5.198   0.604  2.1105 -0.5011 -1.1707
13559TIP3    H262093   4.159   5.321   0.689  0.6532 -1.5962  0.0417
13560TIP3   OH262094   0.802   2.238   6.730  0.0914  0.4213 -0.3788
13560TIP3    H162095   0.829   2.281   6.649 -0.4244 -0.3403 -0.9690
13560TIP3    H262096   0.836   2.149   6.722 -0.9695 -0.0050 -0.2920
13561TIP3   OH262097   2.734   4.983  10.913  1.3211 -0.6189 -0.1167
13561TIP3    H162098   2.816   4.955  10.872  0.6206 -1.0009 -1.3037
13561TIP3    H262099   2.700   4.904  10.955  0.0192 -1.2920 -2.3149
13562TIP3   OH262100   5.766   3.610  13.735 -1.0228 -0.3301 -0.0175
13562TIP3    H162101   5.838   3.557  13.702 -0.1610  0.5050  0.5050
13562TIP3    H262102   5.713   3.629  13.658 -0.8083 -1.1153 -0.3686
13563TIP3   OH262103   5.690   2.302   3.266 -0.1054 -0.6447 -0.5515
13563TIP3    H162104   5.697   2.206   3.258  2.2187 -0.6813  0.9733
13563TIP3    H262105   5.779   2.331   3.282 -0.9527  1.6373  0.4355
13564TIP3   OH262106   6.681   5.819  13.018  0.1939 -0.0448  0.9199
13564TIP3    H162107   6.747   5.852  13.079 -0.5036 -1.8628  2.7772
13564TIP3    H262108   6.713   5.732  12.993 -0.5087 -0.1099  0.1999
13565TIP3   OH262109   3.698   1.886   6.118  0.2246 -0.9670  0.1320
13565TIP3    H162110   3.711   1.816   6.182 -1.6907 -0.9989  0.5438
13565TIP3    H262111   3.603   1.890   6.106  0.3165  1.3227 -0.1778
13566TIP3   OH262112   3.536   6.156   5.062 -0.8741  0.3192 -0.1209
13566TIP3    H162113   3.467   6.196   5.114 -1.0771 -1.6455  1.2213
13566TIP3    H262114   3.510   6.065   5.053  1.5901 -0.5390  0.5833
13567TIP3   OH262115   6.173   4.299   6.117 -0.2702 -0.2099 -0.0222
13567TIP3    H162116   6.248   4.260   6.071  0.2207 -0.4667  0.9673
13567TIP3    H262117   6.121   4.224   6.147 -1.1915 -0.0306 -1.0904
13568TIP3   OH262118   1.413   1.234   2.889 -0.2333  0.4971  0.1665
13568TIP3    H162119   1.415   1.144   2.921 -1.6183  0.1389 -0.7084
13568TIP3    H262120   1.329   1.242   2.844  1.1407  1.3037 -2.4225
13569TIP3   OH262121   4.199   1.264   3.551 -0.8772  0.0746 -0.7792
13569TIP3    H162122   4.230   1.251   3.641 -1.1115  0.9013 -0.5773
13569TIP3    H262123   4.118   1.313   3.560 -1.1122 -0.1824 -1.4293
13570TIP3   OH262124   1.989   0.576  13.528 -0.1532  0.6444  0.0837
13570TIP3    H162125   1.969   0.521  13.452  2.8183  1.2130 -1.2800
13570TIP3    H262126   1.928   0.547  13.596 -0.7397 -2.1891 -1.4847
13571TIP3   OH262127   5.656   1.811  14.626 -0.3954  0.4106 -0.4329
13571TIP3    H162128   5.664   1.887  14.684 -3.0093  2.2492 -2.2962
13571TIP3    H262129   5.730   1.755  14.650  1.2872  3.2199  1.4535
13572TIP3   OH262130   2.466   5.995  16.345 -0.0451 -0.4302 -0.1770
13572TIP3    H162131   2.391   5.973  16.291  2.0035  0.2116 -3.5557
13572TIP3    H262132   2.428   6.022  16.429 -3.5548 -0.0089 -1.7319
13573TIP3   OH262133   4.983   3.178  13.104  0.1108 -0.5059  0.1634
13573TIP3    H162134   5.037   3.257  13.107  0.2716 -0.6341  0.6053
13573TIP3    H262135   5.044   3.106  13.120 -0.2548 -0.6199  1.1093
13574TIP3   OH262136   2.366   0.550   4.142 -0.1455 -0.0384 -0.0998
13574TIP3    H162137   2.455   0.529   4.169 -0.3180  0.0202  0.5317
13574TIP3    H262138   2.315   0.471   4.162 -0.6157  0.6188  1.4236
13575TIP3   OH262139   1.494   4.983  15.127  0.1622 -0.2250 -0.0797
13575TIP3    H162140   1.556   5.030  15.071  0.8122  1.2737  1.7967
13575TIP3    H262141   1.430   5.049  15.153 -0.3632 -0.9868  0.6194
13576TIP3   OH262142   0.398   3.845   4.057  0.1695 -0.3695  0.0330
13576TIP3    H162143   0.415   3.940   4.056  0.5299 -0.4135  1.0521
13576TIP3    H262144   0.483   3.806   4.075 -0.2719 -0.7939  1.2697
13577TIP3   OH262145   0.836   4.620  12.885 -0.0357  0.3389 -0.2612
13577TIP3    H162146   0.904   4.576  12.936 -1.2886 -1.0890  0.2593
13577TIP3    H262147   0.880   4.696  12.848  1.6690 -0.1684  0.5847
13578TIP3   OH262148   1.982   2.458  17.174 -0.8257  0.1695  0.2070
13578TIP3    H162149   2.012   2.547  17.154  4.0801 -1.1564  0.2470
13578TIP3    H262150   1.987   2.413  17.090 -3.6661 -0.1213  0.1090
13579TIP3   OH262151   0.952   4.659   2.538  0.0570  0.0898 -0.4461
13579TIP3    H162152   0.949   4.746   2.578 -0.4101  0.2742 -0.8640
13579TIP3    H262153   1.045   4.636   2.537  0.0152 -0.2934  1.4890
13580TIP3   OH262154   3.133   1.435  14.972  0.5315 -0.1774 -0.1239
13580TIP3    H162155   3.098   1.356  14.931  1.4222 -1.7089  1.8697
13580TIP3    H262156   3.225   1.414  14.991  0.6469  1.1221  0.9504
13581TIP3   OH262157   3.004   5.071  13.268  0.4389 -0.1721  0.0996
13581TIP3    H162158   3.008   5.129  13.344 -0.3591  0.3256 -0.2241
13581TIP3    H262159   3.051   4.993  13.295 -1.0304 -0.5943  1.6333
13582TIP3   OH262160   6.245   0.180   6.064  0.3895  0.1410 -0.0234
13582TIP3    H162161   6.293   0.228   5.996  2.9084 -0.8770  0.9188
13582TIP3    H262162   6.168   0.234   6.082  2.0378  2.8111 -0.4410
13583TIP3   OH262163   6.383   0.875  12.310  0.4121 -0.0653  0.1609
13583TIP3    H162164   6.433   0.813  12.364 -1.4970 -0.5016  1.5332
13583TIP3    H262165   6.407   0.961  12.344  1.4585 -0.1398 -0.3277
13584TIP3   OH262166   0.669   2.805  15.729 -0.3587  0.3725  0.9608
13584TIP3    H162167   0.719   2.805  15.647 -1.1092 -2.3844  0.3703
13584TIP3    H262168   0.593   2.860  15.711  0.1318  0.8244  0.2369
13585TIP3   OH262169   4.924   1.602  14.071 -0.2970  0.3045  0.0539
13585TIP3    H162170   5.004   1.626  14.117 -0.1171 -1.6485  0.8637
13585TIP3    H262171   4.955   1.548  13.998 -0.8544 -0.4198  0.3435
13586TIP3   OH262172   0.750   0.601  11.655 -0.0915 -0.4824 -0.5703
13586TIP3    H162173   0.727   0.642  11.572  0.7558 -0.0893 -0.6282
13586TIP3    H262174   0.667   0.588  11.700 -0.6764 -1.6771 -1.9184
13587TIP3   OH262175   4.143   3.442   5.614 -0.4888  0.0683  0.3079
13587TIP3    H162176   4.105   3.370   5.664  1.4641 -0.6561  0.8400
13587TIP3    H262177   4.131   3.416   5.523  1.9658 -2.0301  0.4648
13588TIP3   OH262178   4.270   2.406   1.527  0.3510 -0.6606  0.0642
13588TIP3    H162179   4.222   2.464   1.586 -0.0369  0.2638 -1.1262
13588TIP3    H262180   4.304   2.464   1.458  2.6973 -1.3538  0.5381
13589TIP3   OH262181   0.730   6.538   5.461  0.4461  0.3119  0.0541
13589TIP3    H162182   0.730   6.608   5.526  0.4016  1.5433 -1.2238
13589TIP3    H262183   0.820   6.506   5.461  0.7361  1.0906 -0.0663
13590TIP3   OH262184   3.004   4.063  12.716 -0.1147  0.4567  1.0456
13590TIP3    H162185   2.936   3.995  12.710  0.7347 -0.2845 -0.9863
13590TIP3    H262186   3.081   4.016  12.749  1.2691 -0.3593 -2.8246
13591TIP3   OH262187   4.952   4.170  11.927  0.6249 -0.5751 -0.5650
13591TIP3    H162188   5.013   4.111  11.972  0.3283 -1.7581 -1.6441
13591TIP3    H262189   4.995   4.187  11.843  0.7361  0.8424 -0.2487
13592TIP3   OH262190   1.509   5.060   4.135 -0.5274  0.3319  0.1028
13592TIP3    H162191   1.439   5.117   4.103  0.7254  2.6537  1.2416
13592TIP3    H262192   1.483   5.038   4.224 -0.5291 -0.0735  0.0034
13593TIP3   OH262193   6.219   1.029  14.531 -0.3665  0.0560 -0.7301
13593TIP3    H162194   6.215   1.069  14.444 -0.7620  1.3912 -0.1425
13593TIP3    H262195   6.239   0.937  14.515 -1.3990  0.0540 -2.2885
13594TIP3   OH262196   5.971   2.591   5.710 -0.1066 -0.2596 -0.2306
13594TIP3    H162197   5.891   2.625   5.672 -0.0243  1.6653  1.1183
13594TIP3    H262198   6.029   2.576   5.636 -1.8197 -2.1448 -1.2662
13595TIP3   OH262199   5.478   4.987   4.552  0.2802 -0.0961 -0.9331
13595TIP3    H162200   5.506   4.902   4.517  0.2849 -0.7677  0.5908
13595TIP3    H262201   5.521   5.052   4.497  1.1109 -1.0962 -1.4949
13596TIP3   OH262202   2.702   0.573   2.771  0.3557 -0.0896  0.2709
13596TIP3    H162203   2.730   0.542   2.685 -2.4688 -1.5430 -0.2104
13596TIP3    H262204   2.677   0.494   2.819 -0.2139  0.8858  1.6537
13597TIP3   OH262205   3.550   1.658   0.802  0.1099  0.1008 -0.1879
13597TIP3    H162206   3.570   1.567   0.821 -2.3148 -0.3871  0.3069
13597TIP3    H262207   3.540   1.700   0.887 -1.2640  0.1911 -0.3585
13598TIP3   OH262208   1.160   3.852  14.603 -0.2206 -0.1787  0.4241
13598TIP3    H162209   1.173   3.818  14.515  0.5803 -1.7182  1.0955
13598TIP3    H262210   1.153   3.947  14.592 -0.0199 -0.3433 -1.2719
13599TIP3   OH262211   1.843   5.322  14.117 -0.2700  0.6464  0.2696
13599TIP3    H162212   1.912   5.385  14.137 -0.3849  0.8394  0.0752
13599TIP3    H262213   1.840   5.264  14.192  0.1801  0.5688  0.2266
13600TIP3   OH262214   4.050   6.660   0.071  0.7358 -0.2583  0.1068
13600TIP3    H162215   4.096   6.744   0.082  1.9431 -0.9605  0.5928
13600TIP3    H262216   4.084   6.605   0.141  0.2044 -1.2684 -0.4188
13601TIP3   OH262217   4.743   2.181   1.939 -0.9843 -0.5582 -0.2749
13601TIP3    H162218   4.752   2.218   2.027  0.5588 -1.6773  0.0935
13601TIP3    H262219   4.657   2.210   1.909 -1.1495  0.6296  1.2229
13602TIP3   OH262220   2.615   5.582  13.755  1.1669 -0.6181  0.5912
13602TIP3    H162221   2.543   5.520  13.767  0.0031  0.3397 -1.0861
13602TIP3    H262222   2.694   5.527  13.757  0.1028 -2.5168 -2.5693
13603TIP3   OH262223   2.362   0.399  13.392  0.7990  0.5489  0.2279
13603TIP3    H162224   2.389   0.352  13.471  0.3618  1.0140  0.6628
13603TIP3    H262225   2.444   0.417  13.346  1.0050 -0.2318  0.2867
13604TIP3   OH262226   3.608   3.693  16.140 -0.1018 -0.3109 -0.3111
13604TIP3    H162227   3.578   3.633  16.072 -0.4382 -0.0021 -0.4374
13604TIP3    H262228   3.695   3.721  16.111  0.8071 -2.0466  0.5907
13605TIP3   OH262229   4.313   2.131   0.364  0.2242  1.2425 -0.3185
13605TIP3    H162230   4.257   2.059   0.334 -0.8383  0.5484  2.9327
13605TIP3    H262231   4.349   2.169   0.284 -2.0204 -0.6151 -2.3371
13606TIP3   OH262232   2.125   6.188  15.120 -0.7994 -0.9813  0.2889
13606TIP3    H162233   2.190   6.199  15.190 -1.5889 -0.7510  1.0036
13606TIP3    H262234   2.081   6.273  15.115  1.0965 -0.0315 -2.4349
13607TIP3   OH262235   3.560   4.324   4.023 -0.5666  0.3118 -0.5073
13607TIP3    H162236   3.654   4.318   4.007 -0.5697 -0.1195 -0.3918
13607TIP3    H262237   3.545   4.416   4.045  0.3329 -0.1299  2.4479
13608TIP3   OH262238   1.932   4.707   2.956  0.5798  0.3067  0.3215
13608TIP3    H162239   1.979   4.629   2.926 -0.2040 -0.2721  0.5609
13608TIP3    H262240   1.922   4.761   2.877  3.2936  1.3592  0.6050
13609TIP3   OH262241   6.049   1.470  12.776  0.1999 -0.5253  0.4654
13609TIP3    H162242   6.094   1.541  12.821 -1.8449  1.1969 -0.0351
13609TIP3    H262243   6.116   1.403  12.764  1.7584  0.5199  2.6118
13610TIP3   OH262244   3.991   6.567  10.890 -0.5438  0.4722  0.5349
13610TIP3    H162245   3.989   6.483  10.844 -0.2855 -0.4969  2.2216
13610TIP3    H262246   4.080   6.601  10.875  0.4023 -1.0498  2.3282
13611TIP3   OH262247   6.342   0.954   5.069  0.7412 -0.1644 -0.4034
13611TIP3    H162248   6.355   0.870   5.112 -0.3057  0.0314  0.3280
13611TIP3    H262249   6.260   0.944   5.020  1.0965  0.1315 -1.0760
13612TIP3   OH262250   6.518   4.517   2.026  0.2949  0.2069  0.3166
13612TIP3    H162251   6.490   4.535   2.116 -1.0843 -0.9804  0.1607
13612TIP3    H262252   6.544   4.424   2.027  3.9304  1.0562  0.3225
13613TIP3   OH262253   0.265   2.521  17.248 -0.3769 -0.3691 -0.0849
13613TIP3    H162254   0.180   2.478  17.252 -0.6077  0.0053 -0.6895
13613TIP3    H262255   0.315   2.470  17.185 -1.6271  1.7857 -3.0944
13614TIP3   OH262256   5.781   5.626   6.396 -0.0867  0.3495  0.6620
13614TIP3    H162257   5.813   5.714   6.378  0.7177  0.0993  0.8516
13614TIP3    H262258   5.724   5.606   6.321  1.7004  0.0746 -0.7033
13615TIP3   OH262259   6.227   0.747  16.518  0.7554 -0.1472  0.3919
13615TIP3    H162260   6.264   0.690  16.585  0.7399 -0.2074  0.3497
13615TIP3    H262261   6.301   0.800  16.487  0.9806 -0.8048 -0.2377
13616TIP3   OH262262   3.366   3.086  11.131 -0.5988 -0.2829  0.2361
13616TIP3    H162263   3.431   3.049  11.191  0.6995  0.7046 -0.4913
13616TIP3    H262264   3.360   3.178  11.157 -3.4955 -0.8027  1.7958
13617TIP3   OH262265   5.860   3.169   1.973  0.2629 -0.4047 -0.4854
13617TIP3    H162266   5.868   3.128   1.887  2.2931  0.9645 -1.0343
13617TIP3    H262267   5.823   3.101   2.029 -1.4809 -1.2212 -2.4770
13618TIP3   OH262268   2.352   1.092   3.039  0.6738 -0.6182  0.2850
13618TIP3    H162269   2.359   1.187   3.040 -1.9077 -0.2736 -1.6780
13618TIP3    H262270   2.286   1.074   2.972  0.8942 -3.8009  0.7579
13619TIP3   OH262271   1.346   6.617   3.729  0.2050  0.2653  0.0986
13619TIP3    H162272   1.350   6.703   3.686  2.4731 -0.2500 -0.9122
13619TIP3    H262273   1.437   6.586   3.727 -0.8274 -3.0784 -1.5135
13620TIP3   OH262274   4.937   5.228  16.792  0.3887 -0.5078 -0.3345
13620TIP3    H162275   4.960   5.179  16.713  0.1557  0.3520 -0.9406
13620TIP3    H262276   4.864   5.179  16.830  0.5647 -0.9815 -0.5944
13621TIP3   OH262277   3.819   5.744   5.376 -0.0855  0.3206 -0.1988
13621TIP3    H162278   3.811   5.660   5.420 -0.9923  0.2067 -0.5420
13621TIP3    H262279   3.740   5.793   5.403 -0.4066  0.4322 -1.2675
13622TIP3   OH262280   1.892   1.480   0.673 -0.2384  0.3675 -0.5744
13622TIP3    H162281   1.899   1.388   0.699  1.3441  0.5507 -0.2541
13622TIP3    H262282   1.894   1.529   0.755 -0.8814  0.7169 -0.7540
13623TIP3   OH262283   3.616   1.270  16.095  0.0294  0.7512 -0.6614
13623TIP3    H162284   3.568   1.350  16.075  0.6581  1.9610  2.2376
13623TIP3    H262285   3.697   1.300  16.135 -0.0956 -1.3159  1.3384
13624TIP3   OH262286   4.315   6.402  15.027  0.2771  0.2894  0.5416
13624TIP3    H162287   4.366   6.418  14.947 -0.6793 -0.3439 -0.2129
13624TIP3    H262288   4.303   6.489  15.065 -2.2491  1.1285 -1.8877
13625TIP3   OH262289   5.439   6.626   1.153 -0.1194  0.4769 -0.3410
13625TIP3    H162290   5.501   6.692   1.122 -0.1780  0.6964 -0.0022
13625TIP3    H262291   5.448   6.553   1.092 -0.6081  1.1001 -1.1665
13626TIP3   OH262292   2.421   5.695  15.276 -0.2047 -0.4768  0.0358
13626TIP3    H162293   2.442   5.762  15.211  0.8336  0.5995  1.4052
13626TIP3    H262294   2.326   5.699  15.286 -0.3240 -0.3446 -1.0661
13627TIP3   OH262295   0.805   0.996  14.804  0.5899 -0.8947  0.2022
13627TIP3    H162296   0.881   0.944  14.778  0.2215 -1.7081  0.7178
13627TIP3    H262297   0.769   0.950  14.879  0.5357  0.3782  0.9930
13628TIP3   OH262298   3.858   6.684  15.051 -0.7142 -0.0082 -0.5621
13628TIP3    H162299   3.821   6.773  15.053  0.1477  0.3706 -0.8803
13628TIP3    H262300   3.815   6.638  15.123 -0.0125  1.1428  0.6426
13629TIP3   OH262301   1.730   4.293   3.801 -0.0217  0.7195  0.2695
13629TIP3    H162302   1.790   4.238   3.750 -0.2620 -0.0051  0.7548
13629TIP3    H262303   1.647   4.289   3.754 -0.5564 -0.8651  1.3007
13630TIP3   OH262304   6.046   4.303   5.698 -0.0994  0.1709  0.0751
13630TIP3    H162305   5.985   4.320   5.770 -0.6492  0.2612 -0.4122
13630TIP3    H262306   6.010   4.227   5.653 -1.2821  1.7257 -1.7549
13631TIP3   OH262307   6.185   4.515   2.833 -0.3949 -0.3653 -0.0117
13631TIP3    H162308   6.127   4.482   2.902 -0.8539  0.7361  0.1479
13631TIP3    H262309   6.134   4.583   2.790  0.5839  0.2437 -0.2281
13632TIP3   OH262310   4.661   0.150  15.744  0.0739 -0.0014 -0.5492
13632TIP3    H162311   4.755   0.149  15.762  0.2422 -1.7553 -1.3243
13632TIP3    H262312   4.625   0.082  15.801 -0.8017  0.8930  0.0000
13633TIP3   OH262313   0.304   2.585   2.540 -0.7056 -0.0203 -0.9953
13633TIP3    H162314   0.221   2.573   2.493 -1.4333  1.2255 -0.0724
13633TIP3    H262315   0.310   2.679   2.555  1.2566  0.0096 -1.6789
13634TIP3   OH262316   3.744   3.027  12.740 -0.3123 -0.4750  0.1261
13634TIP3    H162317   3.762   3.095  12.806 -0.0338 -1.6003  1.2338
13634TIP3    H262318   3.661   3.054  12.700  0.0932  0.8393  0.1075
13635TIP3   OH262319   3.114   5.208   6.319  1.1151  0.2258  0.3715
13635TIP3    H162320   3.028   5.250   6.322  1.7553  1.6156  0.0541
13635TIP3    H262321   3.102   5.132   6.261  0.2074  0.6293  0.0099
13636TIP3   OH262322   5.065   0.402   5.213 -0.3560 -0.7340 -0.4259
13636TIP3    H162323   5.054   0.353   5.295  0.1268 -1.2444 -0.6617
13636TIP3    H262324   4.984   0.452   5.205 -0.3619 -0.5866  0.4247
13637TIP3   OH262325   4.157   4.856  13.275 -0.0164  0.0578  0.2912
13637TIP3    H162326   4.199   4.934  13.241  0.2030 -0.5751 -0.9405
13637TIP3    H262327   4.154   4.795  13.201 -0.0793 -1.1480  1.2397
13638TIP3   OH262328   6.574   4.860  14.448  0.0370 -0.2574  0.3596
13638TIP3    H162329   6.560   4.819  14.363 -0.9647  1.2996 -0.2802
13638TIP3    H262330   6.612   4.791  14.503  0.5960 -1.3278 -1.3056
13639TIP3   OH262331   5.174   6.028  14.943  1.0871  0.1022 -0.1389
13639TIP3    H162332   5.119   6.106  14.933 -0.5160 -0.9491  0.1269
13639TIP3    H262333   5.145   5.969  14.872 -0.0716 -1.5276  1.5751
13640TIP3   OH262334   6.243   3.482  13.199 -0.2155 -0.1595 -0.1406
13640TIP3    H162335   6.153   3.460  13.177 -0.0607  0.7268 -1.7943
13640TIP3    H262336   6.292   3.401  13.184 -0.5840 -0.3917 -0.1056
13641TIP3   OH262337   6.650   0.954  15.780  0.3186  0.0528 -0.3705
13641TIP3    H162338   6.572   0.906  15.751  0.7539 -0.0063 -1.4931
13641TIP3    H262339   6.711   0.885  15.808  0.4642  0.0264 -0.7556
13642TIP3   OH262340   4.315   0.758   3.696 -0.1089  0.7129 -0.2301
13642TIP3    H162341   4.222   0.737   3.684 -0.0659 -0.2159  0.8744
13642TIP3    H262342   4.328   0.837   3.644 -0.7933 -0.8445 -3.0183
13643TIP3   OH262343   3.751   3.678  13.282  0.3421 -0.2520  0.0567
13643TIP3    H162344   3.836   3.711  13.251  0.0684 -1.2111 -1.8605
13643TIP3    H262345   3.690   3.749  13.262  0.8492  1.1524  2.9664
13644TIP3   OH262346   6.029   0.532  15.069 -0.1145 -0.1880  0.2102
13644TIP3    H162347   6.096   0.472  15.036  1.3787  0.6962  1.4972
13644TIP3    H262348   6.002   0.582  14.991  2.5752  1.1507  0.0299
13645TIP3   OH262349   0.871   4.353  12.583 -0.8232  0.1039 -0.0314
13645TIP3    H162350   0.897   4.433  12.629  1.0101 -0.9381  0.8219
13645TIP3    H262351   0.922   4.283  12.624 -1.2184 -1.3025 -1.7921
13646TIP3   OH262352   5.979   4.027   4.855 -0.4555 -0.6889  0.2306
13646TIP3    H162353   6.057   4.056   4.901 -0.9791 -0.9545  1.3221
13646TIP3    H262354   5.913   4.094   4.874 -0.6201 -0.6808 -0.3325
13647TIP3   OH262355   0.321   2.011   3.107  0.0533 -0.1922  0.4360
13647TIP3    H162356   0.375   1.972   3.175 -0.6300  0.9513  1.6731
13647TIP3    H262357   0.344   2.104   3.107 -0.0478 -0.1411 -0.8227
13648TIP3   OH262358   3.846   4.795   1.475  0.2633 -0.1978 -0.3258
13648TIP3    H162359   3.791   4.870   1.500 -2.0358 -1.8932 -0.0076
13648TIP3    H262360   3.861   4.749   1.557  2.7216  0.4884 -0.3145
13649TIP3   OH262361   3.043   5.483   0.080 -0.0571  0.5542 -0.2177
13649TIP3    H162362   2.996   5.564   0.059 -0.2972  0.2625 -0.8543
13649TIP3    H262363   3.097   5.466   0.003  1.1338  0.9082  0.5294
13650TIP3   OH262364   6.316   5.596  16.581 -0.0505 -0.7237 -0.4893
13650TIP3    H162365   6.366   5.669  16.545  1.3322 -1.1873  0.4243
13650TIP3    H262366   6.307   5.616  16.674 -3.1526  0.2189 -0.8752
13651TIP3   OH262367   6.263   5.720  12.539  0.3228  0.1750  0.3422
13651TIP3    H162368   6.339   5.699  12.592  1.2512  0.7077 -0.7249
13651TIP3    H262369   6.241   5.638  12.495  1.6265  0.4674 -0.9561
13652TIP3   OH262370   6.147   0.199  16.681  0.3033 -0.5275  0.1030
13652TIP3    H162371   6.210   0.268  16.702 -0.6654  0.1095  1.0005
13652TIP3    H262372   6.140   0.147  16.760 -0.5703 -0.3648  0.1436
13653TIP3   OH262373   0.653   3.259   4.512 -0.5338  0.1753 -0.1974
13653TIP3    H162374   0.595   3.316   4.460  0.7322  1.4690 -0.2443
13653TIP3    H262375   0.693   3.317   4.576 -0.4908 -1.0151  0.9059
13654TIP3   OH262376   3.580   6.467  12.876  0.1175  0.3254 -0.3973
13654TIP3    H162377   3.561   6.459  12.782 -0.4200  0.0644 -0.2672
13654TIP3    H262378   3.495   6.460  12.919  0.2839  1.1005  0.0766
13655TIP3   OH262379   6.315   4.008   1.402 -0.0139 -0.0716 -0.0588
13655TIP3    H162380   6.391   3.958   1.432  0.4212  1.7145  2.0494
13655TIP3    H262381   6.331   4.022   1.309  1.7722 -0.5281  0.1497
13656TIP3   OH262382   4.970   0.266  11.563  0.6325  0.1738  0.3871
13656TIP3    H162383   4.962   0.359  11.542 -0.7536  0.1815  0.8169
13656TIP3    H262384   4.949   0.222  11.481  1.3492  0.2243  0.1668
13657TIP3   OH262385   2.186   6.274  13.455 -0.4317  0.6244  0.7324
13657TIP3    H162386   2.205   6.184  13.482  0.5017  0.7089  0.4002
13657TIP3    H262387   2.174   6.268  13.360 -3.0545  0.4308  1.0123
13658TIP3   OH262388   0.947   0.517  12.273 -0.2911  0.2688 -0.3175
13658TIP3    H162389   0.984   0.458  12.206  0.5045  0.1308  0.2314
13658TIP3    H262390   0.852   0.512  12.259 -0.1229  1.0033 -2.0811
13659TIP3   OH262391   6.169   3.953   5.924 -0.8769  0.1115 -0.3505
13659TIP3    H162392   6.196   3.963   5.833  1.5618 -0.0516  0.2785
13659TIP3    H262393   6.187   3.861   5.944 -0.1976  0.4419  0.6230
13660TIP3   OH262394   4.350   2.930  10.880 -0.5185 -0.0420 -0.1924
13660TIP3    H162395   4.275   2.883  10.917 -3.0136  0.8174 -3.6624
13660TIP3    H262396   4.320   3.020  10.870  1.6385  0.7440 -0.2301
13661TIP3   OH262397   2.127   2.536  15.160  0.1441  0.6793 -0.1035
13661TIP3    H162398   2.177   2.602  15.112  0.6220  1.0009  0.8119
13661TIP3    H262399   2.037   2.548  15.130  0.7158 -0.6498 -2.6320
13662TIP3   OH262400   2.591   2.757  12.141 -0.3624  0.3535  0.3220
13662TIP3    H162401   2.526   2.823  12.165  0.0876  0.2358  1.9995
13662TIP3    H262402   2.545   2.698  12.081 -0.6246  2.4345 -1.6705
13663TIP3   OH262403   1.945   4.042  15.389  0.0773  0.4111 -0.4548
13663TIP3    H162404   2.034   4.036  15.353  0.6452 -1.1095  1.0722
13663TIP3    H262405   1.909   3.954  15.379  0.3461 -0.1720  2.7796
13664TIP3   OH262406   5.962   1.988  16.077  0.1915 -0.0716 -0.2721
13664TIP3    H162407   6.040   1.976  16.023  0.5268  1.0262 -0.0462
13664TIP3    H262408   5.939   1.900  16.106 -0.2892 -0.7910 -2.5847
13665TIP3   OH262409   1.109   6.533  14.019  0.2829 -0.2213  0.3949
13665TIP3    H162410   1.016   6.521  13.999  0.4473  1.7769 -2.0135
13665TIP3    H262411   1.151   6.540  13.933  2.5799 -0.2817  1.4391
13666TIP3   OH262412   2.463   4.614  16.160 -0.0554  0.0556  0.4325
13666TIP3    H162413   2.379   4.615  16.207 -0.0760  0.2025  0.3912
13666TIP3    H262414   2.515   4.682  16.202  0.5313 -0.9286  1.3520
13667TIP3   OH262415   1.665   0.899  12.246  0.0443 -0.0656 -0.8919
13667TIP3    H162416   1.736   0.958  12.221 -0.1558  0.3529 -0.4874
13667TIP3    H262417   1.710   0.827  12.291  0.3453 -0.5249 -1.9029
13668TIP3   OH262418   4.405   0.450   1.562 -0.2644  0.1110  0.3584
13668TIP3    H162419   4.346   0.460   1.487 -0.8211 -0.2184  0.7497
13668TIP3    H262420   4.347   0.438   1.637  0.2654  1.0959  0.9534
13669TIP3   OH262421   2.340   3.535   5.501  0.2186 -0.2147 -0.4670
13669TIP3    H162422   2.354   3.617   5.453  0.0399 -0.1079 -0.3432
13669TIP3    H262423   2.278   3.486   5.447  1.4224 -0.9072 -1.2654
13670TIP3   OH262424   5.028   2.077  11.577  0.3887  0.6461  0.2820
13670TIP3    H162425   5.071   2.106  11.497  0.3721  0.9002  0.3646
13670TIP3    H262426   4.970   2.006  11.549  1.6738 -0.4770  0.3324
13671TIP3   OH262427   1.150   5.398   6.064  0.1067 -0.1454  0.2768
13671TIP3    H162428   1.187   5.410   6.151 -2.3881 -2.0945  1.7393
13671TIP3    H262429   1.108   5.482   6.044 -0.5518 -0.1266  1.6382
13672TIP3   OH262430   1.765   1.528   0.171  0.0493 -0.5313 -0.3722
13672TIP3    H162431   1.716   1.472   0.231  0.2533  0.6619  0.9654
13672TIP3    H262432   1.698   1.563   0.112 -0.1772 -1.5970 -0.7658
13673TIP3   OH262433   4.068   4.607   0.543 -0.0869  0.1908  0.0968
13673TIP3    H162434   4.102   4.681   0.594  0.1609  1.0383 -1.2600
13673TIP3    H262435   3.999   4.644   0.489 -0.0820 -0.6197 -0.4792
13674TIP3   OH262436   2.463   5.875   3.058 -0.5382 -0.6315  0.2729
13674TIP3    H162437   2.496   5.837   3.139 -1.8523  0.7901  1.5363
13674TIP3    H262438   2.512   5.957   3.049 -1.0061 -0.3685  0.1038
13675TIP3   OH262439   2.886   5.771  11.801  0.4487  0.0826 -0.1082
13675TIP3    H162440   2.876   5.865  11.817  2.3190  0.5949 -1.5067
13675TIP3    H262441   2.921   5.766  11.712  0.8187 -1.9198  0.1069
13676TIP3   OH262442   0.451   0.241  14.647  0.1444  1.0917 -0.2876
13676TIP3    H162443   0.497   0.320  14.619  0.2403  1.1832  0.1317
13676TIP3    H262444   0.510   0.169  14.622  1.0961  1.2643  1.3343
13677TIP3   OH262445   0.890   4.725  12.114 -0.7804 -0.0660 -0.0436
13677TIP3    H162446   0.974   4.693  12.079 -0.4216  1.4827 -0.6878
13677TIP3    H262447   0.880   4.679  12.197 -0.2479 -1.7055 -0.8256
13678TIP3   OH262448   5.123   4.943  16.746  0.9520  0.3073  0.2999
13678TIP3    H162449   5.117   4.961  16.840 -1.4965  1.1428  0.0541
13678TIP3    H262450   5.042   4.896  16.726  0.8034  1.3089 -1.6377
13679TIP3   OH262451   3.381   2.520   3.373 -0.3155  0.1601  0.3563
13679TIP3    H162452   3.460   2.482   3.335 -1.7367 -1.0074 -1.6521
13679TIP3    H262453   3.348   2.579   3.305 -1.3095  0.3947  1.0220
13680TIP3   OH262454   3.015   5.523   3.246  0.3977  0.3001  0.1627
13680TIP3    H162455   3.034   5.557   3.333 -1.2551 -1.2771  1.2041
13680TIP3    H262456   2.922   5.500   3.249  0.5193 -0.6344 -1.7151
13681TIP3   OH262457   1.051   0.096  14.793  0.0586  0.1459 -0.0159
13681TIP3    H162458   0.969   0.049  14.806  0.0162  0.5772  1.4529
13681TIP3    H262459   1.116   0.042  14.838  0.7187 -0.4730 -1.6131
13682TIP3   OH262460   4.066   4.463   3.822 -0.1073 -0.6085 -0.0106
13682TIP3    H162461   4.095   4.386   3.870 -0.2626  0.1520  1.3690
13682TIP3    H262462   4.011   4.511   3.884  0.6719  1.0385 -0.5148
13683TIP3   OH262463   6.063   3.423   1.914 -0.0808  0.0580 -0.6662
13683TIP3    H162464   5.995   3.449   1.852 -0.2697 -0.5810 -0.7374
13683TIP3    H262465   6.077   3.330   1.896  1.2591  0.3108 -1.0830
13684TIP3   OH262466   1.586   3.254  13.421 -0.1942  0.3910 -0.5594
13684TIP3    H162467   1.598   3.273  13.514 -0.1724 -1.6845 -0.0889
13684TIP3    H262468   1.616   3.164  13.411  0.5495  0.8188 -2.7589
13685TIP3   OH262469   5.301   4.777   2.074  0.9416 -0.1778 -0.2881
13685TIP3    H162470   5.283   4.819   2.159 -1.2947 -0.6972 -0.4349
13685TIP3    H262471   5.395   4.759   2.075  1.2587  1.3063  1.3881
13686TIP3   OH262472   2.613   0.452  11.277 -0.5804 -0.2829  0.2452
13686TIP3    H162473   2.617   0.360  11.304  1.4181 -0.1590  0.5679
13686TIP3    H262474   2.601   0.501  11.358 -1.0620 -0.2374  0.1443
13687TIP3   OH262475   4.498   3.786  14.668 -0.2256 -0.4161  0.1384
13687TIP3    H162476   4.431   3.843  14.705 -1.6960 -1.0940 -1.3552
13687TIP3    H262477   4.517   3.824  14.582  0.4381 -0.9117  0.0580
13688TIP3   OH262478   0.187   2.037  12.175 -0.2954  0.3344  0.3409
13688TIP3    H162479   0.101   2.026  12.134  0.0880 -1.4053 -0.0895
13688TIP3    H262480   0.180   1.988  12.257 -0.2930  1.7831  1.2449
13689TIP3   OH262481   1.964   1.533   5.078 -0.2178  0.6993 -0.1946
13689TIP3    H162482   2.007   1.483   5.147  1.0049  0.7181 -0.9105
13689TIP3    H262483   1.927   1.610   5.122 -3.2327 -1.3201  1.1762
13690TIP3   OH262484   0.278   2.658  12.350 -0.0504  0.2502 -0.3810
13690TIP3    H162485   0.363   2.698  12.367  0.2162 -0.3029 -0.4183
13690TIP3    H262486   0.217   2.707  12.406  0.4768 -0.1235  0.5320
13691TIP3   OH262487   4.358   3.815   5.832  0.4256 -0.0048 -0.0006
13691TIP3    H162488   4.414   3.758   5.885 -0.3260  0.3086  1.1653
13691TIP3    H262489   4.344   3.892   5.886  0.8722  1.0175 -1.2898
13692TIP3   OH262490   2.082   6.494   3.242  0.5693  0.7499 -0.1097
13692TIP3    H162491   2.042   6.461   3.161 -1.0014  0.1514  0.8713
13692TIP3    H262492   2.126   6.575   3.215 -0.1135  0.6905 -1.5237
13693TIP3   OH262493   6.704   0.595   0.955  0.1217  0.0480 -0.5409
13693TIP3    H162494   6.647   0.651   1.007 -0.2297 -0.0202 -0.8456
13693TIP3    H262495   6.644   0.532   0.914  0.4491 -0.2046 -0.6371
13694TIP3   OH262496   6.361   5.527  14.091  0.0311 -0.5124  0.0051
13694TIP3    H162497   6.276   5.532  14.049 -0.0436 -0.4456  0.1639
13694TIP3    H262498   6.353   5.455  14.153 -0.1483 -0.0195  0.5578
13695TIP3   OH262499   0.696   6.134  11.387 -0.0807 -0.2248 -0.4282
13695TIP3    H162500   0.729   6.117  11.475 -1.0715 -0.9967 -0.1740
13695TIP3    H262501   0.683   6.229  11.383 -0.8538 -0.2704  0.5885
13696TIP3   OH262502   2.348   6.564  16.947 -0.6510  0.3765 -0.1626
13696TIP3    H162503   2.411   6.503  16.983 -0.0718  1.1888  0.2434
13696TIP3    H262504   2.264   6.536  16.984 -0.2542  0.3976  0.7820
13697TIP3   OH262505   2.324   2.036   0.691 -0.5610  0.1165  0.4681
13697TIP3    H162506   2.332   2.131   0.695 -0.3578  0.1160  0.1050
13697TIP3    H262507   2.244   2.016   0.740 -0.7574  0.4968  0.3031
13698TIP3   OH262508   1.542   2.777  14.072 -0.2381 -0.3758 -0.2809
13698TIP3    H162509   1.450   2.773  14.098 -0.1107 -1.7934  0.0540
13698TIP3    H262510   1.543   2.741  13.983  0.0499 -0.8602 -0.0875
13699TIP3   OH262511   5.810   4.325  13.298 -0.0927  0.1213  0.2188
13699TIP3    H162512   5.738   4.312  13.360  0.8612 -0.1917  1.2927
13699TIP3    H262513   5.871   4.254  13.317  0.3299  0.1544 -0.9395
13700TIP3   OH262514   6.332   0.799   6.670 -0.1304 -0.0044 -0.6365
13700TIP3    H162515   6.384   0.741   6.614 -0.6262 -0.3362 -0.7525
13700TIP3    H262516   6.393   0.869   6.694  0.3650 -0.3747 -0.7942
13701TIP3   OH262517   3.618   0.717  14.242 -0.0167  0.2602  0.0093
13701TIP3    H162518   3.610   0.784  14.310 -3.3887  0.0900 -0.0593
13701TIP3    H262519   3.611   0.766  14.160  0.2580  0.0881 -0.1171
13702TIP3   OH262520   4.613   2.853  10.337 -0.0192 -1.0787 -0.4456
13702TIP3    H162521   4.684   2.855  10.402  0.5846 -1.2131 -1.0885
13702TIP3    H262522   4.561   2.930  10.356  0.1013 -1.1598  0.2528
13703TIP3   OH262523   5.699   0.998   3.257  0.1975  0.1561 -0.2195
13703TIP3    H162524   5.771   1.057   3.278  1.0461 -0.3087 -1.6707
13703TIP3    H262525   5.646   1.047   3.194  0.0027 -0.0262 -0.1997
13704TIP3   OH262526   1.513   4.117  12.823 -0.5784  0.3243 -0.1829
13704TIP3    H162527   1.458   4.103  12.900 -2.8521  1.4116 -1.5455
13704TIP3    H262528   1.563   4.196  12.843 -0.5252  0.1227  0.5060
13705TIP3   OH262529   2.116   6.541  10.824 -0.2224  0.2863  0.5954
13705TIP3    H162530   2.044   6.494  10.866 -0.1652  0.5031  0.9496
13705TIP3    H262531   2.093   6.543  10.731 -0.1451 -0.5653  0.5523
13706TIP3   OH262532   3.991   1.491   5.583 -0.0819 -0.3374 -0.0193
13706TIP3    H162533   3.987   1.579   5.621  0.2062 -0.3717  0.0968
13706TIP3    H262534   4.007   1.433   5.657  1.2369 -0.3232 -0.2667
13707TIP3   OH262535   4.398   1.068  13.163 -0.2085  0.1125 -0.3022
13707TIP3    H162536   4.425   1.036  13.077 -0.5733  1.2770 -0.8845
13707TIP3    H262537   4.374   1.160  13.147  2.9767  1.4659  1.6944
13708TIP3   OH262538   1.303   6.280  13.797  0.7375 -0.6181 -0.2535
13708TIP3    H162539   1.379   6.265  13.854  0.6914 -1.0050 -0.2906
13708TIP3    H262540   1.299   6.375  13.787  1.7107 -0.6426 -0.9256
13709TIP3   OH262541   2.763   4.937  14.466  0.4413 -0.2176  0.6240
13709TIP3    H162542   2.731   4.861  14.515 -1.1096 -0.2902 -0.4307
13709TIP3    H262543   2.800   4.901  14.386  2.0917 -0.0263  1.2688
13710TIP3   OH262544   3.818   6.625  12.640  0.4582  0.2275 -0.0429
13710TIP3    H162545   3.809   6.717  12.665 -1.9632 -0.5797  2.4792
13710TIP3    H262546   3.730   6.600  12.609  1.1609 -1.1970 -1.0096
13711TIP3   OH262547   0.135   4.144   0.395  0.5233 -0.0558 -0.0396
13711TIP3    H162548   0.052   4.143   0.444 -0.2600  0.3654 -1.3079
13711TIP3    H262549   0.108   4.142   0.303  1.9750 -1.5465 -0.4596
13712TIP3   OH262550   6.419   3.000  12.141 -0.0219 -0.0692 -0.4014
13712TIP3    H162551   6.513   3.014  12.144 -0.1715  0.9068  1.8194
13712TIP3    H262552   6.405   2.918  12.188 -0.3253  0.2626  0.1026
13713TIP3   OH262553   5.554   0.303   2.978  0.2150 -0.1604 -0.6969
13713TIP3    H162554   5.553   0.358   2.900  0.9758 -0.5260 -0.9789
13713TIP3    H262555   5.519   0.219   2.950 -1.3660  0.2854 -0.1599
13714TIP3   OH262556   6.047   2.115  15.230 -0.0051  0.1821 -0.3951
13714TIP3    H162557   6.005   2.156  15.155  0.9951  0.3191 -0.8915
13714TIP3    H262558   6.045   2.021  15.210 -0.1056  0.1853 -0.4016
13715TIP3   OH262559   2.552   6.302  13.156 -0.2580  0.0105 -0.2430
13715TIP3    H162560   2.636   6.319  13.113 -0.6579 -1.1463 -1.5954
13715TIP3    H262561   2.573   6.292  13.248  1.0716 -0.1669 -0.5462
13716TIP3   OH262562   3.804   0.613  13.225 -0.0508  0.0204 -0.8541
13716TIP3    H162563   3.894   0.638  13.206 -0.5814  2.3343 -0.5420
13716TIP3    H262564   3.781   0.661  13.304 -1.2862 -1.2806 -0.3683
13717TIP3   OH262565   1.127   0.497   2.849  0.0765 -0.1109 -0.3806
13717TIP3    H162566   1.122   0.580   2.801  2.6759  0.2061 -0.2296
13717TIP3    H262567   1.219   0.489   2.875 -0.3100 -2.5412  0.5422
13718TIP3   OH262568   5.614   4.815  10.617  0.0808 -0.1346  0.1207
13718TIP3    H162569   5.633   4.908  10.601  2.1005 -0.1851  1.8302
13718TIP3    H262570   5.551   4.792  10.548  1.7888  1.7141 -2.2406
13719TIP3   OH262571   4.058   0.218  16.438 -0.2440 -0.1572 -0.2398
13719TIP3    H162572   4.024   0.300  16.473  0.2872  0.0399 -0.1826
13719TIP3    H262573   4.004   0.201  16.360 -1.4657 -0.6324  0.6802
13720TIP3   OH262574   2.775   5.945  10.701  0.4880  0.6142  0.6045
13720TIP3    H162575   2.736   5.865  10.737  2.1113  1.1451  3.8975
13720TIP3    H262576   2.825   5.914  10.625  1.1689 -1.5673  1.8437
13721TIP3   OH262577   1.073   1.933   4.099 -0.2101 -0.0538 -0.1791
13721TIP3    H162578   1.071   1.970   4.187  0.8081 -1.5086  0.4846
13721TIP3    H262579   1.126   1.994   4.049  0.9767 -0.2881  0.7568
13722TIP3   OH262580   6.041   3.059  15.733  0.0160  0.5858 -0.1580
13722TIP3    H162581   6.054   2.989  15.796 -1.6280  0.0218 -0.3786
13722TIP3    H262582   5.957   3.038  15.692  0.2694  1.8154 -1.3768
13723TIP3   OH262583   4.417   6.565   5.276  0.2707 -0.1111  0.7775
13723TIP3    H162584   4.390   6.657   5.269 -0.2500 -0.3855 -2.2240
13723TIP3    H262585   4.344   6.522   5.320 -2.6134 -0.0506 -3.3530
13724TIP3   OH262586   5.542   4.426  11.041 -0.7829  0.0216  0.0821
13724TIP3    H162587   5.562   4.397  10.952  1.4075  0.5145  0.3498
13724TIP3    H262588   5.499   4.510  11.030 -0.6590  0.0131 -0.5194
13725TIP3   OH262589   0.101   6.579   3.596  0.3620 -0.3776 -0.0409
13725TIP3    H162590   0.175   6.524   3.624  1.2593  0.6675 -0.2823
13725TIP3    H262591   0.115   6.591   3.502  1.5956  2.2505  0.4004
13726TIP3   OH262592   4.678   1.305   5.069 -0.5251  0.1551 -0.4522
13726TIP3    H162593   4.671   1.294   4.974  1.8990 -0.3238 -0.6502
13726TIP3    H262594   4.656   1.219   5.105 -0.8529  0.1660 -0.6241
13727TIP3   OH262595   2.829   2.711   0.889 -0.3102  0.5086 -0.4625
13727TIP3    H162596   2.832   2.663   0.806 -1.3962 -0.0610 -0.1921
13727TIP3    H262597   2.739   2.742   0.896  0.5017  3.1854 -0.9273
13728TIP3   OH262598   3.552   5.848   5.938 -0.2966 -0.1170  0.2348
13728TIP3    H162599   3.555   5.776   6.001  1.1614  0.6006  1.0354
13728TIP3    H262600   3.489   5.910   5.976  1.0508  0.6118  1.3770
13729TIP3   OH262601   3.559   1.899  12.153  0.0290  0.3635  0.2082
13729TIP3    H162602   3.548   1.962  12.082  1.0722  0.5450  0.1976
13729TIP3    H262603   3.557   1.814  12.109 -0.0556  0.4475  0.0474
13730TIP3   OH262604   4.604   1.807  13.051 -0.3600 -0.3907 -0.3725
13730TIP3    H162605   4.574   1.716  13.054  0.7687 -0.7630 -0.0144
13730TIP3    H262606   4.604   1.829  12.958  1.5720 -1.5464 -0.7172
13731TIP3   OH262607   5.351   6.519   3.343 -0.6256 -0.1672 -0.4625
13731TIP3    H162608   5.266   6.509   3.386  0.8248 -1.1771  2.4554
13731TIP3    H262609   5.366   6.435   3.299 -0.0354 -1.0629  1.3429
13732TIP3   OH262610   2.392   1.544  13.069  0.2191 -0.0569 -0.2915
13732TIP3    H162611   2.360   1.634  13.061 -1.3554 -0.6090 -0.6996
13732TIP3    H262612   2.460   1.536  13.002  1.0604  1.0846  0.3899
13733TIP3   OH262613   2.830   1.721   0.276 -0.0501 -0.3227  0.0813
13733TIP3    H162614   2.901   1.691   0.219 -0.1503 -2.0153  0.7779
13733TIP3    H262615   2.808   1.644   0.329  0.2731  1.2477  2.6604
13734TIP3   OH262616   0.227   4.405  10.534 -0.0123  0.5134 -0.0040
13734TIP3    H162617   0.209   4.370  10.447 -1.5603  0.4361  0.3044
13734TIP3    H262618   0.300   4.465  10.522  1.5585 -1.4759 -0.8473
13735TIP3   OH262619   4.355   0.984  14.060 -0.5231  0.4408  0.0581
13735TIP3    H162620   4.362   1.066  14.110 -1.4009  0.6533 -0.1627
13735TIP3    H262621   4.432   0.933  14.087  1.4308  2.3115 -1.6400
13736TIP3   OH262622   1.886   3.651  12.705 -0.1880 -0.6615  0.2478
13736TIP3    H162623   1.970   3.693  12.690  0.0168 -1.2280 -0.2168
13736TIP3    H262624   1.824   3.704  12.653  0.1683 -1.2871 -0.8445
13737TIP3   OH262625   1.920   6.573   1.463 -0.4341  0.4389  0.4780
13737TIP3    H162626   1.898   6.551   1.553  0.7992 -1.3323  0.4088
13737TIP3    H262627   1.994   6.632   1.469  1.0356 -1.3298  0.6821
13738TIP3   OH262628   2.519   5.179   0.744  0.4245  0.4307  0.1944
13738TIP3    H162629   2.454   5.245   0.722 -0.0263  0.2251  0.8626
13738TIP3    H262630   2.489   5.142   0.827  1.2300  0.1187  0.3628
13739TIP3   OH262631   1.737   2.693   2.159  0.6784  0.6452  0.3452
13739TIP3    H162632   1.704   2.635   2.090  1.6149  2.1510 -1.4768
13739TIP3    H262633   1.754   2.635   2.233  1.8574 -1.4907 -1.4697
13740TIP3   OH262634   2.508   5.708  14.788  0.0986 -0.3531 -0.1003
13740TIP3    H162635   2.480   5.662  14.867 -1.4070  2.5092  1.2069
13740TIP3    H262636   2.595   5.741  14.809 -0.1939  0.1829  0.3190
13741TIP3   OH262637   4.977   4.229   5.771 -0.5498 -0.6468  0.3035
13741TIP3    H162638   5.044   4.284   5.810 -1.4408  0.3012  0.5628
13741TIP3    H262639   4.914   4.214   5.842 -2.1677  1.0473 -0.6661
13742TIP3   OH262640   1.643   1.947  13.642 -0.1316 -0.2210  0.2192
13742TIP3    H162641   1.553   1.973  13.662  0.7509  1.2949  2.5775
13742TIP3    H262642   1.652   1.860  13.681  0.1321  0.7199  2.4054
13743TIP3   OH262643   5.105   1.093   2.831 -0.3327  0.0742  0.4902
13743TIP3    H162644   5.186   1.078   2.783 -1.3007  0.5108 -1.3852
13743TIP3    H262645   5.126   1.165   2.891  0.8621 -0.3146  0.5580
13744TIP3   OH262646   0.269   0.813  13.522  0.0097 -0.4278  0.0826
13744TIP3    H162647   0.258   0.889  13.580  0.1282 -1.3425  1.3432
13744TIP3    H262648   0.348   0.770  13.554 -0.2870 -1.3167 -0.3449
13745TIP3   OH262649   6.547   5.557   6.752 -0.1277  0.0333 -0.1987
13745TIP3    H162650   6.579   5.576   6.664 -0.0738  0.1746 -0.1491
13745TIP3    H262651   6.584   5.472   6.774 -0.1862 -0.0277 -0.3343
13746TIP3   OH262652   0.201   0.000   6.407  0.3489  0.3234  0.6072
13746TIP3    H162653   0.186  -0.045   6.324 -0.3053 -0.4814  1.1530
13746TIP3    H262654   0.255  -0.060   6.458  0.2975  0.5847  0.9716
13747TIP3   OH262655   3.858   4.199   5.010 -0.1195  0.3412  0.1941
13747TIP3    H162656   3.809   4.147   5.074  2.3208 -0.9498  1.1769
13747TIP3    H262657   3.884   4.136   4.943  1.9335  0.4603  0.8107
13748TIP3   OH262658   3.300   4.264  14.942  0.0706  0.1001  0.5488
13748TIP3    H162659   3.378   4.287  14.992  1.5508  0.2259 -1.6572
13748TIP3    H262660   3.326   4.190  14.888 -1.2824  0.2553 -0.3829
13749TIP3   OH262661   0.478   5.477   4.189 -0.0354  0.2567 -0.4133
13749TIP3    H162662   0.537   5.476   4.265 -0.3243  0.3120 -0.1852
13749TIP3    H262663   0.477   5.386   4.158  0.0069  0.2126 -0.2869
13750TIP3   OH262664   1.068   1.602  13.252 -0.7824 -0.9124  0.4418
13750TIP3    H162665   1.005   1.536  13.279 -0.9127 -1.8952 -2.0016
13750TIP3    H262666   1.030   1.643  13.175  1.0956 -0.8789 -0.5464
13751TIP3   OH262667   2.697   6.178  12.414 -0.0010  0.7641  0.3287
13751TIP3    H162668   2.737   6.105  12.368 -1.9581 -0.6711  0.7551
13751TIP3    H262669   2.609   6.185  12.375 -0.0471  2.5622  0.6588
13752TIP3   OH262670   2.236   5.014  13.707  1.0279  0.4981 -0.1917
13752TIP3    H162671   2.207   5.104  13.719 -0.6441  0.0066 -0.2334
13752TIP3    H262672   2.258   4.983  13.794  0.7758  0.6990 -0.0551
13753TIP3   OH262673   3.591   1.511  16.786  0.2418 -0.0633  0.4102
13753TIP3    H162674   3.565   1.435  16.837 -0.6620 -0.4620 -0.6392
13753TIP3    H262675   3.527   1.517  16.716 -0.4666  2.3878  1.1573
13754TIP3   OH262676   4.071   5.345   2.437  0.0496 -0.6876  0.1616
13754TIP3    H162677   4.060   5.255   2.467 -1.7800 -0.6964 -0.3842
13754TIP3    H262678   4.009   5.396   2.490 -1.6245 -0.3663 -1.9463
13755TIP3   OH262679   1.824   6.587  11.055 -0.5710  0.0572 -0.5942
13755TIP3    H162680   1.906   6.613  11.097 -1.6426 -0.7478  2.2410
13755TIP3    H262681   1.849   6.520  10.992  0.8488 -1.3930  1.3925
13756TIP3   OH262682   4.175   5.289   3.548  0.5240  0.4492 -0.6319
13756TIP3    H162683   4.196   5.378   3.520 -0.3457  1.0283  0.4388
13756TIP3    H262684   4.259   5.244   3.550  0.9081  1.0909 -1.7096
13757TIP3   OH262685   6.251   4.725  11.155  0.1178  0.4926 -0.3758
13757TIP3    H162686   6.244   4.684  11.242  1.0204 -2.4385 -1.5378
13757TIP3    H262687   6.168   4.770  11.143 -1.3899 -1.7670  0.7625
13758TIP3   OH262688   6.224   4.066  16.413 -0.4130  0.4045  0.3862
13758TIP3    H162689   6.164   4.141  16.408 -0.5071  0.2699 -0.5599
13758TIP3    H262690   6.234   4.036  16.323  0.4259 -0.0991  0.6283
13759TIP3   OH262691   2.098   1.634   2.035 -0.6511  0.6048 -0.1462
13759TIP3    H162692   2.049   1.555   2.016 -2.3224  1.4753  0.3759
13759TIP3    H262693   2.078   1.693   1.963 -0.2874  0.9401  0.0209
13760TIP3   OH262694   2.906   0.972   4.276  0.2952  0.0852  0.1521
13760TIP3    H162695   2.850   0.895   4.280  1.9085 -1.1016  2.7023
13760TIP3    H262696   2.977   0.947   4.217  1.5392 -1.0423  2.0021
13761TIP3   OH262697   5.390   2.445  11.341  0.0839  0.1678 -0.5643
13761TIP3    H162698   5.324   2.395  11.293  0.3790  0.2042 -1.0214
13761TIP3    H262699   5.473   2.419  11.301  0.3196  0.3414 -0.1925
13762TIP3   OH262700   6.749   1.519  16.926  0.4009 -0.0552  0.1392
13762TIP3    H162701   6.799   1.563  16.858 -0.8303  1.0482 -0.0894
13762TIP3    H262702   6.694   1.587  16.963  0.4470 -0.8196  1.6919
13763TIP3   OH262703   1.693   2.789  12.676 -0.4066  0.0695  0.0937
13763TIP3    H162704   1.772   2.813  12.627 -0.3117 -1.5027 -0.6004
13763TIP3    H262705   1.704   2.829  12.761  0.4215  1.1485 -0.4957
13764TIP3   OH262706   3.729   3.114  14.229  0.7322  0.5807  0.3763
13764TIP3    H162707   3.671   3.041  14.208 -0.1024  1.0399  1.0284
13764TIP3    H262708   3.727   3.169  14.151 -0.3983  1.0231  0.6970
13765TIP3   OH262709   4.747   1.881  14.967  0.7344 -0.3965  0.5497
13765TIP3    H162710   4.839   1.862  14.985  1.5737  1.8115 -0.9890
13765TIP3    H262711   4.747   1.920  14.880 -1.7508 -0.8087  0.2921
13766TIP3   OH262712   3.561   5.702   0.412  0.1820  0.3669 -0.2967
13766TIP3    H162713   3.657   5.705   0.416  0.1590  0.6811  0.1310
13766TIP3    H262714   3.537   5.626   0.466  0.0852  1.8760  1.9481
13767TIP3   OH262715   6.075   0.784  16.204 -0.0598  0.1308 -0.2955
13767TIP3    H162716   6.032   0.733  16.136  0.4374  0.3903 -0.8092
13767TIP3    H262717   6.100   0.866  16.161 -1.0644  0.9177  0.5794
13768TIP3   OH262718   0.583   2.790  11.416  0.0621  0.1314  0.2328
13768TIP3    H162719   0.520   2.862  11.413 -0.1201 -0.0259  0.3234
13768TIP3    H262720   0.559   2.740  11.493 -0.5599 -0.7064 -0.4858
13769TIP3   OH262721   4.971   0.079   2.149  0.0125 -0.5038 -0.3434
13769TIP3    H162722   4.911   0.152   2.162 -0.9549 -1.2830 -0.2584
13769TIP3    H262723   5.044   0.116   2.100  0.6795  1.0412  1.6896
13770TIP3   OH262724   6.773   0.640   0.307  0.4347  0.0453  0.3155
13770TIP3    H162725   6.782   0.593   0.224 -0.9700  0.6445 -0.1985
13770TIP3    H262726   6.766   0.732   0.282 -1.2488  0.1226  0.9905
13771TIP3   OH262727   4.845   2.236   2.850 -0.5712  0.1165 -0.0225
13771TIP3    H162728   4.822   2.286   2.772  0.0865  0.8250  0.2270
13771TIP3    H262729   4.930   2.271   2.876 -0.5150 -0.5288  0.6674
13772TIP3   OH262730   3.697   6.704   0.466 -0.6887  0.4285  0.1125
13772TIP3    H162731   3.769   6.735   0.412 -0.8493  0.1316 -0.2746
13772TIP3    H262732   3.619   6.745   0.428 -0.8888 -0.3376 -0.3277
13773TIP3   OH262733   5.646   4.661   2.730 -0.4096  0.6487  0.2219
13773TIP3    H162734   5.553   4.683   2.734 -0.9200 -1.3619  1.2210
13773TIP3    H262735   5.682   4.694   2.813 -0.1329  1.7359 -0.3183
13774TIP3   OH262736   2.998   4.664  12.208  0.9059  0.1023  0.3459
13774TIP3    H162737   2.949   4.646  12.288 -0.1699 -2.9694 -0.8744
13774TIP3    H262738   2.947   4.731  12.163 -0.5645 -0.8565  0.5266
13775TIP3   OH262739   1.079   3.964  16.976 -0.3434  0.1588 -0.0996
13775TIP3    H162740   1.143   3.928  17.037 -1.6987  0.9807  1.8865
13775TIP3    H262741   1.088   3.909  16.898  0.2436 -2.0746  1.4353
13776TIP3   OH262742   1.100   2.217   1.735  0.0184 -0.0991  0.1458
13776TIP3    H162743   1.044   2.150   1.775  0.5565 -0.5133  0.2092
13776TIP3    H262744   1.099   2.289   1.799 -0.6586  0.0125  0.0215
13777TIP3   OH262745   0.414   4.074   3.117 -0.2074 -0.2014  0.5372
13777TIP3    H162746   0.428   4.145   3.054 -0.2875 -0.5253  0.1587
13777TIP3    H262747   0.321   4.054   3.111  0.0280 -1.1394 -0.2098
13778TIP3   OH262748   3.042   1.915  16.286  0.0461 -0.0923  0.1366
13778TIP3    H162749   3.135   1.905  16.307  0.4591  2.1390 -0.3524
13778TIP3    H262750   3.039   1.992  16.230 -2.1310 -0.0651  0.2250
13779TIP3   OH262751   5.393   4.159  14.990  0.2975  0.1290  0.6474
13779TIP3    H162752   5.375   4.253  15.000  1.1585  0.2252  1.3863
13779TIP3    H262753   5.456   4.155  14.917  1.1417  0.2333  1.3609
13780TIP3   OH262754   0.570   5.279  13.116 -0.1165  0.6212  0.3226
13780TIP3    H162755   0.536   5.364  13.087  1.3916  1.0457 -0.3141
13780TIP3    H262756   0.518   5.214  13.068  1.6919  1.2749 -2.8353
13781TIP3   OH262757   2.115   4.856   6.873  0.6188 -0.4125 -0.3583
13781TIP3    H162758   2.037   4.902   6.906 -0.2903 -1.4578 -0.9888
13781TIP3    H262759   2.119   4.775   6.923  1.9076  0.0691  0.3711
13782TIP3   OH262760   1.829   1.769   0.283  0.0289 -0.0275 -0.2703
13782TIP3    H162761   1.796   1.680   0.271  0.5328 -0.4538  1.3155
13782TIP3    H262762   1.909   1.772   0.230 -0.7716  0.0011 -1.5457
13783TIP3   OH262763   2.693   2.485   3.363 -0.1447 -0.3670  0.0622
13783TIP3    H162764   2.613   2.470   3.313 -0.2298  0.0668  0.0672
13783TIP3    H262765   2.696   2.580   3.377 -0.4425 -0.5344  1.4058
13784TIP3   OH262766   5.944   4.302  15.579  0.0773 -0.3225 -0.2385
13784TIP3    H162767   5.965   4.218  15.621  0.6628 -0.0056  0.1129
13784TIP3    H262768   5.877   4.280  15.514 -0.9410 -0.8179  0.9331
13785TIP3   OH262769   2.577   6.211  15.505 -0.0534 -0.4030  0.4049
13785TIP3    H162770   2.612   6.284  15.455  0.1550 -0.3534  0.6198
13785TIP3    H262771   2.574   6.244  15.595  1.3277 -1.1120  0.7393
13786TIP3   OH262772   2.210   0.038   1.861 -0.0120  0.2370 -0.3608
13786TIP3    H162773   2.192   0.094   1.937 -2.8896 -1.1236  0.1113
13786TIP3    H262774   2.243   0.097   1.794  0.7888  1.7937  1.3304
13787TIP3   OH262775   3.212   2.289   4.801  0.4759 -0.0334  0.8348
13787TIP3    H162776   3.214   2.254   4.712  1.6986 -1.7621  1.4820
13787TIP3    H262777   3.288   2.346   4.807  0.6806 -0.3096  0.9029
13788TIP3   OH262778   3.036   6.689   1.389 -0.5622  0.8697  0.1777
13788TIP3    H162779   3.040   6.673   1.295 -1.7618  2.1471 -0.1256
13788TIP3    H262780   3.061   6.781   1.399  0.2582  0.5524  1.1978
13789TIP3   OH262781   1.949   1.401  13.282  0.5219  0.3425  0.3635
13789TIP3    H162782   1.933   1.406  13.188  0.8238  2.9030  0.3814
13789TIP3    H262783   2.015   1.332  13.291 -0.9196 -1.3476 -1.0261
13790TIP3   OH262784   2.231   2.260  14.108  0.4598 -0.4125 -0.6778
13790TIP3    H162785   2.289   2.267  14.032  1.4826  1.4801  0.1936
13790TIP3    H262786   2.154   2.312  14.085  1.1177  0.8369 -0.1772
13791TIP3   OH262787   0.785   1.958   1.509 -0.5510  0.2392 -0.1151
13791TIP3    H162788   0.747   2.015   1.576  2.4502  0.2853  1.6932
13791TIP3    H262789   0.822   1.885   1.557  0.8159 -0.2680 -1.8200
13792TIP3   OH262790   5.962   5.389   5.578  0.1246  0.3782 -0.1238
13792TIP3    H162791   5.908   5.438   5.515 -1.6306 -0.8074  0.3870
13792TIP3    H262792   6.012   5.328   5.524  0.9531  1.4593 -0.6069
13793TIP3   OH262793   5.700   0.968   1.424  0.3452  0.3257  0.6711
13793TIP3    H162794   5.775   0.910   1.436  0.2900  0.2944  0.8867
13793TIP3    H262795   5.736   1.056   1.423  0.3583  0.3314  1.0895
13794TIP3   OH262796   5.175   3.022  13.205  0.3192  0.4537 -0.1462
13794TIP3    H162797   5.131   2.938  13.192  0.7879  0.2120 -0.2097
13794TIP3    H262798   5.191   3.027  13.299  1.5838 -0.2075 -0.3009
13795TIP3   OH262799   3.162   2.218   1.471 -0.3163 -0.1150 -0.3050
13795TIP3    H162800   3.084   2.212   1.526 -1.3076 -2.5293 -1.8451
13795TIP3    H262801   3.130   2.245   1.386  0.7522  0.3413 -0.5846
13796TIP3   OH262802   4.837   2.596   5.862 -0.3146 -0.3560  0.3510
13796TIP3    H162803   4.891   2.559   5.932 -0.3178 -0.3259  0.3696
13796TIP3    H262804   4.750   2.558   5.877  0.0581 -1.6354 -0.6156
13797TIP3   OH262805   2.099   4.096   2.978 -0.1920 -0.3866  0.0083
13797TIP3    H162806   2.090   4.021   3.038 -1.4519 -0.4727 -0.2553
13797TIP3    H262807   2.026   4.086   2.917  0.6726  0.0834 -1.1372
13798TIP3   OH262808   5.113   0.362   0.235  0.0527 -0.2780 -0.2487
13798TIP3    H162809   5.184   0.426   0.227 -2.2544  2.4802 -0.3576
13798TIP3    H262810   5.095   0.357   0.329  1.5066 -2.3938 -0.0312
13799TIP3   OH262811   3.985   2.987   4.689  0.4896 -0.4113 -0.1540
13799TIP3    H162812   4.001   2.893   4.703 -2.0082 -0.6980  1.3923
13799TIP3    H262813   3.890   2.995   4.689  0.5844  1.8887 -2.3985
13800TIP3   OH262814   1.362   2.556  12.419  0.2972  0.3729 -0.9027
13800TIP3    H162815   1.290   2.619  12.416 -0.9956 -0.7791  1.9194
13800TIP3    H262816   1.413   2.574  12.340 -2.9407  1.4021 -2.9643
13801TIP3   OH262817   0.209   1.484   3.439 -0.1569  0.1598 -0.6792
13801TIP3    H162818   0.230   1.525   3.523  0.9336  0.2184 -0.9711
13801TIP3    H262819   0.196   1.557   3.379  0.5906  0.1034 -0.9166
13802TIP3   OH262820   5.013   1.719   5.360 -0.4375  0.0834 -0.0271
13802TIP3    H162821   5.096   1.733   5.315 -0.7282 -0.3479 -0.7215
13802TIP3    H262822   5.017   1.627   5.388  0.1787  0.6095  1.7885
13803TIP3   OH262823   2.375   2.261  16.803  0.2147 -1.0508 -0.4359
13803TIP3    H162824   2.408   2.184  16.757  1.8298 -0.4240 -0.4085
13803TIP3    H262825   2.357   2.324  16.733 -0.0027 -1.0531 -0.3823
13804TIP3   OH262826   3.221   0.455   0.056 -0.1756 -0.2855 -0.5376
13804TIP3    H162827   3.162   0.458  -0.019  0.0403 -0.0235 -0.6964
13804TIP3    H262828   3.197   0.374   0.101 -2.5951  1.1445  1.0075
13805TIP3   OH262829   1.200   3.285   0.885  0.0567 -0.5227 -0.0217
13805TIP3    H162830   1.195   3.371   0.926 -0.0419 -0.4193 -0.2477
13805TIP3    H262831   1.294   3.268   0.877  0.0866 -1.1195  1.4352
13806TIP3   OH262832   0.637   5.793  16.500 -0.6456 -0.3241  0.1386
13806TIP3    H162833   0.698   5.803  16.427 -0.7312  0.7984  0.1926
13806TIP3    H262834   0.673   5.722  16.553 -0.0535 -0.4910 -0.4822
13807TIP3   OH262835   3.301   3.352   3.813  0.3792 -0.2618 -0.5952
13807TIP3    H162836   3.260   3.409   3.878 -2.3854 -2.1461 -0.5264
13807TIP3    H262837   3.314   3.408   3.736 -0.3479  0.9404  0.1268
13808TIP3   OH262838   4.535   3.469  13.499 -0.1040  0.1628 -0.0985
13808TIP3    H162839   4.468   3.490  13.435 -0.0901  0.6689  0.0471
13808TIP3    H262840   4.618   3.494  13.457 -0.1462  1.1193  0.3550
13809TIP3   OH262841   4.487   1.149  15.151  0.4234  0.7175  0.5628
13809TIP3    H162842   4.521   1.183  15.234 -1.0723  0.8379  1.1586
13809TIP3    H262843   4.540   1.192  15.084  0.9868  1.4108  1.4331
13810TIP3   OH262844   6.519   5.623   6.120  0.7986  0.3064 -0.0579
13810TIP3    H162845   6.559   5.698   6.164 -1.4392  1.3828  0.2721
13810TIP3    H262846   6.530   5.550   6.182  0.8077  0.9496  0.7026
13811TIP3   OH262847   0.254   4.083  14.852 -0.0445  0.0572  0.4374
13811TIP3    H162848   0.235   3.999  14.893  1.6890  0.2160  1.6703
13811TIP3    H262849   0.171   4.131  14.854 -1.4365 -2.0661 -1.5362
13812TIP3   OH262850   0.639   4.166  14.957 -0.8645  0.1152 -0.2422
13812TIP3    H162851   0.590   4.216  14.892 -1.4783 -0.2817 -0.0908
13812TIP3    H262852   0.717   4.135  14.911  0.2070  2.2512 -0.0244
13813TIP3   OH262853   1.532   3.621  12.317  0.4369 -0.0847 -0.2784
13813TIP3    H162854   1.490   3.540  12.289  0.0466  0.0317 -0.0328
13813TIP3    H262855   1.621   3.595  12.342  0.7724 -0.2082 -1.5193
13814TIP3   OH262856   2.319   1.394   3.883 -0.1354 -0.0449  0.0994
13814TIP3    H162857   2.256   1.330   3.850 -0.9596  0.3853  0.8048
13814TIP3    H262858   2.289   1.414   3.972 -0.0598  1.5263 -0.2085
13815TIP3   OH262859   3.602   4.746  13.417  0.0008 -0.2837  0.3020
13815TIP3    H162860   3.518   4.785  13.393 -0.2710 -0.5470  0.8159
13815TIP3    H262861   3.655   4.754  13.337 -1.3294 -2.3587 -0.8754
13816TIP3   OH262862   6.412   3.732  13.383  0.0352 -0.4677 -0.7051
13816TIP3    H162863   6.330   3.697  13.420  0.1880  0.0741  0.1739
13816TIP3    H262864   6.431   3.809  13.437 -0.1568  0.8497 -2.4333
13817TIP3   OH262865   3.232   4.403  11.403  0.0537  0.0231 -0.0691
13817TIP3    H162866   3.185   4.452  11.336 -1.9517 -1.5252  0.1222
13817TIP3    H262867   3.245   4.316  11.364  0.4916 -0.3408  0.8562
13818TIP3   OH262868   6.499   5.457   5.535  0.0497  0.1452  0.2844
13818TIP3    H162869   6.520   5.364   5.534 -1.1426 -0.1425  0.6242
13818TIP3    H262870   6.446   5.470   5.456  3.5952  1.4204 -2.1315
13819TIP3   OH262871   0.581   0.947  14.601  0.1157  0.5414 -0.7698
13819TIP3    H162872   0.577   0.860  14.640  0.2242  0.7450 -0.2959
13819TIP3    H262873   0.648   0.940  14.533  0.3737  0.3416 -0.5007
13820TIP3   OH262874   5.797   5.085   0.448 -0.0133  0.3944  0.2591
13820TIP3    H162875   5.777   5.153   0.384  0.6116  0.0390 -0.3293
13820TIP3    H262876   5.882   5.110   0.484  0.4995 -0.3530 -0.3780
13821TIP3   OH262877   4.076   6.654  12.539 -0.1898  0.1616 -0.0435
13821TIP3    H162878   4.127   6.660  12.620 -0.4064 -0.7721  0.1794
13821TIP3    H262879   3.985   6.647  12.568 -0.1377 -2.3002 -0.2261
13822TIP3   OH262880   5.839   1.227   5.684 -0.0379  0.2219  0.2781
13822TIP3    H162881   5.792   1.245   5.766  2.2557  0.4810  1.6303
13822TIP3    H262882   5.864   1.135   5.690 -0.0543  0.1849 -0.2204
13823TIP3   OH262883   4.089   1.634   2.218  0.1301 -0.3447 -0.2576
13823TIP3    H162884   4.103   1.549   2.177  0.9890 -0.2957 -0.0827
13823TIP3    H262885   4.172   1.680   2.207  0.3201 -0.2521  1.3310
13824TIP3   OH262886   1.633   5.734   2.337  0.3722  0.2082  0.2565
13824TIP3    H162887   1.661   5.778   2.418 -0.2003  2.7733 -0.8306
13824TIP3    H262888   1.544   5.704   2.356  0.7366 -0.4253  1.0055
13825TIP3   OH262889   4.040   3.551  14.562 -0.0622 -1.0620 -0.0929
13825TIP3    H162890   4.046   3.525  14.470 -2.3246 -1.6061 -0.1415
13825TIP3    H262891   4.043   3.647  14.560  1.6611 -1.0783 -0.5145
13826TIP3   OH262892   5.534   1.605  11.226  0.6993 -0.4604 -0.2110
13826TIP3    H162893   5.533   1.520  11.270  2.0530 -0.1754  0.4123
13826TIP3    H262894   5.579   1.664  11.287  2.2257  0.0598 -1.7441
13827TIP3   OH262895   3.098   0.887   6.200  0.0832 -0.2250 -0.0327
13827TIP3    H162896   3.067   0.977   6.189 -2.1927 -0.8746  0.5783
13827TIP3    H262897   3.194   0.895   6.203  0.0234  1.9594 -1.6170
13828TIP3   OH262898   1.839   5.498  14.777  0.3516 -0.2072 -0.1005
13828TIP3    H162899   1.881   5.559  14.838  1.4117 -2.7769  1.9373
13828TIP3    H262900   1.910   5.466  14.722  0.1784 -0.9106  0.0660
13829TIP3   OH262901   2.231   4.941  14.015  0.6427 -0.0301  0.0032
13829TIP3    H162902   2.270   5.011  14.068  0.4517  0.0659  0.0165
13829TIP3    H262903   2.151   4.978  13.981  0.1873 -0.4628  0.5688
13830TIP3   OH262904   1.065   6.645  13.414  0.1671  0.0954 -0.0194
13830TIP3    H162905   1.113   6.633  13.331 -0.6375  0.2397 -0.5163
13830TIP3    H262906   1.081   6.736  13.438 -2.4379  1.1479 -1.8842
13831TIP3   OH262907   0.632   5.681   3.551 -0.7550 -0.0608  0.3489
13831TIP3    H162908   0.650   5.774   3.539 -1.1147  0.0910  0.9346
13831TIP3    H262909   0.594   5.675   3.638  1.2210 -1.0391  1.2055
13832TIP3   OH262910   4.646   2.529  16.210 -0.4373  0.2912 -0.3514
13832TIP3    H162911   4.716   2.541  16.146 -0.2135 -0.8078 -0.3337
13832TIP3    H262912   4.649   2.436  16.231 -1.3626  0.3949  0.2822
13833TIP3   OH262913   4.045   1.683   4.260  0.1374  0.5368  0.9701
13833TIP3    H162914   4.089   1.765   4.282  0.9155  0.4543 -0.1736
13833TIP3    H262915   3.963   1.710   4.220  0.4391  0.7683  0.4971
13834TIP3   OH262916   0.955   4.515   2.785  0.3352  0.1191  0.5185
13834TIP3    H162917   0.907   4.527   2.703 -0.0634  1.4171  0.9216
13834TIP3    H262918   1.032   4.571   2.776  0.4757 -0.0138  0.8891
13835TIP3   OH262919   5.296   2.797  12.118 -0.1228 -0.5424 -0.6874
13835TIP3    H162920   5.228   2.861  12.096  0.3836  1.8163  3.6318
13835TIP3    H262921   5.378   2.842  12.102  0.2823 -0.7775  0.6513
13836TIP3   OH262922   3.379   2.874  16.386 -0.1001 -0.6118 -0.1031
13836TIP3    H162923   3.469   2.882  16.357 -0.0519  1.0330  0.3897
13836TIP3    H262924   3.385   2.842  16.476  0.0121 -0.3558 -0.0177
13837TIP3   OH262925   5.113   4.759  14.163  0.6866 -0.6545  0.3959
13837TIP3    H162926   5.157   4.746  14.079  1.0169 -2.2434  0.7646
13837TIP3    H262927   5.172   4.718  14.227 -0.0194 -0.3439  1.2668
13838TIP3   OH262928   1.328   2.867   4.633 -0.5799 -0.4298  0.0679
13838TIP3    H162929   1.338   2.811   4.555  1.0702 -1.1565  0.7693
13838TIP3    H262930   1.294   2.950   4.598 -0.3068 -0.8911 -1.3645
13839TIP3   OH262931   4.458   5.018   4.730 -0.1319  0.3634 -0.0308
13839TIP3    H162932   4.426   5.073   4.801 -1.5611  1.7827 -1.6671
13839TIP3    H262933   4.547   5.049   4.713  0.8979 -1.1507  2.1744
13840TIP3   OH262934   3.822   6.003  14.379  0.3843  0.5150 -0.2737
13840TIP3    H162935   3.779   5.981  14.297 -2.9262  0.2264  1.3802
13840TIP3    H262936   3.879   5.928  14.397 -0.9736 -0.7302 -0.9582
13841TIP3   OH262937   2.754   3.646   0.739 -0.5264 -0.0064  0.0164
13841TIP3    H162938   2.829   3.612   0.690  0.0560  0.7717  0.3510
13841TIP3    H262939   2.692   3.675   0.671 -0.2732 -0.1068 -0.2599
13842TIP3   OH262940   6.745   6.755  11.888 -0.5090 -0.5538  0.5037
13842TIP3    H162941   6.698   6.685  11.934 -1.3094 -0.6431 -0.4305
13842TIP3    H262942   6.753   6.825  11.953 -2.1949 -0.4239  0.5929
13843TIP3   OH262943   6.771   0.104  14.245  0.0318  0.2747  0.6406
13843TIP3    H162944   6.721   0.028  14.275 -0.4552  0.7994  1.1923
13843TIP3    H262945   6.812   0.139  14.324  1.1621 -0.0512  0.2193
13844TIP3   OH262946   4.541   1.050   3.040  0.3501 -0.1482  0.0546
13844TIP3    H162947   4.631   1.064   3.069  0.5358 -1.9103  0.4069
13844TIP3    H262948   4.487   1.097   3.104  0.9598 -0.1493  0.5741
13845TIP3   OH262949   1.022   3.602  17.054  0.0479 -0.5036  0.1730
13845TIP3    H162950   1.005   3.692  17.025  0.0269 -0.4691  0.2924
13845TIP3    H262951   1.070   3.563  16.981  0.6997 -0.1791  0.4257
13846TIP3   OH262952   1.773   1.996   1.498 -0.2216 -0.1037 -0.7169
13846TIP3    H162953   1.687   2.035   1.508  0.5152  1.4897 -0.3549
13846TIP3    H262954   1.758   1.902   1.507 -1.7654  0.2196  0.3393
13847TIP3   OH262955   4.224   3.470   1.322 -0.1721  0.4613 -0.0675
13847TIP3    H162956   4.299   3.420   1.290 -0.0786 -1.0805  2.3206
13847TIP3    H262957   4.183   3.504   1.243  1.2589 -1.2477 -1.6522
13848TIP3   OH262958   4.523   4.546   0.956 -0.2144  0.1467 -0.6304
13848TIP3    H162959   4.452   4.502   0.910  0.1294 -0.5370 -0.5227
13848TIP3    H262960   4.602   4.517   0.910  0.1977 -1.0916  0.7818
13849TIP3   OH262961   1.523   1.496  14.723  0.2812 -0.0456  0.3247
13849TIP3    H162962   1.546   1.448  14.803 -0.3589  0.4587  0.8192
13849TIP3    H262963   1.566   1.580  14.733 -0.4778  0.3277  0.5367
13850TIP3   OH262964   2.128   3.981   0.495  0.3909 -0.2106 -0.1233
13850TIP3    H162965   2.200   3.925   0.466 -0.1152  0.0949 -2.0739
13850TIP3    H262966   2.138   3.984   0.590  0.8113 -3.0805  0.0265
13851TIP3   OH262967   6.499   1.405   5.033 -0.2370 -1.0007  0.3811
13851TIP3    H162968   6.490   1.353   5.113  0.3079 -0.2597  0.9360
13851TIP3    H262969   6.460   1.350   4.965  0.9519 -2.4645  0.8137
13852TIP3   OH262970   6.525   2.573   5.033 -0.9191 -0.1035  0.1309
13852TIP3    H162971   6.441   2.600   4.997  0.4780  2.0004 -1.7848
13852TIP3    H262972   6.543   2.488   4.992 -1.8312 -0.3200  0.1567
13853TIP3   OH262973   1.681   3.737   2.600 -0.0123 -0.2890 -0.1609
13853TIP3    H162974   1.667   3.789   2.679  0.4326  0.2390 -0.4234
13853TIP3    H262975   1.768   3.700   2.610 -0.1631 -0.6556 -0.1665
13854TIP3   OH262976   0.736   0.645  10.721  0.4783  0.0072 -0.0145
13854TIP3    H162977   0.769   0.712  10.661 -0.8149  0.2658 -0.4697
13854TIP3    H262978   0.641   0.660  10.724  0.3747 -0.7868  1.1394
13855TIP3   OH262979   3.796   1.173   1.050  0.0757 -0.4719 -0.3724
13855TIP3    H162980   3.866   1.137   1.104 -1.7257 -3.4304  0.1800
13855TIP3    H262981   3.821   1.151   0.960  0.3400 -0.5719 -0.2739
13856TIP3   OH262982   3.533   6.287   3.622  0.1730 -0.4140  0.3550
13856TIP3    H162983   3.620   6.322   3.603  0.1389  0.0802  1.0447
13856TIP3    H262984   3.474   6.346   3.575  0.2388 -1.4692 -1.1273
13857TIP3   OH262985   4.274   1.743  13.273  0.4142 -0.4047 -0.3941
13857TIP3    H162986   4.299   1.730  13.181  0.1735  0.8644 -0.6504
13857TIP3    H262987   4.253   1.836  13.280  0.3206 -0.5035  0.9309
13858TIP3   OH262988   6.279   0.875  13.530 -0.4404 -0.3985  0.0127
13858TIP3    H162989   6.351   0.833  13.484  1.3063  0.5414  1.7328
13858TIP3    H262990   6.255   0.949  13.475  1.3839  0.5076  0.3583
13859TIP3   OH262991   1.973   0.650  12.468 -0.0096  0.2692 -0.5733
13859TIP3    H162992   1.992   0.558  12.449 -0.3806 -0.4607  2.1434
13859TIP3    H262993   1.878   0.658  12.456 -0.3082 -0.2958  1.2004
13860TIP3   OH262994   4.987   0.708   5.399 -0.2038  0.3585  0.6930
13860TIP3    H162995   4.891   0.708   5.399 -0.2676 -1.7665 -0.2372
13860TIP3    H262996   5.011   0.661   5.319  1.5764 -0.4047  1.6120
13861TIP3   OH262997   1.515   2.745  16.129 -0.5257 -0.1808  0.1244
13861TIP3    H162998   1.549   2.832  16.112 -1.7283  0.3821  0.4912
13861TIP3    H262999   1.460   2.755  16.207 -1.0539 -1.1575 -0.0973
13862TIP3   OH263000   6.574   6.303  16.904  0.7751  0.5974 -0.5899
13862TIP3    H163001   6.621   6.370  16.953 -0.1770  0.6021  0.3537
13862TIP3    H263002   6.619   6.221  16.925  0.0147  0.5093  0.8276
13863TIP3   OH263003   2.279   3.377  13.541  0.6801  0.0629  0.2621
13863TIP3    H163004   2.203   3.425  13.508  0.7779 -0.5659 -0.9466
13863TIP3    H263005   2.324   3.438  13.599 -0.0199  0.8882 -0.0523
13864TIP3   OH263006   3.729   1.522   3.574  0.0380 -0.8108  0.4743
13864TIP3    H163007   3.660   1.553   3.515  0.8448 -0.6596 -0.4068
13864TIP3    H263008   3.741   1.593   3.637 -1.1307 -1.1494  1.1167
13865TIP3   OH263009   2.201   1.780   4.545  0.9213  0.2919 -0.6691
13865TIP3    H163010   2.124   1.838   4.546 -1.0919 -2.2333  0.4882
13865TIP3    H263011   2.203   1.745   4.456 -0.5688 -1.1518 -0.1843
13866TIP3   OH263012   3.052   5.650   2.802 -0.2791  0.5455  0.8866
13866TIP3    H163013   3.111   5.579   2.824  1.9362  1.7201 -0.9032
13866TIP3    H263014   2.997   5.616   2.732 -0.8560 -0.1279  1.6526
13867TIP3   OH263015   3.918   2.772  11.106  0.1762 -0.5370 -0.1027
13867TIP3    H163016   3.835   2.731  11.080  0.0538  0.8353 -2.0566
13867TIP3    H263017   3.894   2.829  11.179 -0.6417 -0.0608 -0.7213
13868TIP3   OH263018   0.280   6.024   4.693 -0.0322 -0.1533 -0.0192
13868TIP3    H163019   0.319   5.978   4.619  0.5669 -0.8199  0.7032
13868TIP3    H263020   0.193   6.050   4.662 -0.1234 -1.1940 -0.6509
13869TIP3   OH263021   0.767   1.119   6.458  0.1866  0.5103  0.2129
13869TIP3    H163022   0.772   1.172   6.379  0.1551 -1.7235 -1.3677
13869TIP3    H263023   0.839   1.152   6.513 -1.0214  3.4417  0.2174
13870TIP3   OH263024   0.560   2.309  14.137  0.6644  0.7720 -0.9166
13870TIP3    H163025   0.646   2.311  14.178  0.2804 -0.6668  0.0515
13870TIP3    H263026   0.577   2.283  14.047  1.1712 -1.1767 -0.3199
13871TIP3   OH263027   2.214   1.336  12.205  0.5332  0.0920  0.4246
13871TIP3    H163028   2.171   1.265  12.252 -0.1725  1.4703  1.9820
13871TIP3    H263029   2.304   1.336  12.238  0.2613  0.5281  1.1998
13872TIP3   OH263030   3.274   3.880   2.241  0.6040 -0.7488 -0.0428
13872TIP3    H163031   3.282   3.953   2.180 -0.4588 -0.0018  0.6779
13872TIP3    H263032   3.304   3.804   2.191  0.4058 -0.0516 -1.2738
13873TIP3   OH263033   0.274   2.154   2.667  0.5859 -0.3930 -0.2630
13873TIP3    H163034   0.228   2.081   2.708 -1.4672  1.0835  0.2729
13873TIP3    H263035   0.230   2.166   2.583  1.5818 -0.3881 -0.8007
13874TIP3   OH263036   1.987   4.473  16.093 -0.2321  0.4165  0.6428
13874TIP3    H163037   1.951   4.545  16.042  2.9451  0.6386 -1.5747
13874TIP3    H263038   2.054   4.514  16.148  1.5385 -0.7126 -0.5639
13875TIP3   OH263039   5.520   2.332  14.486 -0.1390  0.5234  0.2028
13875TIP3    H163040   5.518   2.291  14.572 -0.1308 -0.5769 -0.3015
13875TIP3    H263041   5.613   2.341  14.465 -0.0802  2.6402  1.1278
13876TIP3   OH263042   1.537   5.229   1.758  0.1515 -0.4541 -0.1800
13876TIP3    H163043   1.580   5.314   1.760 -2.3104  0.8924 -1.1249
13876TIP3    H263044   1.548   5.194   1.846  1.7612  0.5098  0.0338
13877TIP3   OH263045   5.319   2.812  16.964  0.2535  0.3143  0.6124
13877TIP3    H163046   5.399   2.813  17.016  0.8104  0.3756 -0.2267
13877TIP3    H263047   5.333   2.879  16.897  0.9944 -2.0315 -1.7362
13878TIP3   OH263048   5.264   0.629  13.710 -0.0032 -0.0990 -0.1611
13878TIP3    H163049   5.293   0.703  13.656 -0.3519 -0.1585 -0.4355
13878TIP3    H263050   5.282   0.552  13.656 -0.3424 -0.1605 -0.1896
13879TIP3   OH263051   0.535   2.819   2.763  0.0007  0.1259  0.1841
13879TIP3    H163052   0.553   2.907   2.799 -0.5937 -0.2711  1.5286
13879TIP3    H263053   0.447   2.798   2.795  0.7921 -1.6500  1.3232
13880TIP3   OH263054   0.531   2.751  10.814 -0.4515 -0.6002  0.0990
13880TIP3    H163055   0.476   2.806  10.871  0.4211  0.1036  0.2736
13880TIP3    H263056   0.604   2.808  10.789 -0.0707 -1.3670 -0.5530
13881TIP3   OH263057   3.837   2.231  12.010 -0.1791 -0.4658 -0.5498
13881TIP3    H163058   3.777   2.305  12.008 -0.7554 -0.9386 -1.3016
13881TIP3    H263059   3.881   2.232  11.925  1.8990  0.6687  0.4773
13882TIP3   OH263060   1.711   4.204  14.720 -0.2360  0.0028 -0.3394
13882TIP3    H163061   1.657   4.150  14.662 -0.8897  0.9430 -0.6340
13882TIP3    H263062   1.661   4.210  14.801 -0.7032  1.0389 -0.6790
13883TIP3   OH263063   1.335   3.226   1.974 -0.4625  0.2450  0.1376
13883TIP3    H163064   1.409   3.185   2.017 -1.6722 -3.8578 -1.2328
13883TIP3    H263065   1.264   3.220   2.037 -0.2567  2.1362  0.6145
13884TIP3   OH263066   5.426   3.305  13.296  0.0841  0.0551  0.5098
13884TIP3    H163067   5.341   3.317  13.339 -0.3668 -0.0796 -0.3167
13884TIP3    H263068   5.449   3.213  13.313 -1.5813 -0.9719 -2.0385
13885TIP3   OH263069   2.643   0.505   4.144  0.0279 -0.1055 -0.6789
13885TIP3    H163070   2.701   0.569   4.186  0.8697  0.3922 -2.5010
13885TIP3    H263071   2.701   0.432   4.121 -0.4700 -0.5039 -0.6767
13886TIP3   OH263072   2.086   4.791  12.993 -0.1198  0.3865  0.3428
13886TIP3    H163073   2.176   4.773  13.021  0.4329  0.4054 -1.3001
13886TIP3    H263074   2.060   4.868  13.043  0.7554  0.3294  0.9054
13887TIP3   OH263075   3.986   5.658   1.357  0.2952  1.0604  0.2804
13887TIP3    H163076   4.048   5.586   1.350  1.0751  1.7648 -0.3183
13887TIP3    H263077   3.921   5.628   1.420 -0.2989 -0.8084 -1.1300
13888TIP3   OH263078   1.972   6.614  15.895 -0.4223  0.2199 -0.0517
13888TIP3    H163079   1.937   6.565  15.822 -0.1694 -0.2965  0.1690
13888TIP3    H263080   1.901   6.673  15.922 -0.6232  0.1816 -0.4977
13889TIP3   OH263081   6.627   0.049  13.862 -0.0492  0.3593  0.2793
13889TIP3    H163082   6.677   0.027  13.941  0.7191  1.0089 -0.0142
13889TIP3    H263083   6.586   0.133  13.882 -0.4281  0.1853  0.2426
13890TIP3   OH263084   4.865   1.871  11.426  0.5916  0.2621 -0.6079
13890TIP3    H163085   4.892   1.831  11.343  0.1210 -0.5214 -0.3909
13890TIP3    H263086   4.771   1.884  11.416  0.6915  1.0418 -0.5574
13891TIP3   OH263087   3.324   4.320  14.241  0.3130  0.2813  0.0969
13891TIP3    H163088   3.245   4.282  14.202 -0.2089  1.9429 -0.5769
13891TIP3    H263089   3.301   4.335  14.332  0.0074  0.3314  0.0142
13892TIP3   OH263090   0.902   1.534   4.915 -0.8285 -0.1993 -0.3675
13892TIP3    H163091   0.941   1.612   4.955 -0.7708  0.0263 -0.8576
13892TIP3    H263092   0.809   1.552   4.914 -0.8897 -0.4518  0.1854
13893TIP3   OH263093   6.692   3.813  11.103 -0.3167 -0.0756  0.8854
13893TIP3    H163094   6.764   3.867  11.070 -1.2226  0.6358 -0.0051
13893TIP3    H263095   6.733   3.731  11.129  0.5074 -0.6080 -1.8393
13894TIP3   OH263096   5.930   4.953  12.222 -0.0306 -0.1182  0.6723
13894TIP3    H163097   5.921   4.889  12.294 -0.0333 -0.6647  0.1964
13894TIP3    H263098   6.016   4.934  12.184 -0.9689 -1.4407 -0.9547
13895TIP3   OH263099   3.157   3.048   0.347  0.6107 -0.1549 -0.2673
13895TIP3    H163100   3.233   2.990   0.332  0.9997  0.3250 -0.1734
13895TIP3    H263101   3.088   3.012   0.291  0.4965 -1.3853  0.6040
13896TIP3   OH263102   1.946   3.301  15.865  0.2499 -0.0114  0.3569
13896TIP3    H163103   2.003   3.355  15.810  2.2564 -1.3319  1.0571
13896TIP3    H263104   1.889   3.256  15.803 -0.5590  1.8252 -0.3179
13897TIP3   OH263105   0.771   3.237   2.691 -0.2801 -0.0850 -0.7647
13897TIP3    H163106   0.838   3.280   2.744 -0.8321 -1.0969  0.8426
13897TIP3    H263107   0.818   3.170   2.642  0.0088 -0.2515 -0.2686
13898TIP3   OH263108   5.661   2.838   0.356 -0.6022 -0.2048 -0.2099
13898TIP3    H163109   5.616   2.819   0.438  1.1529 -0.7607  0.6729
13898TIP3    H263110   5.622   2.776   0.293 -0.3539 -1.4062  0.7796
13899TIP3   OH263111   3.964   2.362  15.456  0.7628 -1.0057 -0.6903
13899TIP3    H163112   4.038   2.391  15.403  1.0542 -1.8190 -0.7371
13899TIP3    H263113   3.960   2.268  15.442 -0.4332 -0.9468 -0.8773
13900TIP3   OH263114   6.049   2.873  13.273 -0.1752  0.1313  0.9810
13900TIP3    H163115   6.129   2.910  13.310  0.5012 -0.7378  0.4068
13900TIP3    H263116   6.029   2.929  13.198 -0.8113  1.0934  1.8436
13901TIP3   OH263117   0.557   3.818  15.938  0.0987 -0.3350  0.4218
13901TIP3    H163118   0.529   3.755  15.871 -0.9501 -1.1433  1.5656
13901TIP3    H263119   0.475   3.857  15.969  0.7254  1.7970 -0.3912
13902TIP3   OH263120   2.282   2.685  17.189  0.0854 -0.4148 -0.2533
13902TIP3    H163121   2.306   2.774  17.163  0.1060 -0.7047 -1.3001
13902TIP3    H263122   2.332   2.628  17.129  1.3934 -1.1997  1.4958
13903TIP3   OH263123   4.693   4.847  15.792 -0.4020  0.2244  0.1417
13903TIP3    H163124   4.736   4.772  15.753 -0.1402  0.1325  0.6001
13903TIP3    H263125   4.644   4.887  15.720 -1.8553 -1.2960  0.2043
13904TIP3   OH263126   0.819   5.269  14.067  0.0615 -0.3747  0.0758
13904TIP3    H163127   0.849   5.223  14.146  0.0734 -0.0459  0.2623
13904TIP3    H263128   0.767   5.342  14.100  0.6473  0.1754 -0.2010
13905TIP3   OH263129   3.160   5.671  16.198 -0.0428  0.1550  0.3038
13905TIP3    H163130   3.084   5.613  16.202  0.0246  0.0689  0.3496
13905TIP3    H263131   3.124   5.758  16.179  0.0396 -0.2903 -2.1148
13906TIP3   OH263132   6.409   2.987  14.143 -0.3702 -0.4647 -0.4970
13906TIP3    H163133   6.429   3.035  14.063  0.2300  1.4694  0.7451
13906TIP3    H263134   6.462   3.030  14.210 -0.4837 -2.3354  0.8672
13907TIP3   OH263135   4.454   3.571  12.021 -0.9455 -0.6867 -0.1976
13907TIP3    H163136   4.548   3.570  12.037 -0.4643 -2.2258 -2.6505
13907TIP3    H263137   4.445   3.558  11.927 -3.6243 -0.4071 -0.0590
13908TIP3   OH263138   2.636   3.942  13.736  0.2962  0.2491  0.3411
13908TIP3    H163139   2.601   3.962  13.649  1.3653  1.0171  0.0670
13908TIP3    H263140   2.717   3.992  13.741  1.5483 -1.7353  0.8054
13909TIP3   OH263141   5.317   0.615  15.978 -0.0206  0.4050 -0.8329
13909TIP3    H163142   5.265   0.613  15.897 -1.0684 -0.4602 -0.1596
13909TIP3    H263143   5.386   0.551  15.963 -0.0493  0.4391 -1.1370
13910TIP3   OH263144   0.016   1.858   1.715 -0.0668  0.3169  0.2801
13910TIP3    H163145  -0.050   1.838   1.649  0.2962 -0.7902  0.2351
13910TIP3    H263146  -0.026   1.923   1.772 -1.4069 -0.7416  0.5505
13911TIP3   OH263147   2.459   0.939  12.632 -0.0580 -0.1325 -0.1079
13911TIP3    H163148   2.444   0.899  12.547 -0.2289 -0.8364  0.2443
13911TIP3    H263149   2.376   0.982  12.653  0.1620  0.5111 -0.5370
13912TIP3   OH263150   6.347   5.911   1.493 -0.6574 -0.9373 -0.8811
13912TIP3    H163151   6.253   5.918   1.507 -0.6114  2.1870 -1.5139
13912TIP3    H263152   6.386   5.978   1.549  1.3272 -2.6178 -0.0812
13913TIP3   OH263153   5.751   1.192   6.288  0.1358  0.5271 -0.0929
13913TIP3    H163154   5.677   1.136   6.311  0.8440 -0.2377  0.3659
13913TIP3    H263155   5.825   1.157   6.338  0.8349  1.2165 -0.6121
13914TIP3   OH263156   5.124   5.274  12.969  0.4664 -0.3043 -0.1195
13914TIP3    H163157   5.052   5.331  12.942 -0.5521 -1.3428  0.2594
13914TIP3    H263158   5.161   5.317  13.046  0.6981  0.5821 -0.7144
13915TIP3   OH263159   2.144   4.585   1.848 -0.0197 -0.2701  0.2270
13915TIP3    H163160   2.209   4.581   1.778 -0.9374  1.9280 -0.8525
13915TIP3    H263161   2.068   4.626   1.808 -0.2214  2.1139  2.7384
13916TIP3   OH263162   3.336   1.411   5.157  0.5643  0.1124  0.0735
13916TIP3    H163163   3.411   1.372   5.112  0.1660  0.4346 -0.8943
13916TIP3    H263164   3.365   1.499   5.181  0.4425  0.3092 -0.4771
13917TIP3   OH263165   1.324   1.303   3.227 -0.4288 -0.2536  0.1897
13917TIP3    H163166   1.397   1.358   3.256  0.7081 -1.6882  0.1640
13917TIP3    H263167   1.256   1.319   3.292  1.6508 -2.5551  3.2753
13918TIP3   OH263168   1.290   1.524   5.008 -0.3265  0.5693  0.1797
13918TIP3    H163169   1.370   1.481   5.037  0.4478  2.1497  0.5055
13918TIP3    H263170   1.221   1.483   5.059  0.0956 -1.5712 -0.8646
13919TIP3   OH263171   6.517   5.748  11.922  0.1607 -0.0455 -0.1717
13919TIP3    H163172   6.552   5.805  11.854 -1.3886  1.9329  0.5884
13919TIP3    H263173   6.443   5.704  11.882 -1.0812  1.5196  0.3086
13920TIP3   OH263174   0.595   1.103   0.312 -0.1161 -0.1242 -0.0163
13920TIP3    H163175   0.601   1.191   0.348 -0.8018  0.0659 -0.3417
13920TIP3    H263176   0.661   1.099   0.244  0.4554 -0.1283  0.5312
13921TIP3   OH263177   5.083   4.529  12.665  0.4880  0.1420  0.2623
13921TIP3    H163178   5.157   4.470  12.681 -0.2642 -0.8442  0.2419
13921TIP3    H263179   5.025   4.479  12.607 -0.3634  0.7438  0.5748
13922TIP3   OH263180   4.082   3.137  14.091 -0.5612  0.4417  0.0543
13922TIP3    H163181   4.118   3.152  14.004 -0.7424  1.8174  0.1934
13922TIP3    H263182   4.156   3.106  14.143 -0.8114 -2.0426 -0.9680
13923TIP3   OH263183   4.290   4.403   3.222  0.4474 -0.7476 -0.2504
13923TIP3    H163184   4.321   4.432   3.137  0.4493  0.9728  0.2828
13923TIP3    H263185   4.335   4.460   3.285  1.1433 -2.5641  0.9931
13924TIP3   OH263186   4.120   0.637  14.529 -0.3956 -0.0005  0.5538
13924TIP3    H163187   4.126   0.598  14.441 -0.1264 -2.1190  1.4634
13924TIP3    H263188   4.200   0.688  14.538 -0.1711 -0.1950 -0.2364
13925TIP3   OH263189   0.139   2.296  15.580 -0.3666  0.1386 -0.5302
13925TIP3    H163190   0.225   2.309  15.619 -0.9846 -0.5875  1.1900
13925TIP3    H263191   0.156   2.246  15.500  0.7542 -0.8706  0.2917
13926TIP3   OH263192   4.634   6.451   3.248  0.2569 -0.1478  0.4730
13926TIP3    H163193   4.562   6.394   3.221  0.1204  0.6694 -0.9813
13926TIP3    H263194   4.653   6.425   3.339 -0.0867 -2.1773  0.0056
13927TIP3   OH263195   2.364   1.538   2.068  0.3188 -0.1817  0.2324
13927TIP3    H163196   2.279   1.571   2.096 -0.2178 -0.5525 -0.9061
13927TIP3    H263197   2.395   1.486   2.142 -0.9600 -0.9611  0.2535
13928TIP3   OH263198   6.700   3.539   2.635 -0.1940  0.4774 -0.0311
13928TIP3    H163199   6.744   3.602   2.578  0.9179 -0.7708 -0.6143
13928TIP3    H263200   6.617   3.521   2.590  0.6310 -0.4274 -1.2634
13929TIP3   OH263201   2.780   2.451  15.582 -0.2669  0.1859 -0.1203
13929TIP3    H163202   2.715   2.420  15.519 -0.8694 -0.1534  0.6531
13929TIP3    H263203   2.818   2.529  15.541  1.4590 -1.6413 -2.2246
13930TIP3   OH263204   4.765   6.154   5.929 -0.5881  0.6360 -0.3397
13930TIP3    H163205   4.696   6.090   5.945 -0.0547  0.2994  0.7826
13930TIP3    H263206   4.758   6.216   6.002 -0.2636  1.1060 -0.6995
13931TIP3   OH263207   1.271   0.186  11.369 -0.2791  0.0718  0.6377
13931TIP3    H163208   1.301   0.276  11.383  0.4749 -0.3385  1.8809
13931TIP3    H263209   1.189   0.180  11.419 -0.1657 -0.0074  0.8173
13932TIP3   OH263210   5.331   1.168   0.769  0.7721 -0.1485 -0.1305
13932TIP3    H163211   5.371   1.234   0.712  0.6209 -0.8900 -1.1283
13932TIP3    H263212   5.279   1.114   0.709 -0.0329 -0.4717  0.8419
13933TIP3   OH263213   0.121   1.125   0.201  0.2604  0.5073 -0.1189
13933TIP3    H163214   0.201   1.160   0.241  0.5101 -0.1063 -0.0615
13933TIP3    H263215   0.119   1.033   0.229 -1.0319  0.7728  0.7809
13934TIP3   OH263216   0.506   2.623   4.516  0.3214 -0.2462  0.2450
13934TIP3    H163217   0.434   2.571   4.481 -0.3022 -0.7762  2.1805
13934TIP3    H263218   0.473   2.713   4.515 -0.0032 -0.3630  0.2711
13935TIP3   OH263219   4.877   1.277   2.309 -0.1178  0.1080  0.1983
13935TIP3    H163220   4.856   1.290   2.217 -1.9405  0.5440  0.6403
13935TIP3    H263221   4.973   1.271   2.311  0.1053  2.1329 -1.4645
13936TIP3   OH263222   4.487   4.092  16.634  0.2901 -0.3200 -0.0765
13936TIP3    H163223   4.446   4.059  16.714 -0.6058 -1.6615 -1.0390
13936TIP3    H263224   4.544   4.163  16.664 -0.6724 -0.2010  1.6433
13937TIP3   OH263225   6.236   5.108  13.269  1.0002 -0.2218 -0.1807
13937TIP3    H163226   6.256   5.093  13.176  0.1946  3.2016 -1.0443
13937TIP3    H263227   6.264   5.199  13.285 -0.5430 -0.1141  2.4337
13938TIP3   OH263228   3.892   2.292   3.973  0.0729  0.0978 -0.2153
13938TIP3    H163229   3.954   2.333   3.912  2.6790  0.1145  2.2141
13938TIP3    H263230   3.816   2.350   3.972  0.6103  0.8497 -2.3440
13939TIP3   OH263231   3.844   5.183   0.019 -0.3027  0.3470 -0.0444
13939TIP3    H163232   3.865   5.266  -0.022  1.1827  0.2174  0.4078
13939TIP3    H263233   3.876   5.117  -0.042 -1.6397  0.0783 -0.4868
13940TIP3   OH263234   1.652   6.653  16.935  0.4246 -0.2276  0.2591
13940TIP3    H163235   1.706   6.604  16.997 -0.3349 -1.0491  0.2985
13940TIP3    H263236   1.713   6.683  16.867  1.0099 -0.6392  0.5989
13941TIP3   OH263237   3.706   5.116  14.261  0.6782  0.3333  0.6222
13941TIP3    H163238   3.700   5.135  14.355 -0.3355  0.5350  0.5270
13941TIP3    H263239   3.721   5.202  14.221 -2.4882  0.8691  0.3171
13942TIP3   OH263240   3.963   3.883  12.117 -0.5888 -0.6488  1.1085
13942TIP3    H163241   4.049   3.916  12.142  0.0837  0.2967 -1.9326
13942TIP3    H263242   3.903   3.954  12.140  0.1312  0.6095 -0.5991
13943TIP3   OH263243   0.612   0.131  13.615 -0.1141 -0.2246  0.2230
13943TIP3    H163244   0.612   0.039  13.589  1.8260 -0.6931  1.6160
13943TIP3    H263245   0.631   0.179  13.535 -0.3504 -1.0873 -0.3656
13944TIP3   OH263246   2.294   2.009   4.205  0.0213 -0.7201  0.0941
13944TIP3    H163247   2.293   1.917   4.229  0.4074 -0.6609  0.3458
13944TIP3    H263248   2.205   2.027   4.173  0.0475 -1.2648 -0.2970
13945TIP3   OH263249   1.037   3.841  16.529  0.2040  0.9080  0.1909
13945TIP3    H163250   1.079   3.835  16.614 -0.1251  1.5124  0.4023
13945TIP3    H263251   1.102   3.808  16.467  1.3706  2.6862  0.4028
13946TIP3   OH263252   1.569   3.775   4.454  0.3209 -0.3595 -0.8596
13946TIP3    H163253   1.494   3.827   4.425  0.0376 -0.0765  0.3314
13946TIP3    H263254   1.633   3.840   4.484  0.7915 -0.6271 -1.2740
13947TIP3   OH263255   2.890   5.815  15.393  0.1230 -0.0036  0.2096
13947TIP3    H163256   2.856   5.850  15.310  1.6158 -0.4382 -0.6243
13947TIP3    H263257   2.901   5.722  15.377 -0.0624 -0.1780  1.0761
13948TIP3   OH263258   5.420   2.483   2.762  0.1108  0.3286 -0.1176
13948TIP3    H163259   5.375   2.468   2.845 -2.4320  2.4650 -0.9843
13948TIP3    H263260   5.462   2.568   2.772  0.7966  0.0731 -0.6731
13949TIP3   OH263261   1.585   6.487   3.682 -0.4180  0.2205 -0.5323
13949TIP3    H163262   1.562   6.469   3.591 -0.0370  0.4428 -0.6776
13949TIP3    H263263   1.677   6.514   3.679 -1.1980  3.2562 -0.5003
13950TIP3   OH263264   1.898   4.939  12.712  0.4007  0.6738  0.0670
13950TIP3    H163265   1.942   4.881  12.650 -0.5126  0.6475 -0.5727
13950TIP3    H263266   1.887   4.886  12.791 -0.8852 -0.2098 -0.6817
13951TIP3   OH263267   4.562   4.935  11.990 -0.0224  0.6460 -0.4350
13951TIP3    H163268   4.553   5.017  12.038 -3.0652  1.4713 -2.2003
13951TIP3    H263269   4.645   4.943  11.944  1.1028  1.4403  1.6082
13952TIP3   OH263270   4.365   2.044  13.742 -0.1303  0.2133  0.1513
13952TIP3    H163271   4.424   2.113  13.773  0.2468  0.8796 -1.8799
13952TIP3    H263272   4.311   2.022  13.818  0.9593  1.4744  1.3360
13953TIP3   OH263273   6.347   3.176   4.240  0.1949 -0.3862 -0.2295
13953TIP3    H163274   6.367   3.261   4.280 -0.1284 -0.6354  0.4951
13953TIP3    H263275   6.294   3.132   4.306  1.2778 -1.5821 -0.1265
13954TIP3   OH263276   3.154   2.095  14.660  0.1259 -0.6937 -0.0343
13954TIP3    H163277   3.190   2.173  14.618 -0.7468 -0.3976 -0.2540
13954TIP3    H263278   3.187   2.098  14.750  0.2619 -0.1768 -0.0983
13955TIP3   OH263279   2.967   0.690  12.509  0.1886  0.0918  0.3452
13955TIP3    H163280   2.892   0.638  12.480  0.4871 -0.4742  0.5852
13955TIP3    H263281   2.972   0.762  12.445 -0.3736 -0.0311  0.1589
13956TIP3   OH263282   1.022   0.417   0.437 -0.4416  0.0028 -0.4962
13956TIP3    H163283   1.114   0.444   0.443 -1.0004  2.1232 -0.5923
13956TIP3    H263284   1.017   0.338   0.491  1.6133 -0.7122 -1.2667
13957TIP3   OH263285   4.491   6.590   2.687 -0.4038  0.2961  0.0784
13957TIP3    H163286   4.477   6.612   2.595  1.4164  0.2734 -0.2475
13957TIP3    H263287   4.561   6.523   2.685  0.7733  1.4127  1.5213
13958TIP3   OH263288   1.763   6.540   3.490 -0.9046  0.2526 -1.0988
13958TIP3    H163289   1.733   6.574   3.406 -0.7664  1.6603 -0.6136
13958TIP3    H263290   1.826   6.605   3.521 -2.0352  0.5526  0.7478
13959TIP3   OH263291   3.959   5.971  16.431  0.2086 -0.5716  0.3649
13959TIP3    H163292   4.044   5.961  16.388  0.2892 -0.6291  0.5382
13959TIP3    H263293   3.912   5.891  16.409  0.4603 -0.8533  0.8598
13960TIP3   OH263294   6.288   2.497  12.244 -0.3601 -0.3038  0.1365
13960TIP3    H163295   6.298   2.516  12.337 -3.2164 -1.7282  0.8784
13960TIP3    H263296   6.297   2.581  12.201  3.6602  0.0354  1.3024
13961TIP3   OH263297   1.602   4.709  12.733  0.5923 -0.1714 -0.0185
13961TIP3    H163298   1.618   4.720  12.827 -0.1040 -1.2823  0.2544
13961TIP3    H263299   1.681   4.666  12.700  0.1002 -1.5061  0.4496
13962TIP3   OH263300   1.713   0.791   1.579  0.4520  1.1289  0.3108
13962TIP3    H163301   1.789   0.797   1.521  1.3227  0.8833  1.3806
13962TIP3    H263302   1.638   0.809   1.523  1.1176 -0.5373 -1.1952
13963TIP3   OH263303   4.228   0.699   5.200 -0.1895 -0.0916 -0.1077
13963TIP3    H163304   4.227   0.793   5.181  0.7729 -0.2046 -0.7838
13963TIP3    H263305   4.281   0.661   5.130 -1.7670 -1.3396 -0.6839
13964TIP3   OH263306   3.158   6.078   5.501 -0.0215  0.0949  0.3695
13964TIP3    H163307   3.234   6.123   5.464  0.4500 -0.6158  0.4554
13964TIP3    H263308   3.112   6.043   5.425  0.0110  0.0947  0.3497
13965TIP3   OH263309   6.163   0.880  10.795  0.2548 -0.2804 -0.1564
13965TIP3    H163310   6.217   0.853  10.720  1.0129 -0.8663  0.5819
13965TIP3    H263311   6.200   0.964  10.822 -1.2067  0.8752 -1.5718
13966TIP3   OH263312   3.629   1.441  13.106 -0.6938  0.0849 -0.0828
13966TIP3    H163313   3.637   1.532  13.076  0.0224 -0.6904 -2.4375
13966TIP3    H263314   3.571   1.446  13.183  0.6516  2.6984  0.8704
13967TIP3   OH263315   5.848   3.463   1.346 -0.6240  0.4133  1.0367
13967TIP3    H163316   5.876   3.452   1.256 -4.0679 -1.1867 -0.0105
13967TIP3    H263317   5.814   3.552   1.350 -0.7648  0.3783  0.6357
13968TIP3   OH263318   3.269   1.157  17.138  0.2874  0.2363 -0.3105
13968TIP3    H163319   3.358   1.191  17.141  0.1509  0.9760 -2.5802
13968TIP3    H263320   3.233   1.192  17.057 -2.0164 -0.2194  0.4377
13969TIP3   OH263321   4.292   1.842  15.322  0.2448 -0.3544 -0.0509
13969TIP3    H163322   4.383   1.819  15.306  0.9439  1.0550  1.6446
13969TIP3    H263323   4.283   1.931  15.289 -1.2605 -1.3019 -2.5236
13970TIP3   OH263324   3.690   2.963   1.478 -0.0983  0.0929 -0.4693
13970TIP3    H163325   3.753   2.981   1.548  0.4722 -0.6998 -0.7620
13970TIP3    H263326   3.608   2.941   1.524  1.0123 -3.4597  0.1495
13971TIP3   OH263327   3.956   1.505  13.578 -0.0350  0.0642 -0.1800
13971TIP3    H163328   3.898   1.479  13.507 -0.3880  0.2152  0.0524
13971TIP3    H263329   3.898   1.521  13.652  0.2465  0.8046 -0.1110
13972TIP3   OH263330   2.909   6.455   5.585 -0.1099  0.3506  0.1575
13972TIP3    H163331   2.987   6.506   5.605 -0.4299  1.2075 -0.6858
13972TIP3    H263332   2.926   6.369   5.621  0.4848  1.0192  1.5502
13973TIP3   OH263333   5.286   1.395  13.342 -0.2485  0.4634  0.5493
13973TIP3    H163334   5.217   1.431  13.286  1.2130  0.6779 -1.2189
13973TIP3    H263335   5.247   1.317  13.381 -1.9453  1.3680  0.7821
13974TIP3   OH263336   1.001   1.505  12.409 -1.2181 -0.3150 -0.3011
13974TIP3    H163337   0.909   1.530  12.396 -1.4304 -0.8939  0.0495
13974TIP3    H263338   1.049   1.588  12.402 -1.9510  0.2898  1.2040
13975TIP3   OH263339   3.660   1.782  15.020  0.4940  0.4520  0.2166
13975TIP3    H163340   3.676   1.688  15.029  1.3541  0.5685 -0.0572
13975TIP3    H263341   3.605   1.804  15.096 -1.0335 -0.5523 -0.5368
13976TIP3   OH263342   4.603   3.850  11.681  0.2426 -0.3850  0.0135
13976TIP3    H163343   4.541   3.854  11.754 -0.7628  3.2900 -0.8793
13976TIP3    H263344   4.577   3.771  11.633 -0.7948 -1.4174  2.1182
13977TIP3   OH263345   6.081   6.610  15.805  0.2358  0.2287  0.2269
13977TIP3    H163346   6.125   6.567  15.878 -0.7226 -2.9762 -0.9155
13977TIP3    H263347   6.117   6.569  15.727  0.4185  2.7661 -1.1270
13978TIP3   OH263348   2.956   3.971  16.922  0.0242  0.0502 -0.1812
13978TIP3    H163349   3.025   3.905  16.930  0.3485 -0.0580 -3.0003
13978TIP3    H263350   2.882   3.934  16.969  0.7367 -1.5389 -0.2425
13979TIP3   OH263351   0.988   0.694   3.323  0.1703  0.1511  0.1619
13979TIP3    H163352   1.025   0.679   3.236  1.4924  2.4993  0.2172
13979TIP3    H263353   0.906   0.741   3.305  0.2104  0.2253  0.1731
13980TIP3   OH263354   0.500   1.929   2.893 -0.2199  0.2809 -0.2986
13980TIP3    H163355   0.549   1.848   2.906  0.9839  0.6367 -2.1640
13980TIP3    H263356   0.449   1.940   2.973  1.7048 -0.8406  1.1593
13981TIP3   OH263357   2.631   0.402   0.601 -0.1487 -0.0563  0.0676
13981TIP3    H163358   2.721   0.434   0.604 -0.3923  0.7583 -0.9813
13981TIP3    H263359   2.582   0.459   0.660  0.2885 -1.5411  1.9918
13982TIP3   OH263360   4.790   0.535   3.693 -0.3598  0.7268 -0.1692
13982TIP3    H163361   4.777   0.629   3.679 -3.5926  0.4036 -0.1918
13982TIP3    H263362   4.807   0.500   3.606  0.9084  1.2536 -0.1542
13983TIP3   OH263363   1.811   5.002  14.649 -0.5561  0.9478  0.0457
13983TIP3    H163364   1.903   4.991  14.672 -0.6125  0.4454  0.0265
13983TIP3    H263365   1.799   4.952  14.568 -1.3909 -1.0137  1.3049
13984TIP3   OH263366   6.363   4.361  14.142  0.9495 -0.1197 -0.3207
13984TIP3    H163367   6.335   4.354  14.234  1.2981  0.2563 -0.1791
13984TIP3    H263368   6.455   4.387  14.148  0.9683 -0.0835 -0.7805
13985TIP3   OH263369   4.516   3.531   3.508 -0.1133  0.2023  0.0350
13985TIP3    H163370   4.558   3.449   3.485  1.2597  0.9957 -0.3950
13985TIP3    H263371   4.438   3.535   3.453 -0.1980 -0.8064  0.0765
13986TIP3   OH263372   6.148   1.272  12.393  0.2288 -0.0829 -0.1839
13986TIP3    H163373   6.118   1.288  12.482 -0.1048 -0.6397 -0.1874
13986TIP3    H263374   6.118   1.349  12.344  0.2795  0.1535  0.1509
13987TIP3   OH263375   6.383   6.004   5.610 -0.3237 -0.4124  1.1532
13987TIP3    H163376   6.399   5.911   5.597 -1.4154 -0.4599 -0.1487
13987TIP3    H263377   6.464   6.038   5.645  1.7286 -1.0654 -2.4469
13988TIP3   OH263378   0.227   0.480  14.022  0.0068  0.2804  0.0786
13988TIP3    H163379   0.216   0.386  14.036  0.1949  0.6145  3.3415
13988TIP3    H263380   0.321   0.495  14.030  0.1091  0.6719 -1.4779
13989TIP3   OH263381   1.678   6.702  15.686 -0.1954 -0.1523 -0.2923
13989TIP3    H163382   1.703   6.722  15.776  0.3366  0.8961 -0.6470
13989TIP3    H263383   1.583   6.715  15.683  0.0168  1.6399 -0.2957
13990TIP3   OH263384   5.362   2.252  10.662  0.3545 -0.0620 -0.1130
13990TIP3    H163385   5.273   2.255  10.628  0.6908  1.4680 -0.9294
13990TIP3    H263386   5.403   2.179  10.617  0.3921  1.1010 -2.0515
13991TIP3   OH263387   1.329   1.647  12.038  0.0130  0.1536 -0.0077
13991TIP3    H163388   1.266   1.577  12.056 -0.9786  0.9291 -0.3369
13991TIP3    H263389   1.369   1.623  11.955  0.2421 -0.4105  0.2644
13992TIP3   OH263390   3.440   4.398   3.369  0.1925 -0.6080  0.1097
13992TIP3    H163391   3.485   4.470   3.324  0.0617 -0.4528  0.2316
13992TIP3    H263392   3.506   4.329   3.373 -0.2225 -1.1807 -1.6576
13993TIP3   OH263393   6.083   3.347  13.812  0.0945 -0.3524  0.0695
13993TIP3    H163394   6.079   3.289  13.888 -0.6188  1.3495  1.3951
13993TIP3    H263395   6.175   3.371  13.803 -0.0198  0.7294  1.4649
13994TIP3   OH263396   4.638   3.001   1.873  0.2794  0.4609 -0.3448
13994TIP3    H163397   4.608   3.092   1.863  0.3942  0.5078 -0.2630
13994TIP3    H263398   4.604   2.957   1.795  2.5528  1.1790 -1.8534
13995TIP3   OH263399   0.073   2.074  16.393  0.4017 -0.9948 -0.2531
13995TIP3    H163400   0.167   2.088  16.406  0.4106 -0.6329 -0.6885
13995TIP3    H263401   0.033   2.155  16.426  0.1654 -1.5460  0.8583
13996TIP3   OH263402   4.860   2.924  16.219  0.7342  0.1256 -0.0060
13996TIP3    H163403   4.883   2.958  16.305 -0.1485  2.5230 -0.6323
13996TIP3    H263404   4.928   2.958  16.160  1.6359 -1.9243 -0.2544
13997TIP3   OH263405   5.254   6.002   1.104  0.1293  0.1415  0.5245
13997TIP3    H163406   5.214   5.947   1.171 -1.4357  0.3546 -0.1912
13997TIP3    H263407   5.273   6.084   1.150  0.0576 -0.0860  0.9692
13998TIP3   OH263408   2.634   0.866  15.412  0.2622  0.4805  0.6012
13998TIP3    H163409   2.604   0.775  15.416  0.7146  0.3116  0.1658
13998TIP3    H263410   2.676   0.874  15.327 -0.8280  1.4302  0.1204
13999TIP3   OH263411   1.804   1.012  12.957 -0.2598  0.4229  0.0083
13999TIP3    H163412   1.859   0.974  13.026  0.1850 -2.8660 -1.9184
13999TIP3    H263413   1.833   1.103  12.951  2.0729 -0.0814  1.8726
14000TIP3   OH263414   2.321   0.217  12.633  0.1375 -0.2705 -0.5088
14000TIP3    H163415   2.409   0.192  12.659  0.3188  1.4965  0.7133
14000TIP3    H263416   2.270   0.136  12.640  1.3969 -1.0547 -0.0928
14001TIP3   OH263417   2.267   5.801  14.271 -0.2781 -0.3522  0.2888
14001TIP3    H163418   2.266   5.894  14.293 -0.2178 -0.4299  0.6307
14001TIP3    H263419   2.357   5.783  14.245 -0.5536 -0.0613 -0.9159
14002TIP3   OH263420   5.047   4.267  15.487 -0.0724  0.1630  0.2133
14002TIP3    H163421   4.967   4.310  15.517  0.4456  1.0833  0.3432
14002TIP3    H263422   5.057   4.295  15.396  0.0273 -0.0662  0.1523
14003TIP3   OH263423   1.463   3.239   3.250 -0.2361  0.4955  0.3649
14003TIP3    H163424   1.548   3.279   3.233 -0.0617 -0.3736 -0.9523
14003TIP3    H263425   1.403   3.313   3.260  0.1487  1.1323 -1.6400
14004TIP3   OH263426   1.255   5.170   6.288 -0.6851  0.4547 -0.0047
14004TIP3    H163427   1.306   5.095   6.318 -0.8607  0.7186  0.9832
14004TIP3    H263428   1.166   5.136   6.276 -0.8417  0.5641  0.7711
14005TIP3   OH263429   5.849   1.529   1.029 -0.4312  0.5404  0.2010
14005TIP3    H163430   5.860   1.532   1.124 -0.4615 -0.9555  0.2753
14005TIP3    H263431   5.926   1.573   0.994 -0.0206  0.3899  0.9087
14006TIP3   OH263432   2.680   1.267   2.910  0.5943  0.4373  0.4109
14006TIP3    H163433   2.702   1.322   2.985  1.4576  0.4867  0.1243
14006TIP3    H263434   2.763   1.248   2.868  0.3567 -1.4053  0.7076
14007TIP3   OH263435   2.449   2.565   5.054  0.1193 -0.1761  0.1178
14007TIP3    H163436   2.508   2.640   5.057 -0.1523  0.0115  2.0618
14007TIP3    H263437   2.362   2.602   5.035  0.2145 -0.1837 -0.3524
14008TIP3   OH263438   2.942   0.678  16.275 -0.4758 -0.3664  0.4273
14008TIP3    H163439   2.862   0.664  16.326 -0.0942 -1.3808  0.7738
14008TIP3    H263440   2.932   0.619  16.200  0.0098 -0.6019  0.5484
14009TIP3   OH263441   2.949   1.870   1.378  0.5856  0.4936 -0.0218
14009TIP3    H163442   3.025   1.812   1.383  2.4136  2.5292 -1.9551
14009TIP3    H263443   2.973   1.945   1.432 -1.4251 -0.1121  1.8365
14010TIP3   OH263444   4.138   5.916  16.189 -0.1941 -0.4505 -0.4007
14010TIP3    H163445   4.127   5.998  16.140 -0.6072 -1.0927 -1.4313
14010TIP3    H263446   4.225   5.922  16.227 -0.6087  0.9045  0.4064
14011TIP3   OH263447   0.678   5.635   5.669  0.3220 -0.2855  0.3917
14011TIP3    H163448   0.593   5.677   5.676  0.3281  0.2228 -1.8904
14011TIP3    H263449   0.741   5.707   5.660  1.0087 -0.6602  1.8489
14012TIP3   OH263450   4.319   2.554  14.311  0.8323 -0.1808  0.0374
14012TIP3    H163451   4.367   2.545  14.228  0.0122 -1.3743 -0.3435
14012TIP3    H263452   4.369   2.618  14.361  0.9569  1.1148 -1.6502
14013TIP3   OH263453   6.174   4.594  12.580 -0.4184  0.0453  0.6475
14013TIP3    H163454   6.101   4.626  12.528  0.0160  1.2130  0.7198
14013TIP3    H263455   6.134   4.537  12.645 -1.1939  0.1665  0.2843
14014TIP3   OH263456   0.444   4.952   1.743  0.2975 -0.0982 -0.3127
14014TIP3    H163457   0.386   5.026   1.724  1.6656  1.5150  1.3935
14014TIP3    H263458   0.530   4.991   1.754  0.8145 -1.7086  2.1742
14015TIP3   OH263459   3.192   4.838  17.126 -0.1132  0.1109  0.3748
14015TIP3    H163460   3.251   4.777  17.081 -0.3932  0.7817 -0.9354
14015TIP3    H263461   3.192   4.916  17.072 -2.0334  0.2257  0.4714
14016TIP3   OH263462   2.544   2.436  16.335  0.1598  0.7424  0.0654
14016TIP3    H163463   2.560   2.353  16.291 -0.5440  0.1035  0.9686
14016TIP3    H263464   2.480   2.415  16.403  0.5984  1.8561  0.8513
14017TIP3   OH263465   0.677   4.659  11.965 -0.2777 -0.5634  0.5742
14017TIP3    H163466   0.680   4.734  11.904  0.9689 -0.0286  1.2485
14017TIP3    H263467   0.735   4.685  12.037  0.1706 -2.1833  0.8282
14018TIP3   OH263468   1.692   4.322  12.926  0.1812 -0.2647  0.1359
14018TIP3    H163469   1.630   4.383  12.966  0.9450  1.1416 -0.7123
14018TIP3    H263470   1.778   4.361  12.941  0.8417 -1.8779  0.7837
14019TIP3   OH263471   5.362   4.334   0.123 -0.4114  0.1453 -0.4687
14019TIP3    H163472   5.440   4.318   0.070  0.8798  0.1861  1.3144
14019TIP3    H263473   5.353   4.430   0.124  0.3345  0.2220  0.3872
14020TIP3   OH263474   0.732   0.789   3.668 -0.5539 -0.1454 -0.4767
14020TIP3    H163475   0.732   0.872   3.717  1.9303  0.1375 -0.8375
14020TIP3    H263476   0.650   0.747   3.693 -0.5152  1.0801  2.0496
14021TIP3   OH263477   5.549   5.512  14.202  0.6266 -0.4708  0.1083
14021TIP3    H163478   5.561   5.460  14.281  1.7836  0.7688  0.7866
14021TIP3    H263479   5.519   5.449  14.136  0.1458 -1.6181  1.3800
14022TIP3   OH263480   6.668   1.542  11.794  0.1353  0.7810  0.1820
14022TIP3    H163481   6.741   1.603  11.797  0.6691  0.0968  1.4808
14022TIP3    H263482   6.684   1.490  11.716  0.0394  1.8153 -0.5591
14023TIP3   OH263483   3.601   3.713   3.439  0.2734  0.0288 -0.0332
14023TIP3    H163484   3.601   3.655   3.363  0.9950 -1.1400  0.8240
14023TIP3    H263485   3.653   3.667   3.505 -0.6144  0.8491  1.3020
14024TIP3   OH263486   1.578   6.677   3.259 -0.6799 -0.5579  0.3352
14024TIP3    H163487   1.488   6.680   3.292 -0.8948  5.0787  0.1395
14024TIP3    H263488   1.625   6.744   3.308  2.2265 -0.1928 -2.5675
14025TIP3   OH263489   5.114   5.538   2.493  0.0933  0.3721  0.2232
14025TIP3    H163490   5.208   5.525   2.505  0.0479  0.5582  0.7997
14025TIP3    H263491   5.081   5.562   2.579 -0.5604 -0.1172  0.1222
14026TIP3   OH263492   0.994   1.237   0.951  0.2178 -0.1042  0.2684
14026TIP3    H163493   0.955   1.292   0.884 -0.1519  0.7802  1.1893
14026TIP3    H263494   0.961   1.272   1.034  2.9671  0.7707  1.1212
14027TIP3   OH263495   0.117   3.644   0.750  0.4643 -0.3950  0.7177
14027TIP3    H163496   0.099   3.718   0.693 -0.8445 -0.4620  1.0282
14027TIP3    H263497   0.130   3.683   0.837 -1.4313 -0.5933  1.1261
14028TIP3   OH263498   1.964   1.968   4.352 -0.5195 -0.0203  0.0286
14028TIP3    H163499   1.907   2.031   4.307  0.6159  0.6057 -0.5558
14028TIP3    H263500   1.905   1.896   4.376 -1.6476  0.8255 -0.1380
14029TIP3   OH263501   3.281   3.780  12.528  0.0389 -0.2888  0.0457
14029TIP3    H163502   3.315   3.789  12.617  1.6722 -0.0292 -0.5646
14029TIP3    H263503   3.301   3.689  12.504 -0.6687 -0.4490  0.0414
14030TIP3   OH263504   4.312   5.605   1.129 -0.1090 -0.1790  0.3548
14030TIP3    H163505   4.390   5.628   1.179 -0.2034 -0.3882  0.6051
14030TIP3    H263506   4.345   5.581   1.043 -0.1196  2.1545 -0.3613
14031TIP3   OH263507   2.449   0.140  16.588  0.4979  0.1667  0.1454
14031TIP3    H163508   2.535   0.114  16.555  0.6246 -0.2330  0.7623
14031TIP3    H263509   2.444   0.099  16.675 -0.0521  0.7123  0.3773
14032TIP3   OH263510   4.820   0.728   4.859  0.1326 -0.8609  0.5095
14032TIP3    H163511   4.890   0.777   4.902  0.7614  0.0859 -1.4460
14032TIP3    H263512   4.747   0.790   4.853  1.1166  0.2121 -2.4694
14033TIP3   OH263513   2.399   4.195   3.180  0.3427  0.7341 -0.3599
14033TIP3    H163514   2.460   4.136   3.136  1.1447 -0.2887  1.9954
14033TIP3    H263515   2.432   4.203   3.269 -2.4302  0.9211  0.7622
14034TIP3   OH263516   1.298   6.132   0.539  0.1943 -0.1299 -0.1468
14034TIP3    H163517   1.333   6.046   0.561  0.9061  0.3088  0.4857
14034TIP3    H263518   1.319   6.143   0.446  3.7914  1.0064  0.6670
14035TIP3   OH263519   2.486   5.311  17.200  0.3807  0.3435  0.1188
14035TIP3    H163520   2.454   5.222  17.180 -1.6840  1.4924 -2.2381
14035TIP3    H263521   2.567   5.319  17.150 -0.1129  0.1790 -0.7379
14036TIP3   OH263522   1.159   1.814   1.473 -0.1458 -0.0038 -0.3996
14036TIP3    H163523   1.101   1.765   1.415 -0.8774  0.2473  0.1080
14036TIP3    H263524   1.164   1.901   1.435  0.4377 -0.2116 -0.8088
14037TIP3   OH263525   2.067   6.358   1.694 -0.6000  0.3094  0.2995
14037TIP3    H163526   2.083   6.321   1.780  4.1730  2.0020  0.4579
14037TIP3    H263527   2.060   6.452   1.709  0.2459  0.6322 -1.0942
14038TIP3   OH263528   4.356   4.986  15.351 -0.1115 -0.1457 -0.3702
14038TIP3    H163529   4.342   4.955  15.262 -0.9426 -0.9618  0.0288
14038TIP3    H263530   4.347   5.081  15.345  1.8100  0.0219 -1.4942
14039TIP3   OH263531   2.817   5.250   3.735  0.3314 -0.1295  0.3261
14039TIP3    H163532   2.787   5.194   3.664 -0.1517  0.2784  0.2054
14039TIP3    H263533   2.888   5.302   3.697 -0.0309  0.2006  0.0893
14040TIP3   OH263534   0.083   6.300   2.586 -0.5599  0.0007 -0.3054
14040TIP3    H163535   0.089   6.240   2.512 -0.7768 -0.4909  0.0696
14040TIP3    H263536   0.025   6.369   2.556  0.9757  0.9068 -1.3282
14041TIP3   OH263537   1.871   3.824  12.472 -0.2092  0.0686 -0.2090
14041TIP3    H163538   1.836   3.804  12.385 -1.4362  1.2825 -0.0218
14041TIP3    H263539   1.817   3.896  12.504  1.1548  0.6093  0.9760
14042TIP3   OH263540   2.632   4.409   2.604 -0.2756 -0.0034  0.0445
14042TIP3    H163541   2.674   4.485   2.643 -1.2011  1.0583 -0.9153
14042TIP3    H263542   2.700   4.342   2.601  0.8139  1.0572  0.1803
14043TIP3   OH263543   6.521   2.814   2.881  0.9362 -0.1923 -0.0657
14043TIP3    H163544   6.585   2.830   2.812  1.5331 -1.3120  0.2014
14043TIP3    H263545   6.436   2.815   2.837  1.2975 -0.7024 -0.7823
14044TIP3   OH263546   0.793   4.024  11.708 -0.3875  0.0862 -0.5752
14044TIP3    H163547   0.749   3.973  11.775  0.7191 -0.1099  0.0335
14044TIP3    H263548   0.723   4.062  11.656 -1.2491 -0.7028 -0.0184
14045TIP3   OH263549   6.431   0.404   4.376 -0.4348 -0.5624 -0.3324
14045TIP3    H163550   6.371   0.470   4.409  0.3988 -0.2654  0.6508
14045TIP3    H263551   6.425   0.332   4.440  0.2338 -0.5300 -0.2215
14046TIP3   OH263552   5.712   3.318   1.507 -0.3267  0.6506  0.1830
14046TIP3    H163553   5.753   3.385   1.451 -1.6313  1.1732 -0.2081
14046TIP3    H263554   5.728   3.236   1.462 -1.4366  1.0756 -1.0794
14047TIP3   OH263555   2.477   5.967   1.625  0.3008  0.3951  0.2187
14047TIP3    H163556   2.435   5.888   1.590 -0.1080  0.5370  0.3767
14047TIP3    H263557   2.528   5.935   1.700  1.0974  0.1093 -0.4369
14048TIP3   OH263558   3.582   3.164   1.880 -0.0462  0.0897  0.1483
14048TIP3    H163559   3.594   3.072   1.858 -0.8516 -0.1236  0.5860
14048TIP3    H263560   3.493   3.170   1.915 -0.0381  1.0471  0.0438
14049TIP3   OH263561   1.110   6.536   4.734  0.9820 -0.2051  0.1625
14049TIP3    H163562   1.099   6.584   4.652  1.7666  1.3865  0.9479
14049TIP3    H263563   1.193   6.490   4.724  1.7528  1.0635  0.5474
14050TIP3   OH263564   0.535   2.190   1.199 -0.0748  0.1496 -0.2385
14050TIP3    H163565   0.467   2.253   1.175  0.2481  0.0433 -1.5284
14050TIP3    H263566   0.492   2.130   1.260 -0.3239  1.7119  1.2083
14051TIP3   OH263567   0.311   6.344   5.071 -0.1216 -0.5229  0.0400
14051TIP3    H163568   0.274   6.429   5.047  1.0020 -0.3824 -1.3212
14051TIP3    H263569   0.404   6.352   5.050 -0.2983 -2.6824 -1.9111
14052TIP3   OH263570   2.320   0.157   1.647  0.2603 -0.4513  0.3513
14052TIP3    H163571   2.409   0.182   1.621 -0.4007  0.0699 -1.5852
14052TIP3    H263572   2.306   0.073   1.602 -0.0458 -0.8169  1.1151
14053TIP3   OH263573   1.422   5.506   4.631 -0.2626 -0.3913 -0.3853
14053TIP3    H163574   1.449   5.566   4.701 -0.2384  1.4279 -1.8795
14053TIP3    H263575   1.333   5.533   4.610  1.0590  1.9541 -3.7890
14054TIP3   OH263576   1.709   3.652   4.188 -0.5369  0.3304 -0.5487
14054TIP3    H163577   1.713   3.695   4.273 -2.9619 -0.5063  0.0751
14054TIP3    H263578   1.615   3.642   4.171 -0.0861 -1.8340 -2.1363
14055TIP3   OH263579   4.712   6.300  12.589  0.4264 -0.7475 -0.3039
14055TIP3    H163580   4.652   6.226  12.581 -0.6116  0.1856 -1.6523
14055TIP3    H263581   4.669   6.359  12.650  0.7446 -0.7647 -0.0593
14056TIP3   OH263582   0.905   2.371  12.581 -0.3407 -0.1973 -0.6727
14056TIP3    H163583   0.930   2.352  12.672 -0.6736  0.5764 -0.4048
14056TIP3    H263584   0.821   2.416  12.589 -0.3003  0.0095 -1.3602
14057TIP3   OH263585   0.942   6.665   4.914  0.4910  0.7290  0.6177
14057TIP3    H163586   0.994   6.634   4.840  0.7855 -0.4585  1.2869
14057TIP3    H263587   1.004   6.715   4.967  0.1534  2.0323 -0.1762
14058TIP3   OH263588   5.154   2.435  15.743 -0.2391 -0.3529  0.0601
14058TIP3    H163589   5.217   2.376  15.702 -0.1423 -0.9851  1.0996
14058TIP3    H263590   5.069   2.396  15.722 -0.2241 -0.3070 -0.0917
14059TIP3   OH263591   5.508   0.863   0.384 -0.5138 -0.4625  0.0624
14059TIP3    H163592   5.535   0.799   0.318  0.1562 -0.9307  0.7671
14059TIP3    H263593   5.431   0.824   0.425  0.0224 -0.9335  0.6390
14060TIP3   OH263594   0.291   3.525  11.412  0.4339  0.5201 -0.1198
14060TIP3    H163595   0.292   3.434  11.382  1.4360  0.5356 -0.1463
14060TIP3    H263596   0.270   3.520  11.505 -3.0414  0.4861 -0.7618
14061TIP3   OH263597   5.642   2.045   5.838  0.1186 -0.1288  0.9521
14061TIP3    H163598   5.652   1.981   5.909  2.5038 -2.3683 -1.1997
14061TIP3    H263599   5.583   2.003   5.776 -1.6287  1.6394  1.3409
14062TIP3   OH263600   0.957   0.323  12.983 -0.5578 -0.4337 -0.0597
14062TIP3    H163601   0.942   0.230  13.004 -0.2699 -0.3140  0.7141
14062TIP3    H263602   0.898   0.370  13.041 -0.3005 -0.1146 -0.0577
14063TIP3   OH263603   5.334   6.362   3.135 -0.0181  0.5055  0.4212
14063TIP3    H163604   5.389   6.315   3.072 -1.4596 -1.3282  0.4674
14063TIP3    H263605   5.284   6.424   3.082  1.7445  1.9352  0.3334
14064TIP3   OH263606   4.673   0.959   4.865  0.1511  0.2412  0.1603
14064TIP3    H163607   4.584   0.967   4.829 -0.7452 -0.6868  2.0139
14064TIP3    H263608   4.674   1.020   4.938  1.2510  0.6389 -0.1750
14065TIP3   OH263609   5.858   5.435   6.107  0.4566  0.6866 -0.5584
14065TIP3    H163610   5.782   5.492   6.120  0.7745  1.0179 -0.1438
14065TIP3    H263611   5.879   5.445   6.014  0.0184  0.6260 -0.6656
14066TIP3   OH263612   1.000   4.883  15.901 -0.0099 -0.0574  0.6705
14066TIP3    H163613   1.095   4.891  15.899  0.1820 -1.6144 -1.9969
14066TIP3    H263614   0.968   4.967  15.868  0.7504 -0.9631 -2.7875
14067TIP3   OH263615   6.507   3.070   4.555  0.1091 -0.0906 -0.1249
14067TIP3    H163616   6.526   3.163   4.568  0.7605 -0.0612 -1.1871
14067TIP3    H263617   6.535   3.052   4.465 -4.3485 -0.2077 -1.7337
14068TIP3   OH263618   2.319   1.720   1.468 -0.0216 -0.0848 -0.0821
14068TIP3    H163619   2.393   1.660   1.454  0.1530  0.4779 -1.7829
14068TIP3    H263620   2.245   1.676   1.427 -0.5641 -0.4263  1.2093
14069TIP3   OH263621   4.798   3.178   1.544 -0.1203  0.0325 -0.0490
14069TIP3    H163622   4.892   3.175   1.564 -0.3663 -0.7771  1.0849
14069TIP3    H263623   4.777   3.271   1.541  0.3800  0.2201  1.4959
14070TIP3   OH263624   6.491   5.097  16.915 -0.0218 -0.2468  0.2893
14070TIP3    H163625   6.463   5.189  16.922 -0.7083 -0.5498  2.3702
14070TIP3    H263626   6.471   5.060  17.001  1.3474 -2.0579 -0.1249
14071TIP3   OH263627   4.708   2.045  11.944  0.0003  0.0231  0.3875
14071TIP3    H163628   4.797   2.066  11.916  0.5215 -0.4673  1.6284
14071TIP3    H263629   4.718   2.008  12.031 -1.4660  0.4158  0.7531
14072TIP3   OH263630   3.550   1.485  12.217  0.0141  0.0814 -0.5338
14072TIP3    H163631   3.493   1.553  12.182  0.1907  1.1163  1.0607
14072TIP3    H263632   3.523   1.405  12.173 -1.6554  0.8071 -0.8919
14073TIP3   OH263633   2.060   5.612   4.022 -0.2664 -0.4258 -0.3357
14073TIP3    H163634   2.017   5.693   3.996 -1.1398 -0.7995 -0.1177
14073TIP3    H263635   2.143   5.612   3.974 -0.2899  0.5479 -0.3972
14074TIP3   OH263636   5.785   4.155  16.930  0.3535  0.1962  0.4345
14074TIP3    H163637   5.784   4.154  16.835 -2.8207 -0.0532  0.3596
14074TIP3    H263638   5.869   4.195  16.953  1.4490 -0.2540 -2.4147
14075TIP3   OH263639   5.301   3.157   3.395  0.9567 -0.3376 -0.7733
14075TIP3    H163640   5.313   3.250   3.416 -1.7511 -0.0838  0.0611
14075TIP3    H263641   5.253   3.158   3.312  0.2145 -0.9524 -0.3580
14076TIP3   OH263642   5.207   0.199  12.944  0.8919  0.4502  0.5095
14076TIP3    H163643   5.159   0.145  13.007  1.8171 -0.3826  0.5149
14076TIP3    H263644   5.263   0.254  12.999 -0.0299  1.4538  0.5049
14077TIP3   OH263645   3.274   3.478   5.385 -0.4279  0.1384 -0.6335
14077TIP3    H163646   3.305   3.504   5.298  1.1523  1.8702  0.3603
14077TIP3    H263647   3.347   3.429   5.423 -0.4991  0.6618  0.2206
14078TIP3   OH263648   2.494   6.590   5.597  0.0721 -0.7393 -0.5337
14078TIP3    H163649   2.425   6.611   5.534 -0.5103 -1.2931 -0.0905
14078TIP3    H263650   2.483   6.497   5.615  0.7426 -0.7652 -0.2223
14079TIP3   OH263651   2.906   0.477  12.691 -0.3818  0.6291  0.0229
14079TIP3    H163652   2.993   0.466  12.729 -0.5347  1.7778  0.7605
14079TIP3    H263653   2.865   0.546  12.743 -0.3044  2.9149 -2.6836
14080TIP3   OH263654   2.631   2.085  14.134  0.0003  0.2169  0.3847
14080TIP3    H163655   2.679   2.164  14.158 -1.6952  1.7930 -1.0441
14080TIP3    H263656   2.539   2.106  14.152 -0.5299 -1.3071 -0.3242
14081TIP3   OH263657   1.255   3.491  12.702 -0.6845 -0.0844 -0.2715
14081TIP3    H163658   1.221   3.569  12.658  0.8071 -0.1691 -1.6646
14081TIP3    H263659   1.340   3.517  12.737 -0.4441 -0.9104 -0.2101
14082TIP3   OH263660   2.957   3.652  11.840  0.6432 -0.2165 -0.2050
14082TIP3    H163661   3.042   3.673  11.801  1.0711 -1.6304 -0.0853
14082TIP3    H263662   2.920   3.584  11.784  0.2387 -0.6306  0.5386
14083TIP3   OH263663   1.918   5.284   5.582  0.4877 -0.0650 -0.0036
14083TIP3    H163664   1.984   5.294   5.651  1.9514 -2.5194 -0.9182
14083TIP3    H263665   1.927   5.362   5.527  1.3637  0.4815  0.8915
14084TIP3   OH263666   6.532   2.869   5.001  0.0478  0.4853 -0.1339
14084TIP3    H163667   6.569   2.787   5.034 -1.2711 -0.0555  0.0568
14084TIP3    H263668   6.461   2.889   5.061 -1.1040  0.5620 -1.4729
14085TIP3   OH263669   4.808   4.207  15.686  0.0601  0.2130 -0.1439
14085TIP3    H163670   4.882   4.248  15.732  1.0957  0.0944 -1.6276
14085TIP3    H263671   4.804   4.118  15.721  0.7059  0.1876 -0.1252
14086TIP3   OH263672   1.178   0.834  11.149  0.0626 -0.8576 -0.2590
14086TIP3    H163673   1.224   0.810  11.069 -1.3057 -1.0421 -1.0157
14086TIP3    H263674   1.086   0.841  11.123 -0.1504  1.1989  0.8299
14087TIP3   OH263675   1.391   4.241   1.620 -0.1118  0.1477  0.3991
14087TIP3    H163676   1.306   4.281   1.602 -0.2303  0.0840  0.8051
14087TIP3    H263677   1.407   4.259   1.712  0.7599  0.9800  0.0928
14088TIP3   OH263678   1.858   4.019   1.848 -0.0890  0.1169  0.4309
14088TIP3    H163679   1.943   3.991   1.882 -0.3165 -2.3080 -0.7980
14088TIP3    H263680   1.880   4.071   1.770  0.2905  0.3478  0.6918
14089TIP3   OH263681   5.265   0.513   4.816  0.6925  0.2386 -0.8114
14089TIP3    H163682   5.285   0.420   4.828  0.2094  0.2862  0.5236
14089TIP3    H263683   5.170   0.516   4.803  0.5708  0.6241  0.1262
14090TIP3   OH263684   0.278   1.779   4.527 -0.1724 -1.0577  0.1362
14090TIP3    H163685   0.231   1.740   4.601  0.7996 -1.6660  0.4595
14090TIP3    H263686   0.338   1.842   4.567  0.4962 -1.5323 -0.1095
14091TIP3   OH263687   5.649   0.388  12.464 -0.4456 -0.3142  0.1595
14091TIP3    H163688   5.714   0.370  12.532 -0.4720  0.5535  0.4264
14091TIP3    H263689   5.693   0.446  12.402 -0.4623 -0.9985 -0.5131
14092TIP3   OH263690   6.056   6.631   0.514  0.3732 -0.1151  0.0867
14092TIP3    H163691   6.105   6.569   0.461 -0.9367 -0.6629 -0.5191
14092TIP3    H263692   6.101   6.631   0.598  1.6813 -0.2358 -0.5976
14093TIP3   OH263693   6.400   0.167  15.416 -0.4465 -0.3743 -0.2136
14093TIP3    H163694   6.374   0.176  15.508 -3.0990  0.3021 -0.9191
14093TIP3    H263695   6.440   0.252  15.395 -0.4685 -0.2722  0.1405
14094TIP3   OH263696   4.132   4.674   2.975 -0.0848 -0.1524  0.0376
14094TIP3    H163697   4.213   4.656   3.023  0.6152 -0.3271 -1.1918
14094TIP3    H263698   4.157   4.733   2.905 -1.1037  0.1056 -0.1299
14095TIP3   OH263699   5.179   5.964   3.472 -0.1011  0.4994  0.0139
14095TIP3    H163700   5.114   6.033   3.489 -0.7896 -0.2007  0.3304
14095TIP3    H263701   5.249   5.981   3.535 -1.0407 -0.0511  1.2562
14096TIP3   OH263702   0.685   4.632  13.281  0.3500 -0.1479 -0.1214
14096TIP3    H163703   0.770   4.673  13.263  1.3277 -2.5014 -1.3645
14096TIP3    H263704   0.685   4.618  13.376  0.0603  2.3794  0.3161
14097TIP3   OH263705   3.551   0.538  16.830  0.0590  0.1649 -0.6844
14097TIP3    H163706   3.573   0.486  16.753 -1.6749 -0.7019 -0.6565
14097TIP3    H263707   3.463   0.572  16.811 -0.1379  0.4568  0.6390
14098TIP3   OH263708   6.231   3.089  13.558 -0.1187  0.4381  0.0310
14098TIP3    H163709   6.204   2.998  13.550 -0.9114  0.7641 -1.2509
14098TIP3    H263710   6.326   3.088  13.543  0.1198 -0.3211  1.4132
14099TIP3   OH263711   3.822   4.636   2.170  0.2612  0.5474 -0.4860
14099TIP3    H163712   3.906   4.591   2.183  0.1218  0.7309  1.2620
14099TIP3    H263713   3.836   4.691   2.092  1.8915  0.8727 -0.0019
14100TIP3   OH263714   0.775   0.726  15.505  0.7333  0.2173 -0.0568
14100TIP3    H163715   0.821   0.732  15.588 -0.8863  0.2061  0.8897
14100TIP3    H263716   0.815   0.653  15.459  0.4974 -0.9037  1.4779
14101TIP3   OH263717   3.181   3.612  13.731 -0.2380 -0.0835 -0.3085
14101TIP3    H163718   3.228   3.557  13.669 -2.7353 -0.2472 -2.1982
14101TIP3    H263719   3.235   3.691  13.739  1.0712 -0.8507 -1.1902
14102TIP3   OH263720   5.658   3.383  14.646  0.0608 -0.0236  0.3630
14102TIP3    H163721   5.606   3.334  14.582  0.9587  0.7061 -0.9741
14102TIP3    H263722   5.648   3.334  14.728 -0.3443 -1.5332 -0.5533
14103TIP3   OH263723   3.219   0.634  16.298 -0.1866  0.1095  0.2020
14103TIP3    H163724   3.216   0.628  16.203 -2.1088  1.3801  0.1122
14103TIP3    H263725   3.131   0.663  16.323  0.6303  1.0478  2.2665
14104TIP3   OH263726   4.088   1.225  14.246  0.0740  0.4394 -0.1809
14104TIP3    H163727   4.014   1.216  14.307 -0.4338  0.8317 -0.7302
14104TIP3    H263728   4.048   1.221  14.159  0.7525  0.2635 -0.4909
14105TIP3   OH263729   0.389   0.870   1.213  0.3437 -0.0054  0.3503
14105TIP3    H163730   0.377   0.880   1.307  0.8028 -0.6876  0.4939
14105TIP3    H263731   0.426   0.953   1.184 -1.9648  1.0945  0.3476
14106TIP3   OH263732   0.234   2.659   1.454  0.1910  0.3162  0.1799
14106TIP3    H163733   0.231   2.748   1.488 -0.8493  1.6467 -2.9732
14106TIP3    H263734   0.325   2.648   1.427  0.3092  0.4464  0.5155
14107TIP3   OH263735   3.414   0.046  12.961  0.0917 -0.4619 -0.0481
14107TIP3    H163736   3.468   0.018  13.035  1.7383  0.0059 -1.0175
14107TIP3    H263737   3.445   0.134  12.941 -0.4713 -0.4914 -1.1431
14108TIP3   OH263738   5.407   6.609  12.480  0.6488 -0.7000  0.0008
14108TIP3    H163739   5.327   6.572  12.443  1.1374 -0.9737 -0.8237
14108TIP3    H263740   5.411   6.698  12.444  0.6376 -0.6382  0.1531
14109TIP3   OH263741   5.714   0.438  15.570 -0.3843 -0.1795  0.1360
14109TIP3    H163742   5.710   0.364  15.630  0.4969 -1.0503 -0.8314
14109TIP3    H263743   5.682   0.403  15.487 -0.7488  0.7556 -0.1288
14110TIP3   OH263744   1.449   3.895  16.576 -0.0245  0.5894  0.4929
14110TIP3    H163745   1.433   3.921  16.667  1.8192  0.4805  0.8803
14110TIP3    H263746   1.441   3.800  16.576 -0.6785  0.6400  0.3876
14111TIP3   OH263747   5.493   6.763   3.213 -0.2003  0.2252 -0.2749
14111TIP3    H163748   5.571   6.775   3.268  0.0746  1.8592 -0.9600
14111TIP3    H263749   5.460   6.676   3.237  1.8816 -0.5606 -0.0477
14112TIP3   OH263750   6.332   3.229   2.232  1.0994  0.6098 -0.5441
14112TIP3    H163751   6.358   3.291   2.164 -1.2679  0.0683 -2.0486
14112TIP3    H263752   6.248   3.194   2.202  1.1755 -1.5170  1.4584
14113TIP3   OH263753   3.782   4.802   5.309  0.7805  0.1554 -0.4370
14113TIP3    H163754   3.747   4.728   5.358  0.4810  0.4155 -0.2495
14113TIP3    H263755   3.753   4.788   5.219 -0.1855  0.5940 -0.2007
14114TIP3   OH263756   5.995   3.057   2.740 -0.3346  0.4250  0.7075
14114TIP3    H163757   5.997   2.962   2.728 -1.3103  0.5084 -0.2257
14114TIP3    H263758   5.937   3.070   2.816  2.6339  0.1258  3.2149
14115TIP3   OH263759   0.408   5.876  16.280 -0.4267  0.1616 -0.1501
14115TIP3    H163760   0.428   5.936  16.208 -1.3914  1.3582  0.5390
14115TIP3    H263761   0.474   5.807  16.273  0.2481  0.9008 -1.4257
14116TIP3   OH263762   4.216   3.715  14.831 -0.2509 -0.4716 -0.2599
14116TIP3    H163763   4.206   3.728  14.925  3.6567 -1.7763  0.5230
14116TIP3    H263764   4.245   3.800  14.798 -1.7956  0.0356 -0.3650
14117TIP3   OH263765   0.788   2.325   2.656 -0.2359 -0.1497  0.3949
14117TIP3    H163766   0.695   2.310   2.637  0.1985 -0.9445 -1.2586
14117TIP3    H263767   0.807   2.268   2.730 -0.3214 -2.6347 -1.3475
14118TIP3   OH263768   5.291   5.036   5.658 -0.1122  0.1693 -0.0553
14118TIP3    H163769   5.349   5.020   5.732  0.0805  1.9833  0.2288
14118TIP3    H263770   5.221   5.091   5.694 -2.2378 -2.1733 -0.3168
14119TIP3   OH263771   3.232   5.705   3.693 -0.2298  0.0601  0.0100
14119TIP3    H163772   3.260   5.777   3.749  0.4792  0.2134 -0.5188
14119TIP3    H263773   3.256   5.733   3.605 -3.1678  0.7140 -0.6630
14120TIP3   OH263774   1.578   5.459   2.706 -0.4370 -0.0789  0.1800
14120TIP3    H163775   1.488   5.478   2.733 -0.8953 -1.0527 -0.6116
14120TIP3    H263776   1.607   5.389   2.764  0.5225  1.5034  1.7128
14121TIP3   OH263777   4.829   1.958  16.976 -0.0468 -0.0210  0.5643
14121TIP3    H163778   4.844   1.983  17.067 -1.1464 -0.3744  0.8600
14121TIP3    H263779   4.736   1.937  16.972  0.1378 -0.7139 -0.4805
14122TIP3   OH263780   1.398   1.804  12.263 -0.3627 -0.3286 -0.0814
14122TIP3    H163781   1.381   1.756  12.182 -0.3974 -1.4397  0.5611
14122TIP3    H263782   1.459   1.748  12.311  0.2853  0.6947  0.3155
14123TIP3   OH263783   2.789   5.316   4.299 -1.1985  0.3436  0.4247
14123TIP3    H163784   2.858   5.273   4.248 -1.4610 -0.1275  0.4621
14123TIP3    H263785   2.711   5.262   4.284 -1.2265  0.0640  1.5148
14124TIP3   OH263786   2.783   3.251  10.910 -0.5324  0.5996 -0.2529
14124TIP3    H163787   2.688   3.243  10.918 -0.3888 -1.3212 -0.1645
14124TIP3    H263788   2.796   3.294  10.825 -1.4647 -0.3536 -0.9090
14125TIP3   OH263789   6.697   4.390  11.304 -0.2844 -0.6418  0.3473
14125TIP3    H163790   6.611   4.432  11.299 -0.7538 -0.9303  3.4776
14125TIP3    H263791   6.758   4.459  11.279 -1.3718 -0.2655 -1.4141
14126TIP3   OH263792   2.258   3.641  16.567  0.4133  0.5468 -0.4561
14126TIP3    H163793   2.207   3.695  16.628  0.0998 -1.0034  0.7107
14126TIP3    H263794   2.198   3.625  16.494 -0.0545  0.4526 -0.0606
14127TIP3   OH263795   1.616   2.916  17.035  0.3016  0.4608  0.0461
14127TIP3    H163796   1.598   2.991  17.091 -0.0014  1.1049 -0.8822
14127TIP3    H263797   1.697   2.878  17.069  0.7007  1.4753  0.2556
14128TIP3   OH263798   3.194   3.059   0.633  0.3794 -0.1414 -0.0125
14128TIP3    H163799   3.203   2.966   0.611  0.8676  0.2053 -1.4344
14128TIP3    H263800   3.238   3.105   0.561  0.1759  1.1942  0.6760
14129TIP3   OH263801   1.100   0.374   0.948 -0.1278  0.6018  0.7180
14129TIP3    H163802   1.128   0.348   1.035  0.1068  0.5255  0.6201
14129TIP3    H263803   1.112   0.469   0.946  0.6595  0.5059  0.4889
14130TIP3   OH263804   5.645   6.137   4.993  0.2218 -0.0584  0.7640
14130TIP3    H163805   5.648   6.226   4.956  0.9575  0.0782  1.1306
14130TIP3    H263806   5.602   6.148   5.078 -1.5346 -0.3839 -0.0616
14131TIP3   OH263807   1.230   2.209  15.639  0.0434  0.2938  0.4288
14131TIP3    H163808   1.165   2.184  15.574  1.0688  0.4082 -0.6739
14131TIP3    H263809   1.314   2.193  15.596  0.9314 -3.2875  2.9633
14132TIP3   OH263810   1.398   3.715   5.779 -0.2812 -0.4204 -0.2087
14132TIP3    H163811   1.305   3.704   5.760 -0.3190 -1.2826  0.4182
14132TIP3    H263812   1.412   3.665   5.859  1.1050 -1.9614 -1.3403
14133TIP3   OH263813   0.094   1.379   2.811  0.3530 -0.1363  0.4787
14133TIP3    H163814   0.006   1.343   2.794 -0.3712  1.7015  0.1499
14133TIP3    H263815   0.081   1.473   2.816  2.1280  0.0876  1.7286
14134TIP3   OH263816   4.581   5.595  14.080  0.4163 -0.1853 -0.8922
14134TIP3    H163817   4.512   5.624  14.140  0.6876  0.4216 -0.8772
14134TIP3    H263818   4.537   5.529  14.025  0.2833 -1.1346  0.2839
14135TIP3   OH263819   2.408   4.261  15.029  0.2585 -0.2284  0.7798
14135TIP3    H163820   2.422   4.256  14.935  1.2515 -2.2394  0.9821
14135TIP3    H263821   2.314   4.271  15.039  0.1813  0.3704 -0.4228
14136TIP3   OH263822   1.281   4.801  12.999 -0.2185  0.4057 -0.5119
14136TIP3    H163823   1.272   4.748  13.078  0.5277 -0.4131 -0.9543
14136TIP3    H263824   1.257   4.889  13.026  0.3028  0.1948  0.6906
14137TIP3   OH263825   1.048   1.192   6.043  0.6528  0.0704  0.9267
14137TIP3    H163826   1.085   1.185   6.131 -0.5554 -1.4718  1.3749
14137TIP3    H263827   1.089   1.121   5.994  1.8778  1.3710 -0.0296
14138TIP3   OH263828   4.194   0.730  14.938 -0.1097  0.3054 -0.9428
14138TIP3    H163829   4.240   0.693  15.014 -2.2655 -1.7520 -0.5017
14138TIP3    H263830   4.227   0.819  14.931  0.4475  0.4708  2.2064
14139TIP3   OH263831   5.270   0.587  13.314 -0.1794  0.4864  0.0640
14139TIP3    H163832   5.207   0.547  13.374  0.4213  2.2546  1.9734
14139TIP3    H263833   5.355   0.562  13.348  0.1758  1.1901 -0.2877
14140TIP3   OH263834   4.514   6.175  15.159  0.2162 -0.7908 -0.1964
14140TIP3    H163835   4.608   6.175  15.142  0.2176 -0.8479 -0.1905
14140TIP3    H263836   4.477   6.228  15.089  0.4259  0.7693  0.8249
14141TIP3   OH263837   4.044   2.432  14.726  0.1999 -0.0779 -0.2541
14141TIP3    H163838   3.955   2.467  14.733  0.5789  1.3304 -1.8859
14141TIP3    H263839   4.040   2.371  14.652  0.6089  0.0648 -0.3969
14142TIP3   OH263840   6.757   1.318  15.241 -0.4304 -0.7888  0.2424
14142TIP3    H163841   6.786   1.309  15.331 -2.4282 -2.3531  0.7913
14142TIP3    H263842   6.708   1.238  15.223 -0.3234 -0.3927 -2.1593
14143TIP3   OH263843   1.156   0.422   0.680 -0.0321  0.0953 -0.1654
14143TIP3    H163844   1.128   0.416   0.771 -0.0383 -1.5809 -0.2587
14143TIP3    H263845   1.140   0.514   0.656 -1.0588  0.2889  1.1798
14144TIP3   OH263846   2.469   2.456   3.217  0.2490 -0.1707  0.2368
14144TIP3    H163847   2.389   2.483   3.261 -1.3808 -2.8323 -0.8698
14144TIP3    H263848   2.440   2.418   3.134  2.7897 -0.0090 -0.8161
14145TIP3   OH263849   5.148   0.868  14.444 -0.4102  0.2501 -0.0020
14145TIP3    H163850   5.206   0.929  14.489 -0.0568 -0.6983  0.8649
14145TIP3    H263851   5.198   0.787  14.439 -1.3031 -0.3054 -0.0936
14146TIP3   OH263852   6.687   1.478  15.657  0.0301 -0.2700 -0.2882
14146TIP3    H163853   6.768   1.526  15.644 -0.1288  1.3586  3.4465
14146TIP3    H263854   6.712   1.386  15.650  2.2356  0.1974  0.6546
14147TIP3   OH263855   3.697   2.623  14.013 -0.5738  0.0742 -0.0268
14147TIP3    H163856   3.613   2.589  14.043 -0.8898  0.2365 -0.7247
14147TIP3    H263857   3.748   2.545  13.990 -1.1439  0.0332 -1.2174
14148TIP3   OH263858   0.260   4.301   1.080 -0.2121  0.2864 -0.0813
14148TIP3    H163859   0.237   4.247   1.156  0.3410  0.5346  0.2628
14148TIP3    H263860   0.311   4.243   1.024  1.4981  0.7997  0.8870
14149TIP3   OH263861   3.277   4.034   6.697  0.6073 -0.0019  0.4827
14149TIP3    H163862   3.271   3.982   6.777  2.4097 -2.9645 -1.1233
14149TIP3    H263863   3.350   4.094   6.713  1.0971 -0.7168  1.0205
14150TIP3   OH263864   5.120   3.946   3.724 -0.1847 -0.2902 -0.1968
14150TIP3    H163865   5.074   4.028   3.707  1.5938  1.0023  0.9091
14150TIP3    H263866   5.078   3.882   3.666 -1.5757  1.3931 -1.1208
14151TIP3   OH263867   5.976   3.591  12.405 -0.1892  0.3055  0.3566
14151TIP3    H163868   5.938   3.630  12.483 -2.4461  0.6385 -0.8412
14151TIP3    H263869   6.069   3.581  12.427 -0.4845  1.6355  2.5560
14152TIP3   OH263870   2.543   2.689   0.621  0.1148 -0.2340  0.2845
14152TIP3    H163871   2.526   2.760   0.559  0.4312  0.2371  0.7366
14152TIP3    H263872   2.465   2.633   0.615 -0.8704  1.0005  1.1040
14153TIP3   OH263873   5.734   3.059  11.079 -0.6883 -0.3237  0.3157
14153TIP3    H163874   5.644   3.065  11.046 -1.0997  1.1187  1.5768
14153TIP3    H263875   5.789   3.071  11.001 -1.6136  0.9831 -0.1804
14154TIP3   OH263876   5.365   1.950   4.834 -0.4506 -0.4080  0.1387
14154TIP3    H163877   5.435   1.930   4.896  1.0544  1.3692 -0.8635
14154TIP3    H263878   5.311   1.872   4.833  1.5984 -1.9413  0.8810
14155TIP3   OH263879   1.190   4.414  14.223 -0.4857  0.0910 -0.7121
14155TIP3    H163880   1.236   4.478  14.277  1.2800 -0.6400 -1.2600
14155TIP3    H263881   1.157   4.465  14.149 -1.4768  0.8007  0.1870
14156TIP3   OH263882   2.402   3.818   4.636 -0.4980  0.2040 -0.0804
14156TIP3    H163883   2.371   3.882   4.699  0.5422  0.2293  0.4183
14156TIP3    H263884   2.428   3.870   4.559 -1.0437  0.2359 -0.2516
14157TIP3   OH263885   5.101   4.712   2.651  0.4509  0.0465  0.0663
14157TIP3    H163886   5.066   4.771   2.718  0.4441  0.5751 -0.3919
14157TIP3    H263887   5.099   4.625   2.691 -0.1798  0.2602  0.5049
14158TIP3   OH263888   3.441   2.282   1.682 -0.2478  0.1737 -0.7067
14158TIP3    H163889   3.421   2.188   1.675  0.7794  0.0073 -1.7596
14158TIP3    H263890   3.537   2.286   1.682 -0.2810  1.1898 -0.0541
14159TIP3   OH263891   1.947   2.819   1.610 -0.1907  0.2021  0.0301
14159TIP3    H163892   1.868   2.852   1.568 -0.7463 -0.4310  0.5600
14159TIP3    H263893   1.945   2.725   1.594 -0.0125  0.0596  0.8001
14160TIP3   OH263894   6.600   1.895  14.377  0.1116 -0.5081 -0.5126
14160TIP3    H163895   6.666   1.962  14.398 -1.0173  0.8360 -1.0843
14160TIP3    H263896   6.649   1.813  14.377  1.2734  0.1034  1.6408
14161TIP3   OH263897   6.231   4.470   6.719  0.1537 -0.2723 -0.5209
14161TIP3    H163898   6.169   4.398   6.724  1.1037 -1.1129 -0.5869
14161TIP3    H263899   6.181   4.547   6.749 -0.3761 -1.2462  1.2243
14162TIP3   OH263900   1.836   3.640  11.483 -0.1728 -0.0933 -0.8371
14162TIP3    H163901   1.869   3.709  11.425  0.7356 -1.5014 -2.0797
14162TIP3    H263902   1.744   3.629  11.458 -0.2700  0.5223 -0.7609
14163TIP3   OH263903   6.029   0.473   3.316 -0.7180  0.3493 -0.2310
14163TIP3    H163904   5.944   0.514   3.327 -0.9242 -0.1302 -0.0074
14163TIP3    H263905   6.026   0.434   3.229 -1.2361 -0.8153  0.2809
14164TIP3   OH263906   4.301   5.536  15.559  0.5707 -0.1459 -0.2645
14164TIP3    H163907   4.359   5.564  15.630 -0.8989 -0.9645  1.3346
14164TIP3    H263908   4.257   5.617  15.531 -0.1662 -0.0478  1.0603
14165TIP3   OH263909   2.286   6.619   2.002  0.1216  0.1330  0.2999
14165TIP3    H163910   2.242   6.680   1.943  0.8648 -1.3981 -1.9684
14165TIP3    H263911   2.379   6.636   1.990  0.3189 -0.9696  0.1339
14166TIP3   OH263912   4.841   2.537   2.766  0.3501  0.6277 -1.0445
14166TIP3    H163913   4.767   2.495   2.721  0.0640 -1.0520  0.8703
14166TIP3    H263914   4.815   2.629   2.773 -1.5063  0.1118 -0.5685
14167TIP3   OH263915   1.772   5.968  10.868 -0.1010 -0.2581  0.2867
14167TIP3    H163916   1.716   5.890  10.863  0.1896 -0.4404 -0.1766
14167TIP3    H263917   1.711   6.040  10.885 -0.3178 -0.6549  1.2347
14168TIP3   OH263918   3.441   1.395   4.179  0.0724  0.3173 -0.0977
14168TIP3    H163919   3.532   1.418   4.161  0.0584  0.4837  0.0360
14168TIP3    H263920   3.428   1.419   4.271 -0.3711  1.1855 -0.3669
14169TIP3   OH263921   5.434   3.093  13.940 -0.4385 -0.8409  0.6841
14169TIP3    H163922   5.379   3.044  13.879 -0.8452  1.2882 -0.7863
14169TIP3    H263923   5.521   3.057  13.929 -0.4127 -0.2308 -1.5777
14170TIP3   OH263924   2.164   3.154   0.227 -0.4160  0.0897 -0.5219
14170TIP3    H163925   2.172   3.141   0.133 -0.0073 -1.7208 -0.2580
14170TIP3    H263926   2.242   3.204   0.251 -0.2903  0.1604 -1.0590
14171TIP3   OH263927   2.510   0.615   5.840  1.0155  0.0185 -0.0842
14171TIP3    H163928   2.519   0.624   5.935  0.8721 -1.8458  0.1439
14171TIP3    H263929   2.577   0.551   5.815  0.2087 -0.4918 -1.0382
14172TIP3   OH263930   2.356   5.141   1.023  0.6751  0.4398 -0.4040
14172TIP3    H163931   2.273   5.095   1.032 -0.0257  1.9560  1.4342
14172TIP3    H263932   2.340   5.206   0.955  0.7723 -0.0969 -0.9493
14173TIP3   OH263933   6.530   3.181  11.308 -0.2846 -0.0036  0.3332
14173TIP3    H163934   6.612   3.227  11.324 -0.7082  1.4621 -1.3898
14173TIP3    H263935   6.496   3.219  11.227 -1.8550 -1.7351  0.1035
14174TIP3   OH263936   4.148   5.335   4.139 -0.1424 -0.0013  0.6099
14174TIP3    H163937   4.237   5.337   4.175  0.2150  0.4793 -0.2640
14174TIP3    H263938   4.120   5.426   4.140 -0.2928 -0.0355  0.1135
14175TIP3   OH263939   5.432   6.066   5.530  0.0572  0.1423  0.7070
14175TIP3    H163940   5.392   6.094   5.613 -0.5249 -1.8617  1.1433
14175TIP3    H263941   5.506   6.012   5.556  0.4090  0.2356 -0.0956
14176TIP3   OH263942   3.775   1.367  13.403  0.3609 -0.3217  0.1477
14176TIP3    H163943   3.683   1.351  13.381  0.0512  0.3802  0.9082
14176TIP3    H263944   3.783   1.341  13.494  0.3830  1.6389  0.7404
14177TIP3   OH263945   5.881   6.592  14.090  0.1489  0.2007 -0.2999
14177TIP3    H163946   5.838   6.677  14.097 -1.3709 -0.5785  0.3399
14177TIP3    H263947   5.856   6.559  14.004  0.1340  0.0924 -0.2554
14178TIP3   OH263948   0.782   2.547   2.372  0.0355 -0.1826  0.8780
14178TIP3    H163949   0.795   2.616   2.437  2.1958 -0.0905  0.3992
14178TIP3    H263950   0.848   2.563   2.306 -0.9673 -1.3369 -0.4686
14179TIP3   OH263951   0.104   2.114   4.620 -0.3898  0.4668 -0.3796
14179TIP3    H163952   0.043   2.049   4.655  1.2067 -0.8775  0.0115
14179TIP3    H263953   0.191   2.080   4.642  0.5293  3.2865  0.8670
14180TIP3   OH263954   0.685   6.517  15.179 -0.4529 -0.1673 -0.9226
14180TIP3    H163955   0.726   6.555  15.257  1.9479  2.7060 -3.3026
14180TIP3    H263956   0.593   6.543  15.185  0.2024  2.2471 -0.2089
14181TIP3   OH263957   0.504   2.103  15.549  0.2135 -0.6119 -0.4850
14181TIP3    H163958   0.505   2.187  15.594  0.5482 -0.3610 -0.9534
14181TIP3    H263959   0.421   2.063  15.574  0.6485 -0.7399  0.8201
14182TIP3   OH263960   0.266   2.526  11.765  0.0553  0.3903  0.1453
14182TIP3    H163961   0.316   2.593  11.811 -1.8859  1.8793  0.2272
14182TIP3    H263962   0.183   2.520  11.812  0.0524 -1.9262 -0.0259
14183TIP3   OH263963   0.623   6.235  14.665 -0.2261 -0.1881 -0.3399
14183TIP3    H163964   0.530   6.227  14.647 -0.5472 -0.4444  1.2838
14183TIP3    H263965   0.637   6.329  14.676 -0.6439 -0.2658  1.0213
14184TIP3   OH263966   2.470   0.038  11.881 -0.0168 -0.5965 -0.2760
14184TIP3    H163967   2.557   0.059  11.846 -0.7411  0.7674 -1.3466
14184TIP3    H263968   2.486   0.018  11.974  1.0799  3.0475  0.5001
14185TIP3   OH263969   0.102   5.545   5.502 -0.2236 -0.1978 -0.8229
14185TIP3    H163970   0.053   5.490   5.562 -0.5148  1.8777  0.9882
14185TIP3    H263971   0.190   5.552   5.540 -0.1165  0.3593 -1.1457
14186TIP3   OH263972   6.114   0.087  16.398 -0.4172  0.0912  0.5230
14186TIP3    H163973   6.137   0.107  16.489  0.7966 -0.8079  0.4461
14186TIP3    H263974   6.107  -0.009  16.396  0.2847  0.0482 -0.4757
14187TIP3   OH263975   6.600   3.017  16.858  0.5127  0.1305 -0.0250
14187TIP3    H163976   6.586   3.087  16.795  1.1596  0.2979  0.0119
14187TIP3    H263977   6.678   3.043  16.907  0.5338 -0.4204  0.2506
14188TIP3   OH263978   0.787   5.994  14.644  0.5817  0.4698 -0.1054
14188TIP3    H163979   0.701   6.024  14.671  0.5025  1.1407 -1.0186
14188TIP3    H263980   0.820   6.065  14.589  1.7642  0.2716  0.3246
14189TIP3   OH263981   0.915   1.337  13.078  0.1410 -0.1051  0.5649
14189TIP3    H163982   0.851   1.267  13.061 -0.0899  0.4157 -0.8243
14189TIP3    H263983   0.889   1.373  13.162 -0.2170 -1.1827  0.9285
14190TIP3   OH263984   6.787   3.302  11.307 -0.5084 -0.3240 -0.3519
14190TIP3    H163985   6.871   3.297  11.262 -0.8975 -0.1172 -1.1233
14190TIP3    H263986   6.786   3.389  11.347  0.5074 -1.0882  1.4457
14191TIP3   OH263987   0.131   6.191   1.611  0.0142 -0.0189 -0.0348
14191TIP3    H163988   0.140   6.274   1.565  0.7642 -0.1349 -0.1217
14191TIP3    H263989   0.038   6.169   1.606 -0.2424  0.9691  0.2670
14192TIP3   OH263990   6.365   1.646   0.259 -0.3215 -0.7823  0.6466
14192TIP3    H163991   6.417   1.665   0.337  1.0601 -0.6158 -0.2843
14192TIP3    H263992   6.277   1.629   0.293  0.4219 -1.5209  2.3103
14193TIP3   OH263993   5.947   1.632   5.577  0.5726 -0.1619  0.1523
14193TIP3    H163994   5.970   1.541   5.595 -1.5876 -0.6059  0.9387
14193TIP3    H263995   5.885   1.655   5.646  0.3859  1.6273 -0.5683
14194TIP3   OH263996   5.693   2.038  17.179  0.0759  0.3736 -0.2866
14194TIP3    H163997   5.608   2.032  17.223 -0.3367 -0.5116 -1.1645
14194TIP3    H263998   5.744   1.966  17.216  0.0972  0.2890 -0.4797
14195TIP3   OH263999   2.893   3.356   5.518 -0.0649 -0.1505  0.3227
14195TIP3    H164000   2.968   3.312   5.558 -0.7545 -0.3695  1.4220
14195TIP3    H264001   2.895   3.444   5.555 -0.4255 -0.1978  0.4524
14196TIP3   OH264002   4.563   1.964  13.265  0.1136  0.5722  0.2936
14196TIP3    H164003   4.630   1.918  13.316 -1.3536 -1.9589  0.0922
14196TIP3    H264004   4.576   1.932  13.175 -0.2807  1.4230 -0.0773
14197TIP3   OH264005   4.772   5.625   4.801  0.1931 -0.1936 -0.0755
14197TIP3    H164006   4.832   5.557   4.831  0.7811 -0.2649 -1.3465
14197TIP3    H264007   4.692   5.577   4.776  1.2609 -0.7750 -2.8236
14198TIP3   OH264008   3.421   4.809  15.970  0.0949 -0.0106  0.3220
14198TIP3    H164009   3.460   4.781  15.887 -1.6910  0.7489 -0.8332
14198TIP3    H264010   3.448   4.900  15.980 -1.2926  0.5035 -0.4587
14199TIP3   OH264011   5.058   0.412  14.973  0.3960  0.4566 -0.5113
14199TIP3    H164012   5.032   0.347  14.908 -2.2899 -0.3073  1.1474
14199TIP3    H264013   4.980   0.467  14.984  1.1894  1.3302  1.1197
14200TIP3   OH264014   5.492   1.846  17.010 -0.4519 -0.2367 -0.8829
14200TIP3    H164015   5.434   1.877  17.079  2.8377  1.6998  1.2144
14200TIP3    H264016   5.538   1.924  16.979  3.7308 -1.9904  0.2783
14201TIP3   OH264017   4.252   3.373   0.417  0.1309 -0.0876  0.4644
14201TIP3    H164018   4.219   3.418   0.339  0.6430 -1.0921 -0.3589
14201TIP3    H264019   4.174   3.361   0.472 -0.7901 -1.6529 -1.0634
14202TIP3   OH264020   6.027   1.766   5.028  0.2980  0.2064 -0.2351
14202TIP3    H164021   6.084   1.690   5.017 -0.2415  0.0615 -2.6274
14202TIP3    H264022   6.083   1.841   5.009  0.1523  0.1753 -0.8315
14203TIP3   OH264023   2.418   3.884   1.344 -0.2613  0.6855  0.2126
14203TIP3    H164024   2.446   3.898   1.253 -0.3099  0.6043  0.1848
14203TIP3    H264025   2.466   3.950   1.394  2.4582 -1.4430  0.6433
14204TIP3   OH264026   1.636   0.764  16.174  0.4910 -0.3761  0.1807
14204TIP3    H164027   1.586   0.737  16.250  2.4642 -2.8763  0.7226
14204TIP3    H264028   1.593   0.722  16.100 -0.3615  0.5814  0.1085
14205TIP3   OH264029   2.442   1.198  12.400 -0.6763  0.1787 -0.5855
14205TIP3    H164030   2.368   1.198  12.460 -0.9316 -1.5979 -0.8534
14205TIP3    H264031   2.443   1.110  12.362  1.2770  0.3057 -0.9528
14206TIP3   OH264032   3.889   5.049  12.976 -0.1314 -0.2049 -0.6577
14206TIP3    H164033   3.798   5.060  13.006  0.2774  0.2015  0.5009
14206TIP3    H264034   3.940   5.107  13.034  1.1985 -2.4243  0.5166
14207TIP3   OH264035   1.881   3.957   1.424  0.0659 -0.4801 -0.2011
14207TIP3    H164036   1.834   4.033   1.456  1.8120  0.2649  0.7274
14207TIP3    H264037   1.819   3.885   1.433 -1.3892  0.6964 -0.4550
14208TIP3   OH264038   1.417   1.616  13.453 -0.2308 -0.3220  0.2950
14208TIP3    H164039   1.325   1.644  13.449 -0.7102 -1.8870 -0.5478
14208TIP3    H264040   1.460   1.665  13.383 -0.4384  0.3489  0.6285
14209TIP3   OH264041   0.414   2.786   1.247  0.0215  0.9571 -0.0340
14209TIP3    H164042   0.497   2.799   1.202  1.0120  0.0268  1.4126
14209TIP3    H264043   0.409   2.857   1.311 -1.3961  2.3023 -1.5496
14210TIP3   OH264044   3.812   5.907  12.835  0.2350 -0.4876 -0.4353
14210TIP3    H164045   3.723   5.941  12.827  0.6738  1.1414  0.9906
14210TIP3    H264046   3.865   5.966  12.783  0.7665 -0.0560  0.5680
14211TIP3   OH264047   2.978   6.565  17.109  0.1791  0.6451  0.3852
14211TIP3    H164048   2.904   6.624  17.116  0.8979  1.6367 -0.0241
14211TIP3    H264049   2.984   6.546  17.015 -1.1061 -1.5295  0.6772
14212TIP3   OH264050   0.867   0.817  14.536 -0.2056  0.2928 -0.0973
14212TIP3    H164051   0.915   0.844  14.615 -0.7573 -1.1721  0.7747
14212TIP3    H264052   0.846   0.900  14.491 -1.7100  1.3588  2.3641
14213TIP3   OH264053   4.661   4.466  13.785  0.5493 -0.7741 -0.3730
14213TIP3    H164054   4.595   4.534  13.768 -0.7695 -1.5361  1.4317
14213TIP3    H264055   4.733   4.488  13.725 -0.4502  1.3159 -0.9216
14214TIP3   OH264056   6.241   6.205   0.888 -0.1022  0.4819  0.1931
14214TIP3    H164057   6.151   6.183   0.913  0.0424 -0.1117  0.2011
14214TIP3    H264058   6.266   6.275   0.948 -1.2922  2.1585 -1.1522
14215TIP3   OH264059   1.049   2.640  14.691  0.4566  0.2879 -0.6173
14215TIP3    H164060   0.993   2.619  14.766 -0.0017  1.9704 -0.4437
14215TIP3    H264061   1.123   2.580  14.698 -1.7401 -2.7671 -1.4187
14216TIP3   OH264062   5.613   6.049  15.383 -0.1533 -0.6805 -0.1896
14216TIP3    H164063   5.704   6.044  15.356 -0.0647 -0.9107  0.1417
14216TIP3    H264064   5.569   6.098  15.314  0.0225 -1.4498 -0.8607
14217TIP3   OH264065   6.232   0.602   1.578  0.1738  0.0985 -0.3870
14217TIP3    H164066   6.189   0.517   1.568 -0.7141  0.4921 -0.0150
14217TIP3    H264067   6.318   0.590   1.537  0.2048 -1.0809 -0.0111
14218TIP3   OH264068   0.747   4.356  11.213 -0.0217 -0.4493 -0.3023
14218TIP3    H164069   0.667   4.304  11.204 -0.1202 -0.2934 -0.3138
14218TIP3    H264070   0.810   4.295  11.253 -0.7573  0.0220  1.6832
14219TIP3   OH264071   3.017   3.750   5.722 -0.5215  0.0271  0.2023
14219TIP3    H164072   2.972   3.726   5.642  0.1742  0.7601 -0.4349
14219TIP3    H264073   3.045   3.667   5.761  0.5536 -0.2887 -1.1692
14220TIP3   OH264074   4.865   0.940   2.847  0.2848 -0.1240 -0.3785
14220TIP3    H164075   4.781   0.981   2.831  0.6833  2.5408  3.2373
14220TIP3    H264076   4.930   1.004   2.816  1.0650 -1.7215 -2.2445
14221TIP3   OH264077   4.249   1.933  15.599 -0.0240 -0.1294 -0.2747
14221TIP3    H164078   4.277   1.897  15.515  0.3779 -1.3227  0.3488
14221TIP3    H264079   4.241   2.027  15.583  0.7480 -0.2390 -1.4461
14222TIP3   OH264080   5.946   0.110   5.051 -0.6537 -0.3321 -0.3227
14222TIP3    H164081   5.912   0.200   5.049 -0.7896 -0.3913 -0.7530
14222TIP3    H264082   5.870   0.056   5.072 -1.0718 -0.5622 -2.2030
14223TIP3   OH264083   5.655   3.443  12.806 -0.2901  0.0129  0.4684
14223TIP3    H164084   5.692   3.357  12.825 -2.2330 -0.6012  1.6792
14223TIP3    H264085   5.571   3.445  12.852 -1.0159  1.9823 -0.7889
14224TIP3   OH264086   0.672   0.583  12.349 -0.2792 -0.1265  0.5716
14224TIP3    H164087   0.681   0.589  12.444 -0.0654  1.9902  0.4573
14224TIP3    H264088   0.584   0.616  12.331 -0.6309 -1.2653  0.0512
14225TIP3   OH264089   4.502   4.445  13.509  0.0100 -0.1233  0.0522
14225TIP3    H164090   4.506   4.372  13.572 -0.4299 -2.1075 -2.0774
14225TIP3    H264091   4.593   4.475  13.502  0.6305 -2.0050 -0.6604
14226TIP3   OH264092   4.825   1.477  11.787 -0.0033  0.6190  0.2098
14226TIP3    H164093   4.896   1.539  11.801  0.5798 -0.4043  2.1461
14226TIP3    H264094   4.752   1.514  11.837 -0.2876  0.7455 -0.2917
14227TIP3   OH264095   4.404   4.697  17.038  0.2406 -0.4556 -0.0779
14227TIP3    H164096   4.418   4.768  17.101 -0.7439  0.2889 -0.6595
14227TIP3    H264097   4.396   4.742  16.953  0.3959 -1.3396 -0.5703
14228TIP3   OH264098   4.113   3.672   0.867  0.2383  0.2529 -0.2401
14228TIP3    H164099   4.190   3.712   0.826  0.9433  0.8794  1.6127
14228TIP3    H264100   4.065   3.745   0.906  0.0553 -0.4015  0.8000
14229TIP3   OH264101   4.375   2.039   2.210  0.0856  0.3404  0.1971
14229TIP3    H164102   4.318   2.086   2.149  2.2227  0.9807 -1.4142
14229TIP3    H264103   4.360   2.081   2.294 -0.8537  1.3390 -0.4470
14230TIP3   OH264104   5.645   2.438  11.265  0.2828  0.7575  0.1810
14230TIP3    H164105   5.716   2.387  11.305  1.2523  1.4121 -0.6663
14230TIP3    H264106   5.689   2.504  11.212 -0.9634  1.7178  0.2915
14231TIP3   OH264107   6.115   4.720   0.690  0.1664 -0.3081  1.3460
14231TIP3    H164108   6.042   4.782   0.689 -0.5999 -1.1864  0.8338
14231TIP3    H264109   6.140   4.713   0.782  0.1929  0.6662  1.4208
14232TIP3   OH264110   4.003   5.216  15.398 -0.2990 -0.6999 -0.2638
14232TIP3    H164111   3.934   5.158  15.432  1.1450 -1.6560  1.1995
14232TIP3    H264112   4.044   5.166  15.328 -0.9395 -0.2137 -0.9978
14233TIP3   OH264113   1.057   3.642  11.820  0.6026 -0.1861  0.0378
14233TIP3    H164114   1.147   3.649  11.851  0.4342  0.4974  0.4211
14233TIP3    H264115   1.024   3.732  11.825  0.3725 -0.1554 -1.5692
14234TIP3   OH264116   0.344   2.197  16.780  0.0119  0.0156  0.6428
14234TIP3    H164117   0.252   2.169  16.779  0.2551 -0.7823 -0.2355
14234TIP3    H264118   0.340   2.293  16.776 -0.7620 -0.0495 -0.3654
14235TIP3   OH264119   2.763   4.650   5.233  0.2768 -0.4742  0.5027
14235TIP3    H164120   2.777   4.620   5.322  1.1648 -0.4342  0.3910
14235TIP3    H264121   2.695   4.593   5.198  0.9447 -1.4316  0.7486
14236TIP3   OH264122   1.321   3.370   0.418  0.7388  0.4535  0.2872
14236TIP3    H164123   1.269   3.439   0.376 -0.4599 -0.5466  0.0710
14236TIP3    H264124   1.357   3.412   0.496 -0.3734  1.2028  0.4212
14237TIP3   OH264125   1.322   2.892  11.436  0.3918  0.1570 -0.4430
14237TIP3    H164126   1.293   2.805  11.465 -0.6476  0.7517  0.3682
14237TIP3    H264127   1.410   2.877  11.401  1.0473 -0.9194  1.4831
14238TIP3   OH264128   3.353   5.869   4.896 -0.4175 -0.3594 -0.3090
14238TIP3    H164129   3.292   5.935   4.928  0.8225  0.3655  0.6177
14238TIP3    H264130   3.341   5.795   4.955 -0.2472 -0.1383  0.0040
14239TIP3   OH264131   3.589   2.098  16.964  0.3702  0.1084 -0.2299
14239TIP3    H164132   3.577   2.146  17.046 -0.7204  0.6774 -0.7058
14239TIP3    H264133   3.550   2.013  16.980 -1.7590  0.9123 -0.7812
14240TIP3   OH264134   0.537   6.313  12.766  0.2135  0.1253 -0.2475
14240TIP3    H164135   0.613   6.361  12.798  0.3682  0.2755 -0.8217
14240TIP3    H264136   0.569   6.266  12.689 -0.4268  0.7280 -0.9093
14241TIP3   OH264137   3.858   1.808  13.662  0.1132  0.2220 -0.2261
14241TIP3    H164138   3.776   1.822  13.710  0.1092  1.4441 -0.5682
14241TIP3    H264139   3.926   1.840  13.722  0.1364  1.4245 -0.8754
14242TIP3   OH264140   1.016   6.423  12.421  0.2455 -0.5161 -0.0185
14242TIP3    H164141   1.082   6.412  12.353  1.4334 -1.0307  1.1656
14242TIP3    H264142   1.060   6.394  12.501 -1.5044 -1.0573  0.7743
14243TIP3   OH264143   0.183   4.519   5.964  0.0114  0.3861 -0.3538
14243TIP3    H164144   0.099   4.479   5.986  0.9201 -1.1007  0.6565
14243TIP3    H264145   0.165   4.573   5.888 -1.5808 -0.9894 -1.0126
14244TIP3   OH264146   0.939   1.829   0.212 -0.0488  0.5962  0.4875
14244TIP3    H164147   0.860   1.849   0.264  0.4552  0.6839  1.2378
14244TIP3    H264148   0.912   1.758   0.154  0.2246 -1.8477  3.1549
14245TIP3   OH264149   0.537   6.189  16.474 -0.8091  0.5791 -0.8260
14245TIP3    H164150   0.607   6.124  16.468 -0.8629  0.1025  2.1749
14245TIP3    H264151   0.582   6.274  16.472 -0.0359  0.2763  1.3158
14246TIP3   OH264152   2.155   6.596   5.155  0.3789 -0.1928 -0.3415
14246TIP3    H164153   2.067   6.634   5.158  0.0784 -0.8235  3.1167
14246TIP3    H264154   2.143   6.510   5.115 -0.9869 -0.9157  1.4473
14247TIP3   OH264155   5.549   3.793  16.947 -0.6261 -0.2341 -0.6853
14247TIP3    H164156   5.484   3.731  16.912 -0.5491  0.5165 -2.2279
14247TIP3    H264157   5.600   3.820  16.871 -0.6484  1.7129 -0.0543
14248TIP3   OH264158   1.896   4.955   1.503  0.0323 -0.0052  0.2661
14248TIP3    H164159   1.843   4.942   1.425 -0.2557  0.3302  0.3986
14248TIP3    H264160   1.986   4.949   1.473 -0.0756 -1.1391  0.1331
14249TIP3   OH264161   6.302   3.192   2.764  0.2745 -0.6466 -0.4147
14249TIP3    H164162   6.287   3.203   2.670  1.6747  0.1632 -0.5674
14249TIP3    H264163   6.379   3.135   2.770  1.9109  1.4910  0.1467
14250TIP3   OH264164   5.031   4.011   5.472 -0.2359 -0.7921  0.1390
14250TIP3    H164165   4.941   4.004   5.503 -0.4967 -0.7414 -0.5767
14250TIP3    H264166   5.030   3.971   5.385 -0.0297  0.9902 -0.7335
14251TIP3   OH264167   1.858   5.206  10.851 -0.0581  0.4873  0.1163
14251TIP3    H164168   1.800   5.178  10.780  1.1094 -0.3361 -0.5675
14251TIP3    H264169   1.848   5.139  10.918  0.8621 -0.2590 -0.4588
14252TIP3   OH264170   2.845   4.361  14.166 -0.1282 -0.0901 -0.2483
14252TIP3    H164171   2.796   4.443  14.171  0.0159  0.0142 -0.5228
14252TIP3    H264172   2.780   4.293  14.183 -0.0060  0.1400  1.2503
14253TIP3   OH264173   2.783   2.737   4.559  0.1596 -0.5002 -0.6547
14253TIP3    H164174   2.844   2.808   4.538 -0.6981  0.3176 -0.4352
14253TIP3    H264175   2.709   2.780   4.601 -0.3758 -1.5323 -0.4998
14254TIP3   OH264176   2.870   1.245   0.327  0.8105 -0.2659 -0.7176
14254TIP3    H164177   2.943   1.303   0.309 -0.2703  1.5123  0.3192
14254TIP3    H264178   2.793   1.291   0.292 -0.2136 -0.5498  1.0294
14255TIP3   OH264179   3.708   4.088  14.673 -0.3190  0.2992 -0.0855
14255TIP3    H164180   3.683   4.081  14.581 -0.2383  0.9761 -0.1627
14255TIP3    H264181   3.803   4.091  14.672 -0.1818 -2.1931  0.2078
14256TIP3   OH264182   6.388   2.104  13.740 -0.2186  0.5141  0.3920
14256TIP3    H164183   6.463   2.157  13.768 -0.1585  0.2572  0.7280
14256TIP3    H264184   6.352   2.070  13.822 -0.1986 -0.0430  0.1710
14257TIP3   OH264185   1.013   0.994  12.275  0.3409 -0.4274 -0.6294
14257TIP3    H164186   0.937   1.027  12.227 -0.5316  1.1067  1.6123
14257TIP3    H264187   0.986   0.996  12.367  2.5566 -1.3665  0.1126
14258TIP3   OH264188   6.426   4.797  14.778  0.9699 -0.0595 -0.2156
14258TIP3    H164189   6.449   4.731  14.842  0.9492 -0.4312 -0.5885
14258TIP3    H264190   6.462   4.879  14.813  1.6068 -0.3848 -0.0955
14259TIP3   OH264191   1.083   2.783  12.073 -0.2907 -0.4534 -0.0611
14259TIP3    H164192   1.039   2.808  11.992 -0.5616  0.3689  0.3335
14259TIP3    H264193   1.115   2.694  12.056  1.6091  0.4846 -1.8757
14260TIP3   OH264194   2.935   5.092   2.196 -0.2228 -0.4818 -0.5108
14260TIP3    H164195   2.855   5.123   2.154 -0.0407  2.4903  1.0717
14260TIP3    H264196   3.002   5.155   2.170  0.7933 -0.9191  0.8917
14261TIP3   OH264197   1.212   2.508   4.408  0.5752  0.4034 -0.0451
14261TIP3    H164198   1.268   2.585   4.412  2.7226 -1.0441 -0.7291
14261TIP3    H264199   1.257   2.441   4.460 -0.8567 -0.6279 -0.0461
14262TIP3   OH264200   6.577   0.525   3.091 -0.5054  0.0413 -0.3517
14262TIP3    H164201   6.501   0.582   3.096 -0.2170  0.4063  0.0200
14262TIP3    H264202   6.604   0.527   3.000 -0.9164 -0.0599 -0.4764
14263TIP3   OH264203   2.649   6.635  15.851 -0.0661  0.5808 -0.1012
14263TIP3    H164204   2.561   6.673  15.860  0.2826  1.3104  0.2842
14263TIP3    H264205   2.658   6.579  15.928 -0.2187  0.4401 -0.1828
14264TIP3   OH264206   1.194   4.873   1.838  0.1839 -0.1358  0.6218
14264TIP3    H164207   1.129   4.935   1.871 -1.5006 -1.4544 -0.0792
14264TIP3    H264208   1.274   4.895   1.886  0.2394  3.7946 -0.9109
14265TIP3   OH264209   1.180   0.472   5.471 -0.0085 -0.4233 -0.3426
14265TIP3    H164210   1.157   0.383   5.445 -1.2379  0.3802 -2.2860
14265TIP3    H264211   1.097   0.511   5.499  0.8482 -0.4412  2.5847
14266TIP3   OH264212   0.245   3.076   5.817 -0.3464 -0.3543  0.0456
14266TIP3    H164213   0.194   3.131   5.757 -1.6377 -0.7481  0.7452
14266TIP3    H264214   0.277   3.136   5.884 -1.7729 -0.4238  0.8222
14267TIP3   OH264215   0.965   3.726   4.983  0.1547  0.1146  1.0741
14267TIP3    H164216   0.906   3.741   5.057  1.0701 -0.4971  1.9693
14267TIP3    H264217   1.025   3.657   5.014  0.6333 -0.0747 -0.2034
14268TIP3   OH264218   3.194   5.980   2.618  0.2176  0.5740 -0.8730
14268TIP3    H164219   3.111   6.002   2.659  0.2264  1.4201 -1.2805
14268TIP3    H264220   3.258   5.980   2.690 -0.4143 -1.9474 -0.2276
14269TIP3   OH264221   3.453   6.206  14.729  0.3084 -0.4436 -0.0819
14269TIP3    H164222   3.403   6.288  14.732  0.1026 -0.3123 -3.1748
14269TIP3    H264223   3.544   6.234  14.738  0.1646 -0.0053  0.0676
14270TIP3   OH264224   0.469   4.485  16.061 -0.2313 -0.3422 -0.1300
14270TIP3    H164225   0.535   4.527  16.115  1.2704  1.9873 -3.4163
14270TIP3    H264226   0.387   4.530  16.084  0.6299  1.6102 -0.7031
14271TIP3   OH264227   3.900   1.056  12.649  0.3399  0.0887  0.1090
14271TIP3    H164228   3.990   1.087  12.641  0.4695 -0.3138 -0.0197
14271TIP3    H264229   3.902   0.966  12.615 -0.5690  0.8416 -2.1043
14272TIP3   OH264230   5.809   5.911  11.352  0.0017 -0.1480  0.0041
14272TIP3    H164231   5.875   5.907  11.283 -1.5950 -0.9099 -1.5466
14272TIP3    H264232   5.769   5.997  11.342 -0.1553 -0.2134  0.0719
14273TIP3   OH264233   0.841   2.196  14.198  0.4843 -0.2374 -0.6071
14273TIP3    H164234   0.899   2.124  14.173  0.9413 -0.1643  0.2113
14273TIP3    H264235   0.802   2.168  14.280  0.8070  0.5237 -0.1826
14274TIP3   OH264236   1.714   4.885   3.976 -0.0801 -0.5067  0.5491
14274TIP3    H164237   1.743   4.794   3.971  1.0810 -0.0999 -1.2098
14274TIP3    H264238   1.743   4.915   4.062  1.9700 -1.0669  0.1174
14275TIP3   OH264239   4.964   5.542   3.331  0.3046  0.2169 -0.0552
14275TIP3    H164240   5.053   5.509   3.333  0.5807  0.8548 -1.1066
14275TIP3    H264241   4.962   5.613   3.395 -0.0039 -1.0502  1.4156
14276TIP3   OH264242   1.743   4.503  13.839 -0.0378 -0.0659 -0.0114
14276TIP3    H164243   1.711   4.549  13.761 -0.7268  0.1731  0.4043
14276TIP3    H264244   1.682   4.529  13.908  0.1220 -0.8738  0.4401
14277TIP3   OH264245   4.749   1.738  15.500 -0.6767 -0.4161  0.1529
14277TIP3    H164246   4.830   1.730  15.449 -1.0428 -0.5273 -0.4169
14277TIP3    H264247   4.768   1.806  15.565  0.1120 -0.9500  0.4929
14278TIP3   OH264248   3.125   1.479   0.783 -0.5749 -0.2077  0.0237
14278TIP3    H164249   3.196   1.420   0.760  0.9766  1.3745  0.5359
14278TIP3    H264250   3.085   1.503   0.700 -0.4467 -1.0251 -0.2792
14279TIP3   OH264251   4.339   1.343  12.803  0.2999 -0.0497 -0.5312
14279TIP3    H164252   4.249   1.337  12.770  0.4925 -1.8112 -0.8144
14279TIP3    H264253   4.375   1.256  12.789  1.2636 -0.0890  1.8646
14280TIP3   OH264254   0.976   0.610  14.924  0.8216 -0.1418  0.5560
14280TIP3    H164255   0.955   0.619  15.017  1.0271 -1.8247  0.7868
14280TIP3    H264256   0.968   0.517  14.906 -0.4072  0.2823 -1.4282
14281TIP3   OH264257   2.803   1.597   1.520  0.3917 -0.1303  0.7182
14281TIP3    H164258   2.868   1.655   1.560  0.3733 -0.9842  2.0707
14281TIP3    H264259   2.853   1.546   1.456  0.3938  1.3667 -0.5327
14282TIP3   OH264260   5.154   3.895   4.357 -0.3401  0.8895 -0.2393
14282TIP3    H164261   5.143   3.990   4.357 -0.5681  0.8777 -1.1292
14282TIP3    H264262   5.086   3.863   4.297 -1.4899 -0.0043  1.4473
14283TIP3   OH264263   4.183   4.194   0.130  0.4735  0.2587 -0.8138
14283TIP3    H164264   4.155   4.139   0.203  0.1358  0.7635 -0.5568
14283TIP3    H264265   4.128   4.167   0.057 -0.5201  1.0525 -0.3810
14284TIP3   OH264266   3.767   5.273  13.902  0.0278 -0.2265 -0.4143
14284TIP3    H164267   3.861   5.281  13.886  0.0879 -0.8095 -0.4001
14284TIP3    H264268   3.734   5.224  13.826 -0.1976 -0.3516 -0.2371
14285TIP3   OH264269   6.067   0.609   5.090  0.6858 -1.1164  0.3117
14285TIP3    H164270   6.038   0.542   5.027 -0.6876 -1.6664  1.4733
14285TIP3    H264271   6.034   0.578   5.174  0.9994  0.4771  1.0495
14286TIP3   OH264272   5.191   4.413  11.958  0.1699  0.4074  0.3808
14286TIP3    H164273   5.159   4.337  11.909  1.0258  0.1943  0.1368
14286TIP3    H264274   5.184   4.486  11.896 -2.7276  1.0305  1.2847
14287TIP3   OH264275   4.155   2.608  13.991  0.2258  0.3048  0.3523
14287TIP3    H164276   4.244   2.577  14.005 -0.1159  0.2802  3.2166
14287TIP3    H264277   4.164   2.701  13.972  0.8670  0.5399  1.6822
14288TIP3   OH264278   1.149   4.571  14.554  0.3906 -0.0761 -0.0405
14288TIP3    H164279   1.183   4.660  14.559  0.3019  0.0295 -0.9818
14288TIP3    H264280   1.073   4.570  14.613  1.5231 -0.0899  1.4619
14289TIP3   OH264281   6.023   5.375  15.612 -0.4612 -0.5421 -0.1750
14289TIP3    H164282   6.036   5.285  15.581 -0.0792 -0.0541 -1.4517
14289TIP3    H264283   6.002   5.425  15.534  2.0748  1.0317  0.0527
14290TIP3   OH264284   4.739   4.210   0.242 -0.4234 -0.2275  0.2861
14290TIP3    H164285   4.790   4.281   0.281 -3.7747  1.9192  1.2770
14290TIP3    H264286   4.774   4.130   0.280  2.1209  1.0277  0.8019
14291TIP3   OH264287   5.341   0.039   5.203  0.5484  0.5335 -0.0044
14291TIP3    H164288   5.361  -0.027   5.269  0.2436  2.4457  2.1401
14291TIP3    H264289   5.354   0.123   5.249  2.5700  2.0692 -3.0256
14292TIP3   OH264290   0.966   3.577   3.753 -0.7629  0.3621 -0.0139
14292TIP3    H164291   0.995   3.653   3.804  0.4725 -0.7150  0.9733
14292TIP3    H264292   0.871   3.581   3.755 -0.7356  2.2058 -0.5134
14293TIP3   OH264293   4.063   6.324   2.640 -0.4489 -0.0035  0.7294
14293TIP3    H164294   4.094   6.367   2.561 -0.1650  0.3735  1.0414
14293TIP3    H264295   4.142   6.311   2.693 -0.8841  1.6579  1.8720
14294TIP3   OH264296   1.723   6.530  15.212  0.0166 -0.3499 -0.2471
14294TIP3    H164297   1.738   6.511  15.305 -0.7274  0.5974  0.0799
14294TIP3    H264298   1.795   6.486  15.167 -0.3334 -1.9348  0.6540
14295TIP3   OH264299   4.625   0.487   2.120 -0.3932 -0.1828  0.3089
14295TIP3    H164300   4.649   0.421   2.185  0.4995 -1.7863 -1.5213
14295TIP3    H264301   4.708   0.531   2.100 -0.4840 -0.2844 -0.3100
14296TIP3   OH264302   4.025   3.814   3.929  0.3691  0.6918 -0.1527
14296TIP3    H164303   3.972   3.852   3.859  0.5137  3.2032  1.0157
14296TIP3    H264304   3.975   3.737   3.957 -1.0993  1.2379 -1.1371
14297TIP3   OH264305   6.746   1.345   1.182 -0.0728 -0.0955  0.1812
14297TIP3    H164306   6.694   1.365   1.261 -0.0275 -1.1972  0.5038
14297TIP3    H264307   6.824   1.302   1.215  1.1921  1.7014 -0.2910
14298TIP3   OH264308   4.622   2.326   2.466 -0.2544 -0.1490  1.0906
14298TIP3    H164309   4.653   2.380   2.393 -1.6557  0.9860  1.3072
14298TIP3    H264310   4.667   2.242   2.453  0.4545  0.4123 -0.3828
14299TIP3   OH264311   4.101   4.178  14.121  0.4184 -0.4678 -0.4256
14299TIP3    H164312   4.096   4.183  14.026  1.0633  0.0803 -0.4406
14299TIP3    H264313   4.010   4.179  14.150  0.2255 -0.2593 -1.0233
14300TIP3   OH264314   1.982   2.002  12.702 -0.2279  0.9060  0.0671
14300TIP3    H164315   1.914   2.003  12.635 -2.1737  0.7748  1.9150
14300TIP3    H264316   1.941   2.042  12.779  2.3387  2.3083  0.8305
14301TIP3   OH264317   4.607   4.339  15.113  0.5245 -0.2643  0.4322
14301TIP3    H164318   4.523   4.367  15.078  0.0944 -1.2572  0.6358
14301TIP3    H264319   4.667   4.342  15.038  0.8265  2.3379  0.6869
14302TIP3   OH264320   1.189   5.745  13.267  0.2781  0.2313 -0.4279
14302TIP3    H164321   1.106   5.752  13.314  0.4257  1.4487 -0.3283
14302TIP3    H264322   1.198   5.828  13.221  0.7363 -0.4613 -1.6454
14303TIP3   OH264323   5.137   6.789   4.967  0.4492 -0.2496  0.0729
14303TIP3    H164324   5.051   6.824   4.989  0.3055 -0.0364 -0.7810
14303TIP3    H264325   5.197   6.833   5.027  0.1249  0.6396 -0.2386
14304TIP3   OH264326   4.306   1.122   2.056 -0.4519  0.2249  0.1854
14304TIP3    H164327   4.336   1.161   2.138 -0.7222  0.3381  0.2335
14304TIP3    H264328   4.214   1.148   2.050  0.1386  2.1120 -1.2724
14305TIP3   OH264329   5.747   0.530  15.054 -0.2465  0.0104 -0.3237
14305TIP3    H164330   5.708   0.447  15.083 -0.2412  0.3223  0.6005
14305TIP3    H264331   5.841   0.516  15.060 -0.2099 -0.3133 -1.3466
14306TIP3   OH264332   1.728   0.871   4.699 -0.1430  0.0321  0.1769
14306TIP3    H164333   1.744   0.965   4.710 -0.0229 -0.1029  1.2247
14306TIP3    H264334   1.693   0.864   4.610 -2.8109  1.4289  0.9921
14307TIP3   OH264335   6.738   4.127  16.005  0.4000 -0.2915  0.1058
14307TIP3    H164336   6.692   4.205  15.975  0.0825 -0.6954 -0.4798
14307TIP3    H264337   6.678   4.055  15.985  0.6002 -0.6647  0.8275
14308TIP3   OH264338   5.847   3.913   0.661  0.2354 -0.0851  0.1970
14308TIP3    H164339   5.786   3.842   0.678  1.0328 -1.2315 -1.4102
14308TIP3    H264340   5.914   3.874   0.605  1.6382  1.5074  0.6694
14309TIP3   OH264341   2.827   2.035   1.108 -0.5642 -0.4346  0.6694
14309TIP3    H164342   2.797   2.087   1.182 -3.4556 -1.7201  0.5083
14309TIP3    H264343   2.833   1.946   1.142  2.9056 -0.3766  0.5574
14310TIP3   OH264344   2.429   2.658  14.855  0.0346 -0.5310  0.3326
14310TIP3    H164345   2.504   2.718  14.863 -0.0370 -0.3390 -0.3244
14310TIP3    H264346   2.395   2.651  14.943  0.5841 -0.2946  0.5725
14311TIP3   OH264347   6.608   6.444   3.580 -0.3130  0.1796  0.1335
14311TIP3    H164348   6.690   6.482   3.547 -0.6871  1.2632  0.4097
14311TIP3    H264349   6.629   6.413   3.668 -0.0836  0.0164  0.0225
14312TIP3   OH264350   1.321   5.627   4.232 -0.4041 -0.2876  0.3852
14312TIP3    H164351   1.365   5.648   4.315  1.1078  0.7355 -0.6344
14312TIP3    H264352   1.229   5.647   4.249  0.1351  1.7779  1.2774
14313TIP3   OH264353   2.883   4.339   1.954 -0.1646 -0.4058 -0.0921
14313TIP3    H164354   2.969   4.299   1.959 -0.6205 -1.3143  0.7957
14313TIP3    H264355   2.824   4.267   1.932 -0.9794 -0.2379  1.4271
14314TIP3   OH264356   3.764   4.844   0.033  0.5534  0.7065 -0.4406
14314TIP3    H164357   3.809   4.765   0.064 -1.2003 -0.4272 -0.6524
14314TIP3    H264358   3.828   4.888  -0.022  2.2700  0.5164  1.2833
14315TIP3   OH264359   2.792   3.467  14.720  0.0122  0.0900  0.3760
14315TIP3    H164360   2.793   3.544  14.663 -1.2251  0.1730  0.4375
14315TIP3    H264361   2.738   3.404  14.673  1.7225 -1.1068 -0.0921
14316TIP3   OH264362   6.115   6.041   2.220 -0.5716 -0.1782 -0.4422
14316TIP3    H164363   6.084   6.107   2.282  1.1833 -0.1902  0.5176
14316TIP3    H264364   6.085   5.958   2.257  2.3262 -0.4068  1.7626
14317TIP3   OH264365   1.300   1.975  13.343 -0.3558  0.2123 -0.0897
14317TIP3    H164366   1.238   1.902  13.345 -0.4666  0.2889 -0.5373
14317TIP3    H264367   1.254   2.045  13.297  0.2521  0.0859 -0.9293
14318TIP3   OH264368   4.689   3.087  12.281 -0.1552 -0.0031  0.5935
14318TIP3    H164369   4.606   3.135  12.286 -1.4041 -1.6281 -2.0474
14318TIP3    H264370   4.666   2.997  12.305  0.6713 -0.6090 -0.7766
14319TIP3   OH264371   2.274   3.190  12.983 -0.1109  0.2058 -0.3246
14319TIP3    H164372   2.221   3.261  13.020  0.5932 -0.3637  1.9031
14319TIP3    H264373   2.332   3.234  12.921  0.0977  1.5623  0.7804
14320TIP3   OH264374   4.593   1.853  15.322 -0.4870 -0.0300  1.1578
14320TIP3    H164375   4.567   1.944  15.335  0.2232  0.4622 -0.5863
14320TIP3    H264376   4.647   1.833  15.399 -1.2082  0.7886  1.8982
14321TIP3   OH264377   5.846   5.394   3.540 -0.2008 -0.2363 -0.3184
14321TIP3    H164378   5.916   5.411   3.603  0.2743 -0.2299 -0.8443
14321TIP3    H264379   5.891   5.357   3.464 -0.8157 -0.6008 -0.5107
14322TIP3   OH264380   2.628   6.622  13.294  0.0030 -0.3000 -0.7130
14322TIP3    H164381   2.663   6.550  13.347  1.8002 -0.2970 -1.8180
14322TIP3    H264382   2.693   6.691  13.300 -2.0513  1.6239  0.9394
14323TIP3   OH264383   4.376   6.408  11.053  0.2795  0.0483 -0.1906
14323TIP3    H164384   4.447   6.347  11.074 -0.4122 -0.6569  0.1753
14323TIP3    H264385   4.383   6.475  11.121  1.8262  1.1006 -1.3247
14324TIP3   OH264386   4.091   2.213  16.583 -0.0763 -0.1891  0.2369
14324TIP3    H164387   4.176   2.247  16.611 -0.3837  0.5968  0.2479
14324TIP3    H264388   4.055   2.169  16.661  0.2403 -0.3703  0.2809
14325TIP3   OH264389   3.931   2.475  12.200  0.4807 -0.2314  0.1488
14325TIP3    H164390   3.896   2.386  12.205  0.9993 -0.3831  1.6005
14325TIP3    H264391   3.909   2.514  12.285  1.5986  0.4950  0.1324
14326TIP3   OH264392   5.593   2.482  12.884  0.6360  0.2052 -0.1544
14326TIP3    H164393   5.577   2.565  12.930 -0.6845 -0.4416  0.6111
14326TIP3    H264394   5.525   2.479  12.817 -0.0825 -0.7761  0.5853
14327TIP3   OH264395   6.217   3.887  14.423  0.0869  0.6169 -0.0860
14327TIP3    H164396   6.208   3.907  14.516  0.4548  0.6175 -0.0514
14327TIP3    H264397   6.245   3.969  14.383  0.2943  0.5211 -0.1401
14328TIP3   OH264398   5.358   5.934   5.971  0.3816  0.3180 -0.1905
14328TIP3    H164399   5.377   5.848   5.933  0.9005  0.1933  0.3424
14328TIP3    H264400   5.365   5.995   5.897  1.5421  0.0943 -0.2838
14329TIP3   OH264401   0.880   1.835  12.541 -0.0544 -0.4537 -0.1077
14329TIP3    H164402   0.854   1.924  12.563  0.4753 -0.4282  0.4735
14329TIP3    H264403   0.973   1.831  12.566  0.0518 -1.0190 -0.5825
14330TIP3   OH264404   0.842   2.522  14.272 -0.6717  0.2915  0.0825
14330TIP3    H164405   0.869   2.475  14.193  0.9122  0.5124  0.4598
14330TIP3    H264406   0.924   2.552  14.311 -1.5004  1.1783  1.2046
14331TIP3   OH264407   4.518   3.581   1.996  0.1796 -0.1872 -0.0581
14331TIP3    H164408   4.591   3.619   1.947  0.8112 -0.4647  0.6514
14331TIP3    H264409   4.559   3.516   2.052 -0.6437 -0.4598  0.2305
14332TIP3   OH264410   4.892   4.073  14.797 -0.3558  0.1743  0.4413
14332TIP3    H164411   4.849   3.993  14.827  0.7772 -1.4738 -2.0048
14332TIP3    H264412   4.959   4.091  14.864 -0.0095 -1.4884  0.5745
14333TIP3   OH264413   6.205   3.866  14.146 -0.6726  0.6289 -0.2786
14333TIP3    H164414   6.218   3.844  14.238 -2.1580  0.2501 -0.1463
14333TIP3    H264415   6.158   3.791  14.110  0.2901  0.5648 -1.4724
14334TIP3   OH264416   3.417   5.287   0.577 -0.2454  0.0500  0.0585
14334TIP3    H164417   3.321   5.278   0.573 -0.2595 -0.0605  0.5862
14334TIP3    H264418   3.450   5.215   0.524 -0.4424 -0.5191  0.6980
14335TIP3   OH264419   1.061   4.418   4.690 -0.1659  0.3613  0.2260
14335TIP3    H164420   1.138   4.365   4.669 -1.3633 -2.2036  1.8103
14335TIP3    H264421   1.013   4.366   4.754 -1.4443  3.4674  2.0212
14336TIP3   OH264422   4.340   1.783  14.717  0.1428  0.5699  0.2876
14336TIP3    H164423   4.368   1.794  14.626  0.3015 -0.2064  0.2291
14336TIP3    H264424   4.417   1.748  14.762 -0.1567  0.2270  0.5456
14337TIP3   OH264425   0.343   1.126  13.899  0.1147 -0.3008 -0.0113
14337TIP3    H164426   0.366   1.044  13.942  0.3819 -1.8006 -2.7784
14337TIP3    H264427   0.279   1.101  13.833 -0.8476  1.9893 -0.0505
14338TIP3   OH264428   1.826   5.961  12.896 -0.6484 -0.3365 -0.9863
14338TIP3    H164429   1.736   5.971  12.927 -0.9631 -1.4478 -1.4879
14338TIP3    H264430   1.817   5.937  12.803  0.1832  0.0513 -1.1822
14339TIP3   OH264431   1.548   3.250  14.009 -0.1098  0.1372 -0.3609
14339TIP3    H164432   1.603   3.198  13.951 -0.5827  0.7962 -1.4187
14339TIP3    H264433   1.511   3.186  14.070  0.9145 -0.4685 -0.3516
14340TIP3   OH264434   2.895   4.162  14.957 -0.2047  0.0925  0.1329
14340TIP3    H164435   2.894   4.078  14.910  2.6134 -0.1747  0.3597
14340TIP3    H264436   2.870   4.227  14.892  0.0210 -0.6722 -0.7340
14341TIP3   OH264437   4.386   0.279   0.651 -0.4465  0.1131  0.3110
14341TIP3    H164438   4.356   0.214   0.587  0.0392  0.4044 -0.2225
14341TIP3    H264439   4.480   0.287   0.635 -0.2502 -0.0585  1.3014
14342TIP3   OH264440   1.342   3.377  16.098 -0.0071  0.0598 -0.1657
14342TIP3    H164441   1.419   3.321  16.084  0.5393  1.1656 -1.9103
14342TIP3    H264442   1.313   3.400  16.009 -0.2196  2.5128  0.4859
14343TIP3   OH264443   5.765   1.145  15.759  0.4977  0.0950 -0.8747
14343TIP3    H164444   5.759   1.115  15.849 -0.3287  0.6452 -0.7412
14343TIP3    H264445   5.701   1.091  15.711 -1.8684  2.3252 -0.4265
14344TIP3   OH264446   4.301   2.122   2.482  0.0385 -0.5730  0.1756
14344TIP3    H164447   4.304   2.191   2.549 -1.7243  0.1802 -0.4506
14344TIP3    H264448   4.213   2.085   2.489  0.2074 -1.2554 -0.9634
14345TIP3   OH264449   5.843   0.071   3.099 -0.2029 -0.1272 -0.6115
14345TIP3    H164450   5.860   0.108   3.012  1.6941  2.7270  0.7943
14345TIP3    H264451   5.782   0.133   3.139 -1.8825 -1.9665 -0.1966
14346TIP3   OH264452   3.260   6.365  16.346 -0.3542  0.5254 -0.0640
14346TIP3    H164453   3.329   6.382  16.281  0.2626  0.0130  0.4457
14346TIP3    H264454   3.292   6.406  16.426 -0.3009 -0.3428  0.3635
14347TIP3   OH264455   1.686   2.989  13.394 -0.2543  0.1876 -0.5856
14347TIP3    H164456   1.772   2.977  13.355  0.4624 -0.2451  1.0405
14347TIP3    H264457   1.627   2.935  13.341  0.4964  0.3458 -1.6003
14348TIP3   OH264458   0.074   0.238   6.515  0.7188 -0.5470  0.2081
14348TIP3    H164459  -0.005   0.184   6.505  0.2173  0.1385  0.3775
14348TIP3    H264460   0.146   0.179   6.496  0.2393 -1.5483  1.3646
14349TIP3   OH264461   0.966   4.048   5.073 -0.7940 -0.5008  0.2986
14349TIP3    H164462   1.055   4.027   5.046 -0.3968  0.9833  0.3725
14349TIP3    H264463   0.960   4.017   5.163 -0.5114 -1.0071  0.1473
14350TIP3   OH264464   1.958   1.128   5.550 -0.0272 -0.4637  0.0689
14350TIP3    H164465   1.888   1.086   5.601  0.7489  0.5790  2.1245
14350TIP3    H264466   1.987   1.201   5.605 -0.2627  1.8415 -2.6443
14351TIP3   OH264467   6.513   1.189   0.364 -0.2801 -0.2584 -0.0162
14351TIP3    H164468   6.596   1.228   0.393  0.1673 -1.8299  0.9208
14351TIP3    H264469   6.539   1.121   0.302 -0.6279 -2.3123  1.9616
14352TIP3   OH264470   5.986   6.649  12.890  0.8103 -0.1880 -0.2256
14352TIP3    H164471   5.945   6.598  12.821 -0.9257  0.6157  0.1691
14352TIP3    H264472   5.965   6.740  12.870  3.3939  0.4269 -0.6197
14353TIP3   OH264473   4.907   5.066  13.196  0.5702 -1.1087  0.1055
14353TIP3    H164474   4.983   5.037  13.246  2.4570  1.9198 -0.7346
14353TIP3    H264475   4.935   5.062  13.105  1.0279  2.8375 -0.1181
14354TIP3   OH264476   1.613   1.294   3.860  0.3269 -0.1533  0.4372
14354TIP3    H164477   1.519   1.275   3.861 -0.0091  1.3891  0.6951
14354TIP3    H264478   1.631   1.331   3.947  1.6149 -2.2534  1.1445
14355TIP3   OH264479   3.951   1.219   4.342 -0.3001  0.4522  0.5387
14355TIP3    H164480   3.992   1.185   4.422 -0.4434 -0.6174  0.1663
14355TIP3    H264481   3.888   1.284   4.374 -0.9537 -0.5574  1.3624
14356TIP3   OH264482   3.327   0.200  11.640 -0.1794 -0.1143  0.0362
14356TIP3    H164483   3.279   0.120  11.622  1.1756 -0.5592 -1.9735
14356TIP3    H264484   3.340   0.200  11.735 -1.5311 -1.4724  0.2459
14357TIP3   OH264485   2.174   6.582  12.929  0.5068  0.3030  0.1753
14357TIP3    H164486   2.098   6.587  12.988  1.5026  2.0758  1.4107
14357TIP3    H264487   2.191   6.673  12.904  2.4983  0.0334  0.3553
14358TIP3   OH264488   3.725   5.124  15.226 -0.6799 -0.1973  0.0894
14358TIP3    H164489   3.633   5.123  15.253 -0.8612  0.8313 -0.4533
14358TIP3    H264490   3.731   5.052  15.163 -1.4304  0.5200 -0.8339
14359TIP3   OH264491   0.301   4.826  12.732 -0.0278  0.0522  0.1591
14359TIP3    H164492   0.320   4.879  12.654  2.6638 -0.5475  0.3181
14359TIP3    H264493   0.296   4.736  12.699  0.4363 -0.1284  0.5723
14360TIP3   OH264494   1.867   2.262   5.467 -0.2604 -0.8433 -0.2715
14360TIP3    H164495   1.898   2.189   5.413 -1.4654 -1.1433 -0.6039
14360TIP3    H264496   1.789   2.228   5.511 -0.4304  0.0262  0.1257
14361TIP3   OH264497   5.968   4.230   4.247  0.0109  0.4102 -0.8731
14361TIP3    H164498   5.956   4.210   4.340  1.1528 -0.8074 -0.9625
14361TIP3    H264499   5.915   4.309   4.232  0.5787  1.1938  1.0247
14362TIP3   OH264500   6.648   1.351   4.732 -0.0493  0.1298  0.2034
14362TIP3    H164501   6.564   1.344   4.685  0.1060 -2.5081  0.1451
14362TIP3    H264502   6.712   1.367   4.663 -0.4527  1.9796  0.2256
14363TIP3   OH264503   5.052   1.602   3.678 -0.4525 -0.0560 -0.1083
14363TIP3    H164504   5.142   1.628   3.701 -0.8123  0.6004  0.5845
14363TIP3    H264505   5.042   1.515   3.716  0.0056 -0.2770 -0.4852
14364TIP3   OH264506   0.484   5.488  15.348  0.5671  0.0264  0.1006
14364TIP3    H164507   0.536   5.429  15.402  1.1536  2.9783  3.1237
14364TIP3    H264508   0.395   5.481  15.382  0.3535 -0.0650 -0.4583
14365TIP3   OH264509   4.801   2.525   1.189  0.1407 -0.0881 -0.2899
14365TIP3    H164510   4.776   2.618   1.190  1.0329  0.1978  2.0387
14365TIP3    H264511   4.845   2.511   1.273  2.4862 -1.9789 -1.7123
14366TIP3   OH264512   5.601   1.080  14.028  0.1035  0.2272 -0.4997
14366TIP3    H164513   5.555   0.996  14.024  0.9452 -0.2375 -0.4271
14366TIP3    H264514   5.533   1.145  14.005 -0.6356 -0.4298 -0.2096
14367TIP3   OH264515   6.456   5.726   5.635 -0.2041 -0.4135  0.3613
14367TIP3    H164516   6.443   5.699   5.726  1.5780  0.0101  0.7846
14367TIP3    H264517   6.481   5.645   5.590 -0.8386 -0.5774  0.3024
14368TIP3   OH264518   6.463   1.856   1.145  0.4156  0.4067 -0.6779
14368TIP3    H164519   6.521   1.929   1.123  0.3645  1.0286  1.0689
14368TIP3    H264520   6.470   1.849   1.240 -1.2431 -0.4736 -0.5926
14369TIP3   OH264521   6.596   5.542   4.425 -0.4235 -0.4252 -0.2712
14369TIP3    H164522   6.684   5.514   4.451 -0.9545 -1.0117  0.9598
14369TIP3    H264523   6.610   5.593   4.345  1.0220 -0.5758 -0.1411
14370TIP3   OH264524   2.893   1.670  12.709  0.2058  0.2578 -0.0907
14370TIP3    H164525   2.832   1.700  12.776 -1.0095 -0.2711 -0.9170
14370TIP3    H264526   2.846   1.683  12.627  1.6953  0.9981 -0.8724
14371TIP3   OH264527   2.792   3.105  14.967  0.1043 -0.0155 -0.1879
14371TIP3    H164528   2.802   3.061  15.051 -0.3849 -0.1575 -0.2003
14371TIP3    H264529   2.881   3.126  14.940  0.1651  1.7788  1.2855
14372TIP3   OH264530   3.189   3.047   7.104  0.1088 -0.3482 -0.0022
14372TIP3    H164531   3.273   3.007   7.125 -0.2445 -0.0899  2.0770
14372TIP3    H264532   3.209   3.140   7.096  0.2434 -0.4453 -0.9613
14373TIP3   OH264533   0.887   5.193   5.034  0.0141  0.0034 -0.3661
14373TIP3    H164534   0.961   5.135   5.016  0.8499  0.8231  0.3019
14373TIP3    H264535   0.927   5.279   5.050 -1.1945  0.8003 -1.4194
14374TIP3   OH264536   6.444   5.523   2.820 -0.1747 -0.2041  0.2739
14374TIP3    H164537   6.468   5.459   2.888 -1.9250 -0.8036  0.3757
14374TIP3    H264538   6.428   5.470   2.742  1.1375  0.4232 -0.4593
14375TIP3   OH264539   3.978   4.512  11.636  0.2631 -0.3448 -0.3616
14375TIP3    H164540   4.023   4.453  11.696  0.2709 -1.1662 -1.1488
14375TIP3    H264541   4.012   4.599  11.658 -0.6275 -0.4365  1.6102
14376TIP3   OH264542   4.709   6.552   0.590 -0.4740  0.3140 -0.0683
14376TIP3    H164543   4.708   6.594   0.675  0.6907  1.9881 -0.8322
14376TIP3    H264544   4.799   6.523   0.578 -1.0062 -1.4915 -0.0293
14377TIP3   OH264545   3.289   2.985  13.454  0.1822 -0.6442 -0.0232
14377TIP3    H164546   3.238   3.063  13.474 -0.9305 -1.7618  1.8235
14377TIP3    H264547   3.227   2.926  13.411  0.5006 -1.1951  0.2574
14378TIP3   OH264548   0.839   5.944   3.880 -0.0223 -0.1429  0.0063
14378TIP3    H164549   0.790   5.911   3.805  1.4729  1.7763 -1.9646
14378TIP3    H264550   0.806   6.032   3.894  1.8857  0.7202 -0.5592
14379TIP3   OH264551   0.358   3.122   0.828  0.2142 -0.4167 -0.1570
14379TIP3    H164552   0.289   3.082   0.882  0.7876 -2.5779 -0.9381
14379TIP3    H264553   0.363   3.066   0.750  0.6589  1.5730 -1.6267
14380TIP3   OH264554   4.105   4.373   4.814 -0.3544  0.1076  0.6069
14380TIP3    H164555   4.103   4.305   4.881 -1.4207 -0.3490  0.1330
14380TIP3    H264556   4.095   4.455   4.862  1.7497  0.0545  1.2726
14381TIP3   OH264557   6.625   4.749  17.220  0.3315  0.4662  0.1691
14381TIP3    H164558   6.590   4.734  17.308 -0.3848 -0.0569 -0.1937
14381TIP3    H264559   6.702   4.693  17.215 -0.5913 -0.8399 -0.1055
14382TIP3   OH264560   3.981   2.162   3.593  0.1238  0.2087  0.6465
14382TIP3    H164561   4.051   2.185   3.654  2.0491  0.2267 -1.4255
14382TIP3    H264562   3.949   2.078   3.624  2.3788 -0.7195  0.6563
14383TIP3   OH264563   4.896   4.456  14.979 -0.6398  0.7413 -0.5471
14383TIP3    H164564   4.847   4.480  15.058  0.6050 -1.0956  0.8514
14383TIP3    H264565   4.952   4.532  14.962  0.0334  0.6628  1.1464
14384TIP3   OH264566   6.443   5.754  10.987  0.3287  0.1140  0.2449
14384TIP3    H164567   6.385   5.733  10.914 -1.6884  1.0383  1.5022
14384TIP3    H264568   6.499   5.677  10.996 -1.6220 -1.4280 -0.1476
14385TIP3   OH264569   5.779   2.661  15.246 -0.3637  0.1692 -0.3861
14385TIP3    H164570   5.856   2.642  15.193  0.4098 -0.0175  0.7763
14385TIP3    H264571   5.809   2.653  15.336 -0.9219  3.1566  0.1670
14386TIP3   OH264572   1.060   4.245   1.370 -0.7891 -0.4812 -0.6135
14386TIP3    H164573   1.093   4.321   1.418 -2.3941 -1.1274  1.7108
14386TIP3    H264574   0.993   4.281   1.312  0.2029  0.1437 -1.4077
14387TIP3   OH264575   6.247   1.253   5.432  0.3940 -0.5950 -0.0309
14387TIP3    H164576   6.339   1.249   5.458  0.5953 -1.5223 -0.8211
14387TIP3    H264577   6.245   1.217   5.343 -0.4757  1.1404 -0.7610
14388TIP3   OH264578   3.971   5.478   3.849 -0.1243  0.2058 -0.1407
14388TIP3    H164579   3.963   5.386   3.870 -1.5802  0.5637  0.9933
14388TIP3    H264580   3.942   5.524   3.928  2.3066  1.6715  0.0146
14389TIP3   OH264581   3.760   2.443   1.027  0.1146  0.7236  0.1427
14389TIP3    H164582   3.808   2.511   1.074 -0.2437  0.3794  1.0408
14389TIP3    H264583   3.694   2.491   0.977  0.6853  1.1214 -0.2327
14390TIP3   OH264584   5.917   4.039   2.646 -0.1213 -0.2278 -0.0750
14390TIP3    H164585   5.941   3.948   2.664 -0.8549 -0.0934  1.8340
14390TIP3    H264586   5.844   4.033   2.585 -0.7239 -0.9832  0.6949
14391TIP3   OH264587   1.663   4.812  14.810 -0.3382  0.2987  0.0347
14391TIP3    H164588   1.743   4.760  14.807 -1.8176 -2.2290  1.0473
14391TIP3    H264589   1.684   4.891  14.762  3.4106  0.7147  1.9913
14392TIP3   OH264590   6.084   3.142   5.419 -0.6544  0.2524 -0.4816
14392TIP3    H164591   6.053   3.060   5.382 -0.1725 -0.1656  0.0363
14392TIP3    H264592   6.150   3.173   5.357  0.8128 -0.9039  0.4525
14393TIP3   OH264593   4.512   3.751   2.655 -0.5378  0.0705 -0.5766
14393TIP3    H164594   4.604   3.739   2.633 -0.8491 -0.2437 -1.7686
14393TIP3    H264595   4.485   3.828   2.605 -0.5690  1.0903  0.9249
14394TIP3   OH264596   2.444   5.603  17.249 -0.4897  0.3013  0.3359
14394TIP3    H164597   2.388   5.591  17.325 -0.1980 -1.5790  0.3082
14394TIP3    H264598   2.475   5.515  17.228  2.1582  1.1819  0.0996
14395TIP3   OH264599   6.675   5.432  13.780  0.2896  0.2200  0.3563
14395TIP3    H164600   6.700   5.525  13.773 -2.1824  0.9168 -0.0311
14395TIP3    H264601   6.634   5.426  13.867  0.1767 -0.4382  0.2567
14396TIP3   OH264602   2.631   2.826  14.518 -0.1687  0.8065 -0.7976
14396TIP3    H164603   2.726   2.825  14.529 -0.3566  1.7811  1.4836
14396TIP3    H264604   2.612   2.751  14.462  1.7942 -0.5926  0.2819
14397TIP3   OH264605   2.863   3.997  13.008 -0.3584  0.3169 -0.3516
14397TIP3    H164606   2.801   3.960  13.071  0.4097  0.2505  0.3908
14397TIP3    H264607   2.838   3.959  12.924  1.1998 -3.0540  0.5364
14398TIP3   OH264608   3.784   3.217  16.398  0.0120  0.0138  0.2774
14398TIP3    H164609   3.700   3.224  16.354  0.6155 -2.1605 -1.3800
14398TIP3    H264610   3.764   3.176  16.482 -0.8004  1.5457  0.8688
14399TIP3   OH264611   0.950   6.380   5.557  0.1435 -0.2204 -0.1812
14399TIP3    H164612   0.969   6.313   5.492  1.1120 -2.2383  2.0271
14399TIP3    H264613   0.994   6.349   5.637 -0.1231  2.6201  1.1853
14400TIP3   OH264614   3.063   5.777   2.447  0.0512 -0.3035  0.1867
14400TIP3    H164615   3.107   5.692   2.442  2.9456  1.1438 -2.7561
14400TIP3    H264616   3.102   5.821   2.522 -0.6242 -1.0963  1.0236
14401TIP3   OH264617   4.459   2.736  16.257 -0.2260  0.4538 -0.3890
14401TIP3    H164618   4.490   2.663  16.202 -0.6367  1.6344 -2.2847
14401TIP3    H264619   4.395   2.697  16.316  1.9483 -1.3155  0.9511
14402TIP3   OH264620   2.628   3.261  15.145  0.0034  0.3628 -0.3244
14402TIP3    H164621   2.664   3.191  15.090 -0.3849  1.2913 -1.8197
14402TIP3    H264622   2.552   3.221  15.188 -0.8743  0.1368 -2.0065
14403TIP3   OH264623   5.806   3.719   1.256 -0.0171 -0.2515  0.0959
14403TIP3    H164624   5.887   3.751   1.295 -0.9594 -0.4594  2.3774
14403TIP3    H264625   5.792   3.775   1.179  0.7174  1.7805  1.3795
14404TIP3   OH264626   5.872   3.397   4.675  0.0234  0.4868  0.1805
14404TIP3    H164627   5.880   3.484   4.636 -0.1336  0.3367 -0.1848
14404TIP3    H264628   5.839   3.414   4.764 -1.3212  0.7205 -0.3419
14405TIP3   OH264629   1.192   1.725   0.332  0.6928 -0.2527  0.9782
14405TIP3    H164630   1.246   1.662   0.379  1.0611 -0.3802  0.3847
14405TIP3    H264631   1.110   1.678   0.314  0.6956 -0.3263  1.1561
14406TIP3   OH264632   1.920   4.664   0.010  0.5131  0.2043 -0.0650
14406TIP3    H164633   1.991   4.724   0.033  1.8448 -0.3401 -2.3947
14406TIP3    H264634   1.841   4.708   0.041  1.7543  1.3028  1.7473
14407TIP3   OH264635   4.224   2.593  15.448 -0.2975  0.1956 -0.7604
14407TIP3    H164636   4.210   2.648  15.524 -0.4044 -0.2377 -0.4653
14407TIP3    H264637   4.319   2.598  15.432 -0.2626  0.2203 -0.5488
14408TIP3   OH264638   5.036   0.854   5.633 -0.5300  0.0047 -0.1324
14408TIP3    H164639   5.028   0.803   5.553  2.7915  1.3437 -1.5258
14408TIP3    H264640   5.066   0.791   5.699 -1.5702 -0.7640 -0.3692
14409TIP3   OH264641   0.043   4.829   0.472 -0.7570  0.8899  0.7230
14409TIP3    H164642   0.011   4.757   0.418  1.3113 -0.0549  0.6580
14409TIP3    H264643  -0.014   4.829   0.549 -1.8417  0.3059 -0.0489
14410TIP3   OH264644   2.379   5.057  17.103  0.5952  0.0388 -0.3602
14410TIP3    H164645   2.381   4.970  17.144 -0.0904 -1.2981 -2.9641
14410TIP3    H264646   2.397   5.041  17.011  0.3950  2.6927 -0.9478
14411TIP3   OH264647   6.343   3.475   3.191 -0.6023  0.3644 -0.2866
14411TIP3    H164648   6.366   3.383   3.206 -1.0429  0.1152 -1.0880
14411TIP3    H264649   6.423   3.514   3.154  0.2119  0.7816  1.7822
14412TIP3   OH264650   2.488   2.070  10.910 -0.1240  0.1873 -0.7730
14412TIP3    H164651   2.457   2.031  10.829  0.5626 -0.3232 -0.8026
14412TIP3    H264652   2.567   2.117  10.885  0.3633 -0.3749 -0.3272
14413TIP3   OH264653   6.343   5.610  15.031  0.1573  0.1227  0.0075
14413TIP3    H164654   6.409   5.679  15.038  2.2860 -1.5762 -1.6905
14413TIP3    H264655   6.289   5.636  14.956  0.9829 -0.0380 -0.6605
14414TIP3   OH264656   6.535   6.314   0.965  0.3062  0.0792  0.1464
14414TIP3    H164657   6.621   6.277   0.982  1.0614  1.4257 -0.6550
14414TIP3    H264658   6.495   6.254   0.902 -0.2007 -1.6866  2.0472
14415TIP3   OH264659   3.422   1.154   2.345 -0.0685  0.5854 -0.1136
14415TIP3    H164660   3.404   1.247   2.330 -1.9349  0.2750  0.0372
14415TIP3    H264661   3.361   1.129   2.414 -0.3514 -1.0263 -0.9207
14416TIP3   OH264662   0.418   5.026   4.098 -0.6786  0.1447 -0.1842
14416TIP3    H164663   0.478   4.990   4.164  2.0576  0.5090 -2.2859
14416TIP3    H264664   0.395   4.951   4.043 -1.6094  0.1623  0.1518
14417TIP3   OH264665   1.699   2.940   2.520 -0.0438  0.2213  0.1247
14417TIP3    H164666   1.774   2.973   2.470 -0.3887 -0.1838 -0.6737
14417TIP3    H264667   1.700   2.991   2.601  2.0597 -0.9010  0.8652
14418TIP3   OH264668   6.084   3.969  10.194 -0.2112 -0.0649 -0.3132
14418TIP3    H164669   6.023   3.912  10.240  0.5050  0.2446  1.1052
14418TIP3    H264670   6.041   4.054  10.192 -0.3249 -0.1242 -0.3729
14419TIP3   OH264671   0.878   6.151  11.903  0.3247 -0.1315 -0.4386
14419TIP3    H164672   0.916   6.167  11.817 -2.4409  0.9029 -1.5759
14419TIP3    H264673   0.913   6.222  11.958  0.3386  0.5547 -1.3136
14420TIP3   OH264674   2.040   0.061   4.589  0.3261  0.0856  0.8498
14420TIP3    H164675   2.118   0.084   4.539 -0.1972 -0.6056 -0.3270
14420TIP3    H264676   2.065  -0.015   4.641  0.4456 -0.1246  0.4854
14421TIP3   OH264677   4.432   4.128   1.435  0.5949  0.3780 -0.1043
14421TIP3    H164678   4.421   4.219   1.408  0.1595  0.1796 -0.6121
14421TIP3    H264679   4.463   4.083   1.357 -0.7372 -0.2086 -0.3321
14422TIP3   OH264680   4.391   1.452   0.593  0.2701 -0.1311  0.0594
14422TIP3    H164681   4.296   1.439   0.592 -0.0239  1.7103 -0.3918
14422TIP3    H264682   4.416   1.450   0.500  0.9582 -2.2362  0.2594
14423TIP3   OH264683   2.171   4.021   0.142 -0.4926 -0.0150 -0.0324
14423TIP3    H164684   2.175   4.095   0.082  0.6760  1.3601  1.6280
14423TIP3    H264685   2.263   3.996   0.156 -0.7395 -0.3967  1.0406
14424TIP3   OH264686   4.506   6.188  16.228 -0.8435  0.0227  0.6317
14424TIP3    H164687   4.514   6.094  16.241 -1.4410 -0.0407  0.5714
14424TIP3    H264688   4.420   6.200  16.188  0.5632  0.2930 -2.6148
14425TIP3   OH264689   5.152   5.010  12.294  0.2604  0.4814 -0.0457
14425TIP3    H164690   5.200   5.093  12.300 -0.4814  0.8372  1.6200
14425TIP3    H264691   5.215   4.944  12.323 -0.1169  0.9227  1.9410
14426TIP3   OH264692   1.880   6.476  13.181  1.2354 -0.0163 -0.8117
14426TIP3    H164693   1.889   6.555  13.128  2.0907 -0.2499 -1.0439
14426TIP3    H264694   1.875   6.508  13.271 -1.3953  0.4548 -1.0485
14427TIP3   OH264695   3.992   5.881  13.044 -0.4926 -0.1650 -0.4454
14427TIP3    H164696   3.971   5.798  13.089 -0.2477 -0.4209 -0.7970
14427TIP3    H264697   3.930   5.884  12.971  0.6741 -0.9405 -1.5104
14428TIP3   OH264698   6.452   4.855   2.220  0.4002  0.0678 -0.1085
14428TIP3    H164699   6.511   4.783   2.242 -0.4524 -0.6272 -0.0667
14428TIP3    H264700   6.391   4.859   2.294  0.4793  0.8845 -0.0762
14429TIP3   OH264701   2.474   4.364  16.015  1.0809 -0.4682 -0.3213
14429TIP3    H164702   2.506   4.439  16.065  0.9454  0.0256 -0.9534
14429TIP3    H264703   2.395   4.396  15.972  0.8641 -1.0650 -0.3731
14430TIP3   OH264704   1.516   4.327   2.134 -0.4073 -0.7296 -0.0426
14430TIP3    H164705   1.580   4.384   2.091 -2.0114  0.3083 -1.2039
14430TIP3    H264706   1.518   4.354   2.226  2.5070 -2.4294  0.5025
14431TIP3   OH264707   4.192   1.412  15.654  0.0826 -1.1259  0.6971
14431TIP3    H164708   4.229   1.367  15.578  1.7884 -2.7187  2.3602
14431TIP3    H264709   4.129   1.350  15.691 -0.1172 -0.7099  1.0756
14432TIP3   OH264710   1.490   4.893   3.014 -0.3104  0.2931 -0.1039
14432TIP3    H164711   1.410   4.884   2.961 -0.0003  0.7404 -0.6597
14432TIP3    H264712   1.555   4.840   2.968 -0.5187 -0.8466  0.8656
14433TIP3   OH264713   4.261   3.009   4.494 -0.4131 -0.2790  0.5199
14433TIP3    H164714   4.357   3.013   4.503 -0.3167 -1.4591  0.2700
14433TIP3    H264715   4.228   3.025   4.582 -0.0478  1.3393  0.3879
14434TIP3   OH264716   4.963   3.894  17.214 -0.0804  0.1621  0.3787
14434TIP3    H164717   4.953   3.889  17.119 -1.9445 -0.1124  0.5448
14434TIP3    H264718   5.023   3.823  17.235 -1.5937 -1.4491 -0.3953
14435TIP3   OH264719   0.765   6.086  16.078 -0.8375 -0.0390  0.4676
14435TIP3    H164720   0.717   6.022  16.027 -0.1985  0.2777 -0.5684
14435TIP3    H264721   0.736   6.171  16.044 -0.2626  0.1694  0.4773
14436TIP3   OH264722   0.575   0.344   2.999  0.2177  0.2194  0.2395
14436TIP3    H164723   0.585   0.412   2.933 -2.1285  1.1897  0.8045
14436TIP3    H264724   0.502   0.291   2.968  1.8923 -2.0404 -0.1077
14437TIP3   OH264725   0.919   0.131  12.286 -0.2495  0.7267 -0.5317
14437TIP3    H164726   0.899   0.047  12.243 -1.5808 -0.7724  2.6556
14437TIP3    H264727   0.838   0.182  12.278  0.1874  1.3067 -1.4823
14438TIP3   OH264728   2.237   2.129  13.432 -0.1917 -0.6399  0.2003
14438TIP3    H164729   2.154   2.166  13.404 -0.7622 -1.7567  0.3610
14438TIP3    H264730   2.292   2.131  13.353 -0.9194 -1.3628 -0.3440
14439TIP3   OH264731   6.651   6.748  12.608  0.0192  0.6320  0.1175
14439TIP3    H164732   6.591   6.818  12.633 -0.3810  0.4021 -0.1927
14439TIP3    H264733   6.639   6.681  12.675 -0.7112  0.2168 -0.4140
14440TIP3   OH264734   4.336   4.299  13.885  0.2123 -0.2356  0.2765
14440TIP3    H164735   4.292   4.359  13.945  1.7961  0.8279  0.4443
14440TIP3    H264736   4.295   4.315  13.800  0.4109  0.9073  0.3822
14441TIP3   OH264737   2.089   0.665  11.019 -0.6301  0.1612 -0.1632
14441TIP3    H164738   2.119   0.754  11.004  1.2146 -0.3164  0.4224
14441TIP3    H264739   2.128   0.615  10.947 -1.6545 -0.1825 -0.4910
14442TIP3   OH264740   0.687   2.087  13.519 -0.1152  0.1263 -0.0671
14442TIP3    H164741   0.704   2.002  13.478 -0.8299 -0.6157  1.1003
14442TIP3    H264742   0.599   2.078  13.556 -1.0242  2.0708 -1.5957
14443TIP3   OH264743   2.435   5.089  14.728  0.4158 -0.4148 -0.3449
14443TIP3    H164744   2.350   5.046  14.720  0.5359 -0.4093 -1.7605
14443TIP3    H264745   2.427   5.141  14.809 -0.4484 -1.4330  0.2514
14444TIP3   OH264746   2.435   5.569   5.210  0.3401 -0.1391 -0.0592
14444TIP3    H164747   2.460   5.478   5.198 -0.3507 -0.6284  1.9225
14444TIP3    H264748   2.417   5.578   5.304 -1.3797  1.5720 -0.4781
14445TIP3   OH264749   5.504   2.308   2.573 -0.4887 -0.6452  0.6676
14445TIP3    H164750   5.458   2.369   2.516 -2.6281 -2.1229  0.7051
14445TIP3    H264751   5.478   2.333   2.662  0.9371  0.1447  0.8990
14446TIP3   OH264752   4.997   4.823  13.605  0.2159 -0.2720 -0.5225
14446TIP3    H164753   5.057   4.841  13.678 -1.3002 -0.6281  0.8679
14446TIP3    H264754   4.963   4.908  13.581  0.5874 -0.1721 -0.7061
14447TIP3   OH264755   2.247   6.524  11.215 -0.2757 -0.6776 -0.4441
14447TIP3    H164756   2.160   6.563  11.214  0.7014  1.7071 -2.2296
14447TIP3    H264757   2.242   6.452  11.152 -0.8228 -0.2582 -0.8847
14448TIP3   OH264758   6.695   4.303  17.223  0.0399 -0.6502  0.2491
14448TIP3    H164759   6.625   4.356  17.261 -0.2880 -0.4820 -0.5804
14448TIP3    H264760   6.759   4.367  17.192 -0.3878 -0.7178 -0.8162
14449TIP3   OH264761   5.287   6.076  10.922 -0.3163  0.4743 -0.3896
14449TIP3    H164762   5.324   6.071  10.834 -0.2951  1.0642 -0.4138
14449TIP3    H264763   5.212   6.135  10.913 -0.7228  0.0055 -0.1501
14450TIP3   OH264764   5.053   2.925  16.503  0.0616  0.7699 -0.1156
14450TIP3    H164765   5.052   2.908  16.597  2.3824  1.1913  0.0520
14450TIP3    H264766   4.969   2.967  16.485 -1.1611 -0.8683  1.4167
14451TIP3   OH264767   6.692   0.604   2.818 -0.1918 -0.2421  0.0550
14451TIP3    H164768   6.726   0.685   2.781  0.2735 -0.0897  0.8134
14451TIP3    H264769   6.759   0.538   2.798  0.0901 -0.1476  0.6580
14452TIP3   OH264770   5.496   1.435  14.456 -0.1632  0.4810 -0.2890
14452TIP3    H164771   5.442   1.480  14.521 -0.5926  0.2647 -0.4950
14452TIP3    H264772   5.584   1.470  14.470  0.1358 -0.9317  1.6678
14453TIP3   OH264773   5.218   1.134  14.641 -0.4220  0.2494  0.2288
14453TIP3    H164774   5.175   1.219  14.634 -2.7745 -0.9902 -2.9037
14453TIP3    H264775   5.300   1.145  14.593 -0.1478  1.0051  0.8410
14454TIP3   OH264776   6.200   0.307  12.549 -0.1255  0.1386 -0.8092
14454TIP3    H164777   6.121   0.273  12.506 -1.1529 -0.1059  1.1763
14454TIP3    H264778   6.178   0.397  12.571 -1.5398 -0.9943  3.3074
14455TIP3   OH264779   3.510   5.793  11.945  0.1853 -0.9243  0.1583
14455TIP3    H164780   3.554   5.712  11.969  1.7919 -0.0050  0.4468
14455TIP3    H264781   3.578   5.860  11.951 -1.2900  0.5867  0.7551
14456TIP3   OH264782   3.182   4.829   4.316  0.3138 -0.0685  0.1167
14456TIP3    H164783   3.239   4.786   4.380 -1.1741 -2.7663 -0.1865
14456TIP3    H264784   3.096   4.790   4.332 -0.6603  1.1933 -1.7673
14457TIP3   OH264785   5.718   6.478   0.872 -0.1690 -0.0320  0.0783
14457TIP3    H164786   5.749   6.547   0.931 -3.8896  1.3786  0.6562
14457TIP3    H264787   5.723   6.517   0.784  0.2321 -0.0555  0.0898
14458TIP3   OH264788   1.997   3.804  11.326 -0.3325 -0.0882 -0.0579
14458TIP3    H164789   2.085   3.836  11.347 -0.8837  0.5872  1.3642
14458TIP3    H264790   1.947   3.883  11.305 -0.8291 -0.3791  0.0156
14459TIP3   OH264791   5.143   1.637  14.519 -0.1656  0.0950 -0.0681
14459TIP3    H164792   5.054   1.600  14.513  0.0302 -0.7153  1.3170
14459TIP3    H264793   5.197   1.578  14.467 -0.5164  1.0046 -1.5257
14460TIP3   OH264794   1.916   2.838   3.223 -0.0513 -0.3951 -0.0639
14460TIP3    H164795   1.827   2.838   3.259 -0.6683  1.0897 -1.4385
14460TIP3    H264796   1.903   2.852   3.129  1.5703 -2.3066 -0.6203
14461TIP3   OH264797   1.935   6.290  11.280 -0.4871 -0.4686  0.4940
14461TIP3    H164798   1.878   6.267  11.207  1.1620  0.7268 -1.2519
14461TIP3    H264799   1.940   6.211  11.333 -3.6993 -0.6517  0.7619
14462TIP3   OH264800   1.929   1.677   5.718  0.2698 -0.7908 -0.0230
14462TIP3    H164801   2.020   1.707   5.707  0.0774 -0.3531 -0.4684
14462TIP3    H264802   1.919   1.609   5.651  0.8495 -2.2420  1.2872
14463TIP3   OH264803   5.046   5.150  11.018  0.2045 -0.2285 -0.2571
14463TIP3    H164804   5.013   5.238  10.997  0.7934  0.2137  0.5829
14463TIP3    H264805   4.968   5.095  11.022 -0.1863  0.2844 -0.6356
14464TIP3   OH264806   0.815   1.185   4.788 -0.2323 -0.5171  0.0080
14464TIP3    H164807   0.749   1.136   4.738 -0.8094 -0.5178  0.7488
14464TIP3    H264808   0.777   1.193   4.876 -0.2736  1.4602 -0.1499
14465TIP3   OH264809   2.592   4.127  14.148 -0.1590  0.7924 -0.0254
14465TIP3    H164810   2.508   4.104  14.108  0.0403 -0.5147  0.2443
14465TIP3    H264811   2.574   4.125  14.242  0.8427 -2.8636  0.2661
14466TIP3   OH264812   5.314   2.676  13.689  0.1764  0.2944  0.3124
14466TIP3    H164813   5.239   2.704  13.742 -0.2761  0.1883 -0.2527
14466TIP3    H264814   5.278   2.609  13.631  1.4947 -2.6178  2.5527
14467TIP3   OH264815   5.037   2.541   0.235  0.1185 -0.4988  0.2474
14467TIP3    H164816   5.068   2.455   0.207 -1.3790 -0.7270 -0.7762
14467TIP3    H264817   4.978   2.570   0.166  0.0901  1.0777  0.8836
14468TIP3   OH264818   4.289   3.148  12.646 -0.0356  0.4421 -0.9529
14468TIP3    H164819   4.203   3.106  12.646  0.3795 -0.5964  1.6292
14468TIP3    H264820   4.282   3.218  12.711  1.2809 -0.2753  0.0256
14469TIP3   OH264821   0.616   6.094   5.788  0.3013 -0.6673 -0.0391
14469TIP3    H164822   0.696   6.069   5.743 -0.4738 -0.1687 -1.7612
14469TIP3    H264823   0.551   6.107   5.719 -1.0721 -0.2931  1.2430
14470TIP3   OH264824   5.504   2.439   1.329  0.5495 -0.1337 -0.5466
14470TIP3    H164825   5.464   2.475   1.408  0.0289  0.8462 -1.2479
14470TIP3    H264826   5.456   2.358   1.312  0.5850 -0.2859  0.0677
14471TIP3   OH264827   1.946   3.478   6.058  0.2821 -0.4485  0.0399
14471TIP3    H164828   1.896   3.460   5.979  2.2436 -1.7261 -0.9723
14471TIP3    H264829   1.884   3.525   6.115 -1.6025 -0.7358 -1.6594
14472TIP3   OH264830   2.431   2.280   0.899 -0.0101 -0.2093  0.5071
14472TIP3    H164831   2.382   2.273   0.817 -2.4556 -0.2912  1.8590
14472TIP3    H264832   2.436   2.190   0.932  0.7799 -0.1532  0.5596
14473TIP3   OH264833   4.717   2.140  16.759 -0.2425 -0.4937  0.0410
14473TIP3    H164834   4.800   2.100  16.786  0.7088  0.6792 -1.0160
14473TIP3    H264835   4.724   2.231  16.789 -0.2472  0.1632 -1.8596
14474TIP3   OH264836   3.474   0.338   1.419  0.3627 -0.3804  0.1558
14474TIP3    H164837   3.489   0.357   1.327  0.9809 -1.5082  0.0027
14474TIP3    H264838   3.554   0.295   1.449  0.4898  0.6798  1.4387
14475TIP3   OH264839   3.990   1.027   5.194  0.2007  0.2148  0.3802
14475TIP3    H164840   3.958   1.036   5.105  1.5717 -2.0152 -0.4322
14475TIP3    H264841   3.919   1.059   5.249 -1.1954  0.4244 -1.4660
14476TIP3   OH264842   2.537   2.533   5.923 -0.2867  0.0622  0.0804
14476TIP3    H164843   2.552   2.443   5.894  0.2363 -0.2000  1.1318
14476TIP3    H264844   2.556   2.532   6.017 -1.3189  1.0304  0.3263
14477TIP3   OH264845   4.110   4.577  15.300  0.2035 -0.3725 -0.8874
14477TIP3    H164846   4.127   4.493  15.343 -2.3778 -1.0171 -0.9943
14477TIP3    H264847   4.145   4.643  15.361  0.9897 -1.4605 -0.1323
14478TIP3   OH264848   6.223   1.830  13.832 -0.0213 -0.0229 -0.4607
14478TIP3    H164849   6.133   1.802  13.850 -0.6973  0.5810 -2.6553
14478TIP3    H264850   6.248   1.880  13.910 -2.0215  0.8169 -0.2823
14479TIP3   OH264851   1.538   0.589   2.591  0.2730  0.4301 -0.0948
14479TIP3    H164852   1.603   0.619   2.654 -0.0774 -2.4845  1.8894
14479TIP3    H264853   1.586   0.527   2.535 -0.0867  0.7324 -0.7484
14480TIP3   OH264854   1.547   0.020   4.378 -0.3874  0.1809  0.3431
14480TIP3    H164855   1.560   0.041   4.285  0.8839 -1.0916  0.2069
14480TIP3    H264856   1.627   0.051   4.421 -1.6520  2.3218  1.3514
14481TIP3   OH264857   5.511   0.935   1.839  0.2941 -0.1343  0.6008
14481TIP3    H164858   5.484   0.917   1.749  0.7018  0.6531  0.3123
14481TIP3    H264859   5.598   0.896   1.846  0.5139  0.3322  0.4669
14482TIP3   OH264860   5.685   2.053  14.445 -0.4331 -1.1359  0.0826
14482TIP3    H164861   5.624   2.041  14.373 -2.0015  0.6570  1.0203
14482TIP3    H264862   5.662   1.984  14.508 -0.3874 -1.4757 -0.2719
14483TIP3   OH264863   0.517   6.456   5.337 -0.3226  0.2004  0.0659
14483TIP3    H164864   0.603   6.490   5.361 -0.2299 -0.9631  1.5316
14483TIP3    H264865   0.527   6.428   5.246  1.3179 -1.3020  0.6543
14484TIP3   OH264866   4.640   5.473   5.901  0.0544  0.0190 -0.0016
14484TIP3    H164867   4.645   5.441   5.991  1.3510  1.2991  0.4108
14484TIP3    H264868   4.547   5.495   5.889  0.0598  1.0088  1.4629
14485TIP3   OH264869   6.719   6.194  12.805  0.6368  0.2624  0.4570
14485TIP3    H164870   6.670   6.246  12.742  1.2904  0.3856  0.0367
14485TIP3    H264871   6.761   6.259  12.862  0.6165  0.1714  0.5761
14486TIP3   OH264872   4.917   3.799  15.987 -0.2654  0.0234 -0.7584
14486TIP3    H164873   4.888   3.891  15.983 -1.8851 -0.3067  1.5379
14486TIP3    H264874   4.871   3.756  15.916 -3.1676  0.1831  0.8512
14487TIP3   OH264875   2.633   6.236   5.987 -0.0240  0.0262 -0.3976
14487TIP3    H164876   2.632   6.143   5.962 -0.0551 -0.3044  0.7385
14487TIP3    H264877   2.595   6.282   5.912 -1.1355 -1.0120 -0.5046
14488TIP3   OH264878   1.723   6.431  15.479  0.2241 -0.3788 -0.4352
14488TIP3    H164879   1.723   6.441  15.574 -0.7027 -1.3578 -0.3051
14488TIP3    H264880   1.726   6.336  15.465 -2.2905 -0.4315 -1.3024
14489TIP3   OH264881   4.238   1.001  16.363  0.3237 -0.2417 -0.2952
14489TIP3    H164882   4.292   0.922  16.363 -0.5299 -0.8421 -0.5100
14489TIP3    H264883   4.284   1.062  16.420  1.3890 -0.6239 -0.7232
14490TIP3   OH264884   5.727   0.318   3.194  0.1888 -0.0529 -0.7372
14490TIP3    H164885   5.661   0.298   3.127 -0.1509 -0.7982 -0.1999
14490TIP3    H264886   5.676   0.337   3.273  0.4840  3.1242 -1.2090
14491TIP3   OH264887   6.526   3.625  12.987  0.6221  0.1701  0.4430
14491TIP3    H164888   6.557   3.606  13.075 -1.0961 -0.6042  0.9168
14491TIP3    H264889   6.504   3.719  12.990  0.2435  0.0696  0.9465
14492TIP3   OH264890   3.135   5.305   2.108 -0.6248  0.2198 -0.1946
14492TIP3    H164891   3.183   5.387   2.125 -1.1153  0.1329  1.8543
14492TIP3    H264892   3.063   5.331   2.050 -0.1248  1.0058 -0.4881
14493TIP3   OH264893   4.126   0.455  13.861  0.0186 -0.2636  0.7465
14493TIP3    H164894   4.117   0.548  13.879  0.0049 -0.0375 -0.3231
14493TIP3    H264895   4.043   0.430  13.821  0.6850 -0.2859 -0.6879
14494TIP3   OH264896   2.274   4.373  11.678  0.4349  0.2219  0.0160
14494TIP3    H164897   2.312   4.349  11.762  0.2712  0.3383  0.1230
14494TIP3    H264898   2.316   4.314  11.615 -0.8881 -1.2636  0.4408
14495TIP3   OH264899   2.876   3.194  13.318  0.6163 -0.0212  0.1881
14495TIP3    H164900   2.839   3.154  13.396 -2.0482 -0.0952 -0.9887
14495TIP3    H264901   2.867   3.288  13.332 -2.6629  0.0000 -1.0654
14496TIP3   OH264902   2.348   6.156   2.027 -0.0248 -0.0472 -0.0907
14496TIP3    H164903   2.359   6.144   1.933  0.5719 -0.9010  0.0784
14496TIP3    H264904   2.434   6.184   2.058  0.1221 -0.9856  0.3771
14497TIP3   OH264905   1.334   3.424   5.110 -0.0217 -0.5181  0.3646
14497TIP3    H164906   1.419   3.381   5.109 -0.0806 -0.6440 -0.7281
14497TIP3    H264907   1.297   3.407   5.023 -1.3571 -0.8522  0.9609
14498TIP3   OH264908   5.378   1.587   1.180 -0.4341 -0.3590  0.4695
14498TIP3    H164909   5.307   1.591   1.115 -1.8383 -1.0546  1.9101
14498TIP3    H264910   5.457   1.602   1.129 -1.6457  1.1374 -1.1063
14499TIP3   OH264911   0.420   1.423   1.644 -0.0153 -0.1301 -0.1009
14499TIP3    H164912   0.339   1.440   1.692 -0.7120 -1.8432 -0.5834
14499TIP3    H264913   0.445   1.507   1.607 -1.7497  0.3716 -0.1880
14500TIP3   OH264914   2.390   6.373   2.261  0.7974  0.0020 -0.2836
14500TIP3    H164915   2.382   6.349   2.169 -0.5822  0.2700 -0.2654
14500TIP3    H264916   2.484   6.383   2.276  0.9714  2.4320 -2.3069
14501TIP3   OH264917   3.645   2.379  15.468 -0.4739  0.2115 -0.8034
14501TIP3    H164918   3.738   2.389  15.489 -0.4757  1.3386 -1.2859
14501TIP3    H264919   3.602   2.371  15.553  0.0010  0.2285 -0.5550
14502TIP3   OH264920   0.008   0.738   1.801 -0.2243  0.3102  0.2303
14502TIP3    H164921   0.025   0.644   1.807  0.1429  0.3674  0.1147
14502TIP3    H264922  -0.084   0.747   1.826  0.0585  0.0543  1.4051
14503TIP3   OH264923   0.306   2.858   2.549  0.6172  0.0542  0.5824
14503TIP3    H164924   0.380   2.904   2.511  0.0479 -0.0103 -0.6405
14503TIP3    H264925   0.230   2.913   2.531  0.2777 -0.1382  1.3500
14504TIP3   OH264926   6.422   4.426   4.359  0.2203  0.8158  0.3256
14504TIP3    H164927   6.498   4.410   4.415  1.2131  1.2607 -0.8576
14504TIP3    H264928   6.387   4.339   4.339 -0.0596  0.6480  1.4883
14505TIP3   OH264929   4.369   3.499   3.222 -0.5962  0.8209  0.4228
14505TIP3    H164930   4.288   3.477   3.176 -0.8174 -0.0405  1.1845
14505TIP3    H264931   4.389   3.588   3.195 -2.9222  1.8374  1.7575
14506TIP3   OH264932   5.321   0.305  10.593  0.0110  0.1401  0.0976
14506TIP3    H164933   5.287   0.303  10.503  0.1963 -1.0833  0.0357
14506TIP3    H264934   5.301   0.393  10.624 -1.2837  0.1527 -0.6784
14507TIP3   OH264935   1.925   1.513   2.919  0.2328  0.0854 -0.2399
14507TIP3    H164936   1.860   1.527   2.850  1.0204  1.6581 -0.6997
14507TIP3    H264937   1.901   1.428   2.957 -0.9177 -0.2687 -1.6608
14508TIP3   OH264938   5.448   1.133  12.342 -0.5708 -0.3037  0.0326
14508TIP3    H164939   5.428   1.211  12.394 -1.9361 -1.5399  1.4942
14508TIP3    H264940   5.388   1.137  12.268 -2.1884 -0.9642  1.2353
14509TIP3   OH264941   4.401   3.476  13.878  0.1121  0.9580 -0.2020
14509TIP3    H164942   4.387   3.390  13.839  0.6398  0.6043  0.3662
14509TIP3    H264943   4.356   3.537  13.819  0.3772  0.3771 -1.0267
14510TIP3   OH264944   1.725   3.099   1.389  0.4675  0.4611 -0.6313
14510TIP3    H164945   1.755   3.122   1.477  1.0430 -1.1836 -0.3672
14510TIP3    H264946   1.761   3.168   1.332  2.0535  0.2838  0.1156
14511TIP3   OH264947   5.030   4.871   1.780  0.1179 -0.0761  0.2398
14511TIP3    H164948   5.096   4.802   1.783 -0.6494 -0.7893  2.6964
14511TIP3    H264949   4.947   4.827   1.798 -0.6280  1.2438  0.1976
14512TIP3   OH264950   4.354   1.214   5.000  0.1279  0.2358  0.7331
14512TIP3    H164951   4.334   1.284   4.938  1.9037  0.6118  0.5450
14512TIP3    H264952   4.345   1.254   5.087 -0.3542  0.2672  0.6691
14513TIP3   OH264953   2.607   6.219   3.321 -0.6396  0.0241 -1.0197
14513TIP3    H164954   2.599   6.160   3.396 -1.6779 -1.5363 -2.3036
14513TIP3    H264955   2.555   6.178   3.252 -0.2581  1.7533 -2.4086
14514TIP3   OH264956   3.646   6.072  13.338 -0.0881 -0.2307  0.2029
14514TIP3    H164957   3.610   6.142  13.391  0.9053  0.2396  0.2866
14514TIP3    H264958   3.607   5.992  13.373 -2.0485  0.3378 -0.5738
14515TIP3   OH264959   4.143   4.840   2.562  0.6595  0.4464 -0.0673
14515TIP3    H164960   4.088   4.767   2.535 -0.6524  0.4760  2.2496
14515TIP3    H264961   4.220   4.798   2.602 -0.2140  0.2469  1.5029
14516TIP3   OH264962   6.122   3.183  14.665 -0.6053  0.7017 -0.1730
14516TIP3    H164963   6.188   3.227  14.612 -0.1061  1.2202  0.8725
14516TIP3    H264964   6.165   3.164  14.748 -0.7699 -1.8237 -0.5810
14517TIP3   OH264965   2.661   5.789   0.287  0.1578  0.5953  0.3469
14517TIP3    H164966   2.572   5.802   0.318  0.5066  0.7174  1.3432
14517TIP3    H264967   2.651   5.758   0.197 -0.8768  0.7727  0.3870
14518TIP3   OH264968   6.568   3.848   5.264  0.1297 -0.9006  0.7737
14518TIP3    H164969   6.646   3.793   5.270  1.7129  1.3502  2.6491
14518TIP3    H264970   6.577   3.893   5.181  1.2102 -0.2030  1.2458
14519TIP3   OH264971   0.758   1.731  12.779  0.2277 -0.8482  0.2017
14519TIP3    H164972   0.804   1.778  12.710 -1.0147 -1.1086 -0.8555
14519TIP3    H264973   0.815   1.657  12.800  1.0400 -0.2598  0.1197
14520TIP3   OH264974   3.465   2.019  15.262 -0.3140  0.6298 -0.1563
14520TIP3    H164975   3.525   2.068  15.206  0.6591  1.6160  1.6551
14520TIP3    H264976   3.452   2.075  15.339 -2.6080 -0.0965  0.0810
14521TIP3   OH264977   3.681   3.480  11.479 -0.2967 -0.2245  0.2753
14521TIP3    H164978   3.682   3.561  11.428  0.5431 -0.4109 -0.0216
14521TIP3    H264979   3.770   3.474  11.514 -0.4867 -0.7924  0.6551
14522TIP3   OH264980   3.988   0.673  16.323 -0.4081 -0.0684  0.0142
14522TIP3    H164981   4.065   0.704  16.370  0.3183 -0.3000 -0.9862
14522TIP3    H264982   4.023   0.631  16.244 -1.5375 -0.5428 -0.2600
14523TIP3   OH264983   1.169   4.975  11.310  0.2447  0.0652 -0.0984
14523TIP3    H164984   1.139   4.912  11.245  1.1948 -0.3854 -0.1103
14523TIP3    H264985   1.206   4.921  11.380 -0.8811  0.5260  0.9057
14524TIP3   OH264986   4.607   1.058   0.638  0.7429 -0.3234  0.4636
14524TIP3    H164987   4.604   1.120   0.565  2.1887  0.1455  0.7792
14524TIP3    H264988   4.576   0.975   0.600 -0.7146  0.4301 -0.0913
14525TIP3   OH264989   6.060   2.707  13.824  0.4379 -0.3983 -0.3050
14525TIP3    H164990   6.137   2.719  13.880  1.4765 -0.0702 -1.7251
14525TIP3    H264991   6.007   2.785  13.841  0.3426 -0.6945  0.8001
14526TIP3   OH264992   6.046   1.691   3.131 -0.0419  0.2684 -0.2360
14526TIP3    H164993   6.138   1.700   3.155 -0.2211  0.7638  0.2773
14526TIP3    H264994   6.011   1.627   3.193 -0.1481  0.4255 -0.1313
14527TIP3   OH264995   4.566   3.121  12.853 -0.3341  0.6725  0.5949
14527TIP3    H164996   4.590   3.063  12.780 -1.2492 -1.0257  1.5786
14527TIP3    H264997   4.650   3.156  12.884  0.2327  0.0569 -0.1831
14528TIP3   OH264998   3.836   3.241  12.953 -0.1646  0.0388 -0.8482
14528TIP3    H164999   3.926   3.249  12.985 -0.0384  1.5893 -1.5018
14528TIP3    H265000   3.785   3.298  13.011 -0.3704  0.7577 -1.7119
14529TIP3   OH265001   2.979   1.367  15.794  0.5004  0.2500 -0.1736
14529TIP3    H165002   2.887   1.340  15.788  0.4957 -0.4334  2.0574
14529TIP3    H265003   2.991   1.426  15.720 -0.8911 -1.9355 -2.3231
14530TIP3   OH265004   4.882   4.335  16.136 -0.3997 -0.1419 -0.4677
14530TIP3    H165005   4.840   4.389  16.069  0.3827  0.1433 -0.7301
14530TIP3    H265006   4.967   4.376  16.151  0.1045 -1.1508 -0.4866
14531TIP3   OH265007   2.389   5.756   1.147 -0.6932  0.2879 -0.4608
14531TIP3    H165008   2.321   5.690   1.129  0.7836 -1.3156 -0.4599
14531TIP3    H265009   2.415   5.739   1.237  0.4056  0.1943 -0.7844
14532TIP3   OH265010   0.994   2.617   0.002  0.0442 -0.8199 -0.4451
14532TIP3    H165011   0.983   2.628   0.096 -0.7532  1.4053 -0.7311
14532TIP3    H265012   0.955   2.532  -0.018 -2.6410  0.0084  0.8315
14533TIP3   OH265013   1.102   3.874   4.799 -0.1755 -0.2405  0.2472
14533TIP3    H165014   1.173   3.913   4.850  0.2895 -0.0660 -0.5187
14533TIP3    H265015   1.040   3.842   4.864  0.2717  0.2357  0.9143
14534TIP3   OH265016   1.751   2.473   2.987 -0.4080 -0.4239 -0.5532
14534TIP3    H165017   1.770   2.416   2.912  0.7659 -1.9240  0.8110
14534TIP3    H265018   1.696   2.419   3.044 -0.1330  0.1827  0.2959
14535TIP3   OH265019   1.216   2.375  15.285 -0.2712  0.0355 -0.1789
14535TIP3    H165020   1.134   2.332  15.260  0.1675  0.1194 -1.8657
14535TIP3    H265021   1.252   2.409  15.203  1.1192  0.6123  0.6268
14536TIP3   OH265022   2.128   6.301   0.583  0.5253  0.2514 -0.8855
14536TIP3    H165023   2.205   6.356   0.590  0.1494  0.6411  0.6325
14536TIP3    H265024   2.088   6.305   0.670 -2.5864  2.1002 -2.2221
14537TIP3   OH265025   4.820   1.915  15.700  0.0995  0.2985  0.1169
14537TIP3    H165026   4.850   1.915  15.790  0.4903  1.5150  0.0093
14537TIP3    H265027   4.750   1.981  15.698  0.3623  0.5713 -0.5380
14538TIP3   OH265028   3.570   0.684   3.133  0.0929  0.0366  0.0528
14538TIP3    H165029   3.527   0.718   3.054 -0.6031  0.5347  0.6354
14538TIP3    H265030   3.661   0.672   3.107  0.9688  4.3810  0.3642
14539TIP3   OH265031   3.970   4.134  14.522 -0.2035 -0.1286  0.4463
14539TIP3    H165032   4.007   4.173  14.602 -1.1904  3.4553 -0.6608
14539TIP3    H265033   4.037   4.149  14.455  1.2094 -4.2805  0.6059
14540TIP3   OH265034   4.228   0.483  15.448 -0.2664  1.0030 -0.0961
14540TIP3    H165035   4.265   0.456  15.364  1.1068  0.8741  0.5250
14540TIP3    H265036   4.226   0.403  15.501  0.0549  1.3193  0.4077
14541TIP3   OH265037   6.140   3.245  11.065  0.0994 -0.1241  0.3505
14541TIP3    H165038   6.061   3.299  11.070 -1.8366 -2.7855  1.6749
14541TIP3    H265039   6.211   3.303  11.091 -1.7541  1.8740  1.3141
14542TIP3   OH265040   4.905   2.837  15.819  0.6009  0.1934 -0.0443
14542TIP3    H165041   4.929   2.900  15.751  0.9270  0.0271 -0.0850
14542TIP3    H265042   4.828   2.876  15.861 -0.5911 -0.4288 -1.5253
14543TIP3   OH265043   4.811   6.662  13.293 -0.4522  0.0619 -0.0184
14543TIP3    H165044   4.740   6.607  13.326 -1.5748  1.7481  0.5314
14543TIP3    H265045   4.891   6.622  13.328 -1.3812  0.1097  2.3744
14544TIP3   OH265046   1.027   5.190  10.339  0.1426  0.3248  0.1759
14544TIP3    H165047   0.954   5.165  10.282 -1.5015  0.5582  2.0665
14544TIP3    H265048   1.031   5.120  10.404  3.5719 -1.2229 -1.4807
14545TIP3   OH265049   5.573   1.914   5.381  0.1723 -0.2511 -0.0296
14545TIP3    H165050   5.596   1.824   5.359 -0.0054 -0.9749  2.4761
14545TIP3    H265051   5.657   1.960   5.383  0.6714 -1.1557  1.8296
14546TIP3   OH265052   0.249   2.793   5.257 -0.1563  0.2202  0.3153
14546TIP3    H165053   0.279   2.801   5.347 -1.2482 -0.0663  0.7275
14546TIP3    H265054   0.161   2.832   5.257 -0.0372  0.5163 -0.6955
14547TIP3   OH265055   1.461   6.325   4.119 -0.6420 -0.9684 -0.0696
14547TIP3    H165056   1.376   6.319   4.161 -0.7625 -1.3631 -0.3614
14547TIP3    H265057   1.510   6.389   4.171 -1.1737 -0.6130 -0.0024
14548TIP3   OH265058   1.164   1.769  14.092 -0.2459 -0.6543  0.3359
14548TIP3    H165059   1.203   1.769  14.180 -1.1168 -2.2602  0.7600
14548TIP3    H265060   1.075   1.736  14.105  0.0510 -2.2721 -1.3027
14549TIP3   OH265061   2.285   2.754  15.320 -0.3479  0.7483  0.0095
14549TIP3    H165062   2.273   2.833  15.373  0.1276  1.0271 -0.2970
14549TIP3    H265063   2.356   2.707  15.363 -1.9185 -0.5241  1.3682
14550TIP3   OH265064   3.442   2.978   6.047  0.3541  0.3194 -0.6376
14550TIP3    H165065   3.485   2.940   6.124  2.6361  1.2520 -1.3488
14550TIP3    H265066   3.354   3.000   6.077  0.8037 -0.3841  1.3594
14551TIP3   OH265067   3.015   2.653  12.539  0.4002 -0.2615 -0.3007
14551TIP3    H165068   3.103   2.617  12.532  0.6960  0.3919 -0.0409
14551TIP3    H265069   2.970   2.621  12.461  0.7850 -0.8186 -0.3010
14552TIP3   OH265070   3.416   1.747  17.013 -0.4466  0.1804 -0.0428
14552TIP3    H165071   3.511   1.738  17.015 -0.6386 -2.5125  1.4930
14552TIP3    H265072   3.388   1.734  17.104 -2.3837 -0.9656 -0.7226
14553TIP3   OH265073   5.104   5.561   4.648 -0.1965 -0.3133 -0.1507
14553TIP3    H165074   5.134   5.492   4.706 -0.5231 -1.6077 -1.4599
14553TIP3    H265075   5.178   5.577   4.589 -0.8285 -1.0561 -1.1789
14554TIP3   OH265076   1.508   5.904  11.814  0.5787  0.0278 -0.3876
14554TIP3    H165077   1.503   5.855  11.896  0.0976  0.4526 -0.1616
14554TIP3    H265078   1.600   5.898  11.789  1.2067  1.6416  1.2764
14555TIP3   OH265079   2.098   3.450  15.538 -0.1037  0.3169 -0.0034
14555TIP3    H165080   2.112   3.522  15.476 -1.8453  0.8036  0.1115
14555TIP3    H265081   2.004   3.432  15.533  0.0537 -0.9766  1.0551
14556TIP3   OH265082   5.119   3.350   4.345  0.6842 -0.2333 -0.0435
14556TIP3    H165083   5.146   3.359   4.254 -0.7620 -0.7438 -0.5470
14556TIP3    H265084   5.095   3.438   4.372 -0.2184 -0.2963 -0.6055
14557TIP3   OH265085   6.669   4.795   4.373  0.2232  0.3631  0.1625
14557TIP3    H165086   6.746   4.748   4.341 -0.3865 -0.3309 -0.3051
14557TIP3    H265087   6.622   4.731   4.426  0.3053  0.9837  1.0178
14558TIP3   OH265088   2.567   2.491  13.782  0.3170 -0.1556  0.6020
14558TIP3    H165089   2.542   2.551  13.851 -2.0785  0.3052 -0.5591
14558TIP3    H265090   2.561   2.543  13.701  0.3520 -1.3602 -0.2103
14559TIP3   OH265091   4.611   5.467  12.612  0.4591  0.2553  0.6623
14559TIP3    H165092   4.549   5.507  12.674  2.0023  0.5767  2.0620
14559TIP3    H265093   4.620   5.377  12.642 -1.5071 -0.6858 -1.3146
14560TIP3   OH265094   5.998   0.964   2.433  0.2460  0.7462 -0.2164
14560TIP3    H165095   5.960   0.898   2.491  0.7491  0.6417  0.0028
14560TIP3    H265096   5.923   1.012   2.398 -0.0610  0.8323  0.5457
14561TIP3   OH265097   3.684   1.114   3.536  0.3018  0.1632  0.2213
14561TIP3    H165098   3.759   1.170   3.515  1.1134 -0.6662  0.8248
14561TIP3    H265099   3.667   1.066   3.455  1.0634 -0.3615  0.3651
14562TIP3   OH265100   1.030   3.723   1.394 -0.1254  0.6157 -0.0700
14562TIP3    H165101   1.043   3.717   1.489 -0.4557  0.7853 -0.0135
14562TIP3    H265102   0.941   3.756   1.384 -0.2911  0.0476 -0.4513
14563TIP3   OH265103   0.299   0.148   2.491 -0.0631 -0.0598  0.5455
14563TIP3    H165104   0.361   0.100   2.546  1.2062 -0.8919 -1.5002
14563TIP3    H265105   0.338   0.235   2.483 -0.6553  0.3118  1.5610
14564TIP3   OH265106   6.631   3.602   5.671  0.0501  0.0240 -0.5686
14564TIP3    H165107   6.539   3.583   5.655 -0.6917  0.8278  2.2417
14564TIP3    H265108   6.674   3.516   5.671 -0.6167 -0.3388 -2.0909
14565TIP3   OH265109   4.618   0.696   1.850  0.5711 -0.6728 -0.2126
14565TIP3    H165110   4.538   0.650   1.876 -0.9234  0.4287 -2.5628
14565TIP3    H265111   4.668   0.631   1.802  0.2866 -0.8967 -0.2092
14566TIP3   OH265112   0.543   6.405  12.038  0.0039  0.7028  0.1266
14566TIP3    H165113   0.498   6.475  12.085 -0.3178  1.8530 -1.7788
14566TIP3    H265114   0.630   6.401  12.078 -0.5692  0.9414  1.4426
14567TIP3   OH265115   1.532   3.915   6.919 -0.1533  0.5104 -0.3698
14567TIP3    H165116   1.516   3.824   6.892  0.1278 -0.2056  1.7162
14567TIP3    H265117   1.458   3.937   6.975  0.4795  1.0810  0.2539
14568TIP3   OH265118   2.813   4.948   3.317 -0.3512  0.2746 -0.3888
14568TIP3    H165119   2.813   4.879   3.250 -0.3724 -0.0916 -0.0138
14568TIP3    H265120   2.721   4.960   3.340 -0.2725 -0.1746  0.1619
14569TIP3   OH265121   0.377   0.537  10.902  1.5633 -0.3084 -0.1611
14569TIP3    H165122   0.392   0.618  10.854  0.5081  0.3156  0.5087
14569TIP3    H265123   0.462   0.494  10.904  2.1104  0.7101 -0.6633
14570TIP3   OH265124   4.256   0.009  17.080 -0.6107  0.0209 -0.1488
14570TIP3    H165125   4.186  -0.052  17.056 -0.0437 -0.8757  0.4420
14570TIP3    H265126   4.235   0.036  17.169  0.5473 -1.3773  0.5846
14571TIP3   OH265127   0.489   2.328   5.697 -0.5116  0.1304 -0.0530
14571TIP3    H165128   0.453   2.254   5.746  0.9962  0.4397  1.6051
14571TIP3    H265129   0.551   2.288   5.636  1.9784  0.0620  2.3480
14572TIP3   OH265130   4.692   0.410   4.312 -0.3873  0.4129 -0.3880
14572TIP3    H165131   4.635   0.365   4.250  0.6795 -0.7731 -0.5390
14572TIP3    H265132   4.777   0.415   4.268  0.7759 -1.6271  1.4128
14573TIP3   OH265133   0.576   6.651  16.562  0.0461 -0.2301  0.3196
14573TIP3    H165134   0.648   6.706  16.592  0.0284 -0.2259  0.3547
14573TIP3    H265135   0.618   6.582  16.511  0.2192 -1.1125  1.6111
14574TIP3   OH265136   2.809   1.036  13.014  0.1431  0.2803 -0.1072
14574TIP3    H165137   2.799   1.109  12.953  3.1985  0.0843 -1.0507
14574TIP3    H265138   2.742   0.973  12.987  0.4108  0.8537 -2.3302
14575TIP3   OH265139   5.033   1.408   3.463 -0.5825 -0.1171  0.5664
14575TIP3    H165140   5.115   1.458   3.468  0.9731 -2.3646 -0.7818
14575TIP3    H265141   5.057   1.328   3.416 -3.3924 -1.2484  0.9106
14576TIP3   OH265142   2.221   1.529  13.553  0.5736  0.0716 -0.1195
14576TIP3    H165143   2.211   1.434  13.546 -1.1478  0.1439  0.9522
14576TIP3    H265144   2.246   1.545  13.644  0.9261  0.6675 -0.3089
14577TIP3   OH265145   5.247   6.086   4.371  0.2169  0.5088  0.5675
14577TIP3    H165146   5.160   6.087   4.411  0.2447 -1.1939  0.7749
14577TIP3    H265147   5.249   6.003   4.323  1.5979  0.7032  0.2627
14578TIP3   OH265148   2.812   6.294  15.886 -0.1830 -0.4757  0.0368
14578TIP3    H165149   2.768   6.212  15.908 -0.9310 -0.5511 -1.6242
14578TIP3    H265150   2.851   6.279  15.800 -1.3427  1.2699 -0.8524
14579TIP3   OH265151   5.272   3.161   4.476  0.5824 -0.4342  0.4156
14579TIP3    H165152   5.213   3.224   4.434 -0.7472 -2.5751 -1.1166
14579TIP3    H265153   5.228   3.135   4.556  1.0807  0.4356  0.9930
14580TIP3   OH265154   2.332   5.240  15.405 -0.1224  0.0422  0.0197
14580TIP3    H165155   2.391   5.168  15.425  0.6816  1.0273  1.3574
14580TIP3    H265156   2.389   5.309  15.371  0.0222  1.9359  3.6320
14581TIP3   OH265157   6.192   6.222  12.619 -0.6584  0.2273 -0.3772
14581TIP3    H165158   6.227   6.235  12.707 -2.4342 -0.1902  0.4368
14581TIP3    H265159   6.137   6.144  12.626  2.2537 -2.3084 -2.8421
14582TIP3   OH265160   2.920   2.555   5.988  0.4052 -0.7002 -0.1138
14582TIP3    H165161   2.885   2.593   6.069  0.3341 -0.3018 -0.3294
14582TIP3    H265162   3.010   2.587   5.983  0.3513 -0.5769 -0.2865
14583TIP3   OH265163   0.294   5.120  16.249  0.0201  0.1213 -0.0218
14583TIP3    H165164   0.288   5.049  16.313  2.0486  0.1574  0.3004
14583TIP3    H265165   0.289   5.076  16.164 -0.1372 -0.2434  0.1726
14584TIP3   OH265166   1.302   4.170  15.173  0.0420 -0.5630 -0.4713
14584TIP3    H165167   1.350   4.252  15.164  0.2133 -0.7509 -1.3214
14584TIP3    H265168   1.216   4.187  15.134 -0.6578 -0.1981  1.1381
14585TIP3   OH265169   1.174   6.300   0.199 -0.4252  0.2072 -0.9178
14585TIP3    H165170   1.206   6.389   0.213  1.0947 -0.3934 -0.2686
14585TIP3    H265171   1.239   6.260   0.141  0.5896 -1.3438  1.1654
14586TIP3   OH265172   5.003   0.017  16.217 -0.2286  0.2548 -0.0298
14586TIP3    H165173   5.038  -0.052  16.161  0.1358  1.0398 -0.7891
14586TIP3    H265174   5.005   0.095  16.163 -1.7585  0.6391  0.4126
14587TIP3   OH265175   3.537   1.984   3.659 -0.0026  0.0933  0.6519
14587TIP3    H165176   3.444   1.989   3.682 -0.1417  1.4426 -0.1284
14587TIP3    H265177   3.582   2.020   3.736 -0.1319 -0.3724  0.9498
14588TIP3   OH265178   4.348   3.363   0.853  0.0038  0.1992 -0.2493
14588TIP3    H165179   4.334   3.282   0.901 -1.4238 -1.0734 -2.6705
14588TIP3    H265180   4.438   3.356   0.821  0.2791  0.1505  0.5002
14589TIP3   OH265181   3.371   1.095  13.301 -0.1887  0.2102  0.2715
14589TIP3    H165182   3.332   1.115  13.216 -0.4959 -1.6571 -0.0807
14589TIP3    H265183   3.302   1.048  13.348  0.8059 -0.9858  0.5862
14590TIP3   OH265184   3.656   3.424  15.521  0.2101 -0.0431  0.1346
14590TIP3    H165185   3.672   3.509  15.562 -0.9072 -0.2453  1.0272
14590TIP3    H265186   3.680   3.436  15.429  1.5831  0.7733  0.5732
14591TIP3   OH265187   1.546   4.707   6.323  0.5331  0.6289 -0.7920
14591TIP3    H165188   1.458   4.741   6.306  0.3311  0.4337 -0.1467
14591TIP3    H265189   1.556   4.636   6.259 -0.3773 -0.3579  0.1098
14592TIP3   OH265190   2.452   0.391   2.592  0.2882  0.1992  0.0297
14592TIP3    H165191   2.527   0.435   2.552 -0.4111  0.4320 -1.0946
14592TIP3    H265192   2.393   0.375   2.518 -0.2652 -0.9971  0.7184
14593TIP3   OH265193   5.127   4.068   6.143  1.1745 -0.0584  0.5920
14593TIP3    H165194   5.033   4.065   6.161  0.5193  3.4920 -1.3027
14593TIP3    H265195   5.135   4.040   6.052  1.7061  1.0144  0.2936
14594TIP3   OH265196   0.765   4.203  17.183  0.4951 -0.4270 -0.1573
14594TIP3    H165197   0.808   4.173  17.103  0.5528  0.1958 -0.3618
14594TIP3    H265198   0.706   4.131  17.207  0.3844 -0.5620 -0.8260
14595TIP3   OH265199   5.087   6.046   6.252  0.5890 -0.5503  0.0981
14595TIP3    H165200   5.144   5.970   6.240  1.2864 -0.1345  0.6795
14595TIP3    H265201   5.026   6.020   6.321 -0.2520 -1.1608 -0.8352
14596TIP3   OH265202   1.436   0.601  10.794 -0.0004  0.0811  0.2137
14596TIP3    H165203   1.447   0.516  10.751 -1.6469  0.7619 -1.7427
14596TIP3    H265204   1.498   0.658  10.749 -0.1148  0.2938  0.3284
14597TIP3   OH265205   5.404   3.860   3.269  0.0467 -0.2648  0.1505
14597TIP3    H165206   5.360   3.781   3.238  0.5123 -1.0016  1.2979
14597TIP3    H265207   5.348   3.892   3.339 -0.1526  0.4595 -0.3282
14598TIP3   OH265208   2.090   3.192   3.468 -0.2942  0.5539 -0.0681
14598TIP3    H165209   2.081   3.130   3.540  1.7642 -0.1941 -0.3880
14598TIP3    H265210   2.009   3.242   3.469 -1.3962 -1.1584  1.1291
14599TIP3   OH265211   1.050   3.269  12.373  0.3980 -1.1547  0.0986
14599TIP3    H165212   1.089   3.212  12.307 -2.0193 -1.4743 -1.1378
14599TIP3    H265213   0.957   3.269  12.353  0.1049  2.1590  0.9026
14600TIP3   OH265214   5.386   3.893  16.441  0.0094  0.2402 -0.8466
14600TIP3    H165215   5.346   3.945  16.511 -0.6378 -0.9747 -0.2619
14600TIP3    H265216   5.446   3.953  16.397 -1.7939  1.9180 -1.1845
14601TIP3   OH265217   6.686   4.520   1.045 -0.6043 -0.3092  0.3698
14601TIP3    H165218   6.658   4.447   1.100 -0.1571 -1.5274 -0.9519
14601TIP3    H265219   6.781   4.508   1.036 -0.5364  0.3999  0.0800
14602TIP3   OH265220   3.970   0.532  12.406 -0.2757  0.2563 -0.0968
14602TIP3    H165221   4.047   0.500  12.359 -0.5368  1.4427 -1.3956
14602TIP3    H265222   3.917   0.454  12.421  0.5865 -0.3861 -0.3216
14603TIP3   OH265223   2.231   5.485  12.942  0.0552 -0.1061 -0.1398
14603TIP3    H165224   2.195   5.449  12.861 -0.1276  1.1642 -0.6372
14603TIP3    H265225   2.194   5.573  12.948  0.0735 -0.1723  1.3211
14604TIP3   OH265226   2.489   6.442  13.696  0.0745 -0.2133  0.7095
14604TIP3    H165227   2.458   6.391  13.771  1.8304 -2.4683 -0.0020
14604TIP3    H265228   2.424   6.424  13.627 -1.8652  2.3162  1.7015
14605TIP3   OH265229   5.926   4.736  11.886 -0.3515  0.4455 -0.3932
14605TIP3    H165230   5.856   4.801  11.895 -1.2161 -0.0067 -2.9094
14605TIP3    H265231   5.962   4.752  11.799  1.7963 -0.2300  0.3104
14606TIP3   OH265232   3.446   4.369  16.586  0.0356  0.3389 -0.1651
14606TIP3    H165233   3.351   4.362  16.576 -0.1308  3.1008 -1.4039
14606TIP3    H265234   3.481   4.350  16.499  0.6016 -0.2732  0.1896
14607TIP3   OH265235   5.903   3.054  15.342  0.1141  0.1686 -0.2124
14607TIP3    H165236   5.996   3.049  15.319  0.1078 -0.5860 -0.1103
14607TIP3    H265237   5.857   3.027  15.262  0.0341 -0.7825  0.1441
14608TIP3   OH265238   3.358   4.702  16.523 -0.6740 -0.0260  0.0676
14608TIP3    H165239   3.386   4.668  16.608 -0.7025 -0.0202  0.0790
14608TIP3    H265240   3.298   4.636  16.489 -0.2273 -0.3040 -0.1976
14609TIP3   OH265241   1.704   2.614  15.432  0.4481  0.2398 -0.0766
14609TIP3    H165242   1.735   2.523  15.437 -0.7329 -0.1275  1.9044
14609TIP3    H265243   1.614   2.607  15.399 -0.3200  0.4571  1.8596
14610TIP3   OH265244   2.083   5.402  12.355  0.5044  0.7512  0.0480
14610TIP3    H165245   2.175   5.378  12.365  0.5890  0.3615 -1.4701
14610TIP3    H265246   2.083   5.497  12.354  1.2471  0.7857 -2.5489
14611TIP3   OH265247   3.078   6.561   4.541 -0.5213  0.1578  0.0710
14611TIP3    H165248   3.068   6.582   4.448  0.5883 -1.0308 -0.3308
14611TIP3    H265249   3.160   6.603   4.566  0.1551 -1.1193  0.0235
14612TIP3   OH265250   5.755   1.401   6.115  0.1856  0.1504 -0.2280
14612TIP3    H165251   5.749   1.338   6.187  0.2875  0.4847  0.0772
14612TIP3    H265252   5.717   1.481   6.150  2.0490  0.9197  0.1670
14613TIP3   OH265253   4.405   0.457  14.038  0.4029  0.0923  0.0213
14613TIP3    H165254   4.377   0.501  14.117  0.2779  0.2491 -0.1107
14613TIP3    H265255   4.348   0.381  14.031  1.0997 -0.5070  0.6475
14614TIP3   OH265256   2.065   1.964   2.554 -0.1439  0.2455 -0.9281
14614TIP3    H165257   2.141   2.022   2.550 -1.0325  1.7671  1.6798
14614TIP3    H265258   2.049   1.939   2.463  1.8857  1.9668 -1.8449
14615TIP3   OH265259   3.183   5.809  13.327 -0.3346 -0.5649  0.3288
14615TIP3    H165260   3.097   5.817  13.286  0.3149  0.9886 -0.8313
14615TIP3    H265261   3.167   5.758  13.407 -1.7762 -3.0854 -1.4139
14616TIP3   OH265262   0.250   5.239  14.548 -0.4686 -0.2240  0.1632
14616TIP3    H165263   0.273   5.237  14.641 -0.6480  0.3818  0.2221
14616TIP3    H265264   0.194   5.316  14.538 -1.1301 -0.7489 -0.2905
14617TIP3   OH265265   4.685   1.233  17.206  0.2005  0.3928 -0.0291
14617TIP3    H165266   4.738   1.269  17.277  1.3040 -1.0031 -0.1083
14617TIP3    H265267   4.602   1.211  17.247  0.1888  1.2653  0.4275
14618TIP3   OH265268   1.460   4.407  16.763  1.0049 -0.0432  0.3052
14618TIP3    H165269   1.494   4.407  16.673  0.3050 -0.9220  0.0281
14618TIP3    H265270   1.531   4.369  16.815  2.4385  2.7231  0.5819
14619TIP3   OH265271   1.547   1.821   2.895  0.3066  0.1462 -0.0186
14619TIP3    H165272   1.597   1.753   2.940  1.1493  0.0700 -1.0390
14619TIP3    H265273   1.613   1.879   2.857 -0.3805  2.0762  1.5500
14620TIP3   OH265274   2.729   2.323   0.849  0.2735 -0.1782 -0.2175
14620TIP3    H165275   2.665   2.387   0.878  0.9912  0.3780  0.1902
14620TIP3    H265276   2.701   2.298   0.761  0.4117  1.2833 -0.7069
14621TIP3   OH265277   2.980   0.261  16.809  0.2700  0.4310  0.5851
14621TIP3    H165278   2.970   0.264  16.904 -0.9794 -2.3881  0.6280
14621TIP3    H265279   2.891   0.259  16.776  0.5780 -2.4788 -0.3586
14622TIP3   OH265280   5.620   2.050  12.034  0.3875 -0.7786 -0.6961
14622TIP3    H165281   5.592   2.105  11.960 -1.1731  0.6208  0.8660
14622TIP3    H265282   5.715   2.065  12.040  0.6007 -1.0783 -2.4724
14623TIP3   OH265283   4.029   3.216  16.318 -0.0107  0.0772  0.2268
14623TIP3    H165284   4.009   3.258  16.234 -0.6908 -3.0149 -1.2840
14623TIP3    H265285   3.943   3.195  16.355  0.2814 -1.6898 -0.0239
14624TIP3   OH265286   4.047   6.749   0.472 -0.1594 -0.1683 -0.4237
14624TIP3    H165287   4.142   6.760   0.461 -0.3763  0.4913 -1.8948
14624TIP3    H265288   4.038   6.669   0.522  1.1947 -0.0014  0.1405
14625TIP3   OH265289   4.136   5.119   2.601 -0.1545  0.2421 -0.1162
14625TIP3    H165290   4.142   5.027   2.572 -0.1244  0.7757 -1.9761
14625TIP3    H265291   4.221   5.137   2.640  0.4963 -0.0676 -1.3095
14626TIP3   OH265292   0.341   2.372   0.622 -0.2845 -0.1594  0.2147
14626TIP3    H165293   0.411   2.418   0.577  0.8017 -0.5009  1.4983
14626TIP3    H265294   0.294   2.324   0.553  0.3188  0.6033 -0.7408
14627TIP3   OH265295   3.212   6.662   2.611  0.2010 -0.0451  0.6790
14627TIP3    H165296   3.197   6.730   2.545  2.1639 -1.5347 -1.4307
14627TIP3    H265297   3.285   6.695   2.664  0.5273 -0.1206  0.2710
14628TIP3   OH265298   4.052   6.775  13.914  0.7840 -0.0070  0.2617
14628TIP3    H165299   4.105   6.795  13.837  0.9825  2.4648  0.9683
14628TIP3    H265300   3.973   6.733  13.879  0.2522  2.2674 -1.4807
14629TIP3   OH265301   2.891   2.232  11.171  0.2810  0.1606 -0.3838
14629TIP3    H165302   2.957   2.244  11.240 -1.1066 -2.6466  1.6347
14629TIP3    H265303   2.922   2.156  11.121 -0.5520 -0.0929 -0.5261
14630TIP3   OH265304   2.391   1.134   1.609 -0.2240  0.3837  0.0810
14630TIP3    H165305   2.340   1.165   1.534 -0.6479 -1.3104 -0.3727
14630TIP3    H265306   2.458   1.078   1.571 -0.2603 -0.2708  0.9510
14631TIP3   OH265307   0.208   5.593   3.451  0.7149 -0.3786  0.1542
14631TIP3    H165308   0.215   5.517   3.509  0.3277 -1.3997 -1.0902
14631TIP3    H265309   0.295   5.600   3.411  0.6074 -0.4706 -0.0960
14632TIP3   OH265310   6.658   0.060   4.316 -0.3392 -0.3231 -0.4298
14632TIP3    H165311   6.669   0.092   4.405  0.8948 -0.3648 -0.5457
14632TIP3    H265312   6.684   0.134   4.261 -0.2389 -0.5869 -0.7388
14633TIP3   OH265313   6.325   1.088  15.713  0.0989  0.3233  1.0582
14633TIP3    H165314   6.344   0.996  15.733 -0.1658  0.3677  1.5223
14633TIP3    H265315   6.397   1.116  15.657  0.0968 -0.2133  0.7818
14634TIP3   OH265316   4.812   5.572  15.407  0.1290 -0.2890  0.0506
14634TIP3    H165317   4.746   5.521  15.360  0.3904 -0.7242  0.1487
14634TIP3    H265318   4.800   5.547  15.499 -0.7121  0.9353  0.2961
14635TIP3   OH265319   0.141   2.557  15.281 -0.4415 -0.4537  0.2362
14635TIP3    H165320   0.060   2.565  15.332 -0.6890  0.1603 -0.2441
14635TIP3    H265321   0.129   2.477  15.230 -0.9242 -0.1457 -0.1382
14636TIP3   OH265322   1.838   1.174   4.229 -0.2728  0.4449 -0.4722
14636TIP3    H165323   1.768   1.239   4.222 -1.7378 -1.1248 -1.2247
14636TIP3    H265324   1.799   1.093   4.197  1.2462 -0.9990  1.0845
14637TIP3   OH265325   6.063   0.490  14.050  0.1351  0.1453  0.1336
14637TIP3    H165326   6.004   0.511  13.977  0.9097  0.7289 -0.3418
14637TIP3    H265327   6.049   0.397  14.067 -0.5711  0.1682 -0.2895
14638TIP3   OH265328   6.668   1.891  10.441  0.2071  0.3412 -0.1226
14638TIP3    H165329   6.667   1.976  10.486  0.9422  0.8920 -1.1129
14638TIP3    H265330   6.751   1.890  10.394  0.1717 -0.9133 -0.1851
14639TIP3   OH265331   0.959   3.286  15.390  0.2415  0.0135 -0.1983
14639TIP3    H165332   0.993   3.324  15.471 -0.8343  1.4549 -0.3805
14639TIP3    H265333   0.948   3.362  15.331 -0.1886 -0.8395 -1.2521
14640TIP3   OH265334   6.628   3.666  13.621 -0.1974 -0.5432 -0.2096
14640TIP3    H165335   6.686   3.685  13.547 -0.2217 -0.6799 -0.2650
14640TIP3    H265336   6.557   3.730  13.614 -0.4284 -0.8340 -0.5598
14641TIP3   OH265337   1.280   2.920  16.966 -0.4804 -0.3542  0.2027
14641TIP3    H165338   1.353   2.945  16.909 -0.3291 -0.7300  0.2291
14641TIP3    H265339   1.298   2.828  16.988 -1.6651 -0.8871 -0.8920
14642TIP3   OH265340   3.924   2.522  15.215  1.0643  0.3392  0.3541
14642TIP3    H165341   3.850   2.461  15.217 -0.2321  1.8454  1.2175
14642TIP3    H265342   4.001   2.466  15.205 -0.2075 -1.2622 -1.2795
14643TIP3   OH265343   6.001   5.030  11.786 -0.2477  0.0110 -0.7447
14643TIP3    H165344   6.061   5.101  11.808 -0.3015  0.0568 -0.7453
14643TIP3    H265345   5.946   5.021  11.865  0.1339 -0.4137 -0.5247
14644TIP3   OH265346   0.897   1.790  16.763  0.1875  0.6673  0.0626
14644TIP3    H165347   0.930   1.869  16.720 -0.1007  1.6685  1.6069
14644TIP3    H265348   0.958   1.774  16.835 -2.1216  2.1119  2.5095
14645TIP3   OH265349   2.933   3.199   6.202  0.4305  0.3932 -0.1496
14645TIP3    H165350   2.851   3.228   6.162  0.0455 -0.9198 -0.3581
14645TIP3    H265351   2.961   3.273   6.256 -0.0986  1.4272 -1.2423
14646TIP3   OH265352   6.776   1.416   5.821 -0.4762 -0.0201  0.6414
14646TIP3    H165353   6.817   1.404   5.907 -0.4526 -0.8843  0.5224
14646TIP3    H265354   6.736   1.503   5.825  0.3489  0.3422  1.1809
14647TIP3   OH265355   2.945   4.912   6.456 -0.3841 -0.6662  0.1137
14647TIP3    H165356   2.864   4.862   6.451 -0.5472 -0.3874 -0.0825
14647TIP3    H265357   2.925   4.995   6.412 -0.9263  0.6565  2.6667
14648TIP3   OH265358   0.451   4.491  11.183  0.2738 -0.0444 -0.3354
14648TIP3    H165359   0.391   4.510  11.111 -0.5981  0.0189  0.3992
14648TIP3    H265360   0.519   4.557  11.175 -0.7876  1.1217 -0.0203
14649TIP3   OH265361   4.965   5.922   4.569  0.3856  0.4243 -0.6130
14649TIP3    H165362   4.950   5.878   4.486  0.5847 -1.5748  0.3533
14649TIP3    H265363   4.898   5.887   4.628  1.3268  0.4678  0.5226
14650TIP3   OH265364   1.670   5.430   0.345 -0.1527  0.1074  0.9337
14650TIP3    H165365   1.588   5.424   0.297 -0.5344  0.7847  1.4849
14650TIP3    H265366   1.648   5.402   0.434  0.2648  0.0595  1.0251
14651TIP3   OH265367   4.493   5.810  16.093  0.5299 -0.4080 -0.0435
14651TIP3    H165368   4.524   5.807  16.183 -1.4753 -1.8017  0.6619
14651TIP3    H265369   4.559   5.761  16.043  1.5101  0.1472  0.6785
14652TIP3   OH265370   5.303   4.431   4.310  0.2729  0.3383  0.5642
14652TIP3    H165371   5.242   4.501   4.285  0.7240  0.1801 -1.0644
14652TIP3    H265372   5.259   4.350   4.286  0.7867  0.1840  0.1299
14653TIP3   OH265373   4.985   0.343   5.505 -0.4209 -0.3100 -0.1363
14653TIP3    H165374   5.018   0.265   5.550 -0.1017 -0.6817 -1.0024
14653TIP3    H265375   5.008   0.416   5.563 -1.5535 -0.9237  1.1485
14654TIP3   OH265376   3.246   2.517  13.244 -0.1724  0.9913  0.1240
14654TIP3    H165377   3.281   2.443  13.294 -1.0311 -1.2300 -2.2779
14654TIP3    H265378   3.245   2.590  13.306  0.9690 -0.9190  2.5880
14655TIP3   OH265379   2.983   4.004  11.342  1.2170 -0.1574  0.1498
14655TIP3    H165380   2.939   4.006  11.257  0.4691 -0.7453  0.5099
14655TIP3    H265381   2.988   3.911  11.365  1.3033  0.0001  0.8003
14656TIP3   OH265382   5.012   4.367   1.168  0.1640 -0.2640 -0.0704
14656TIP3    H165383   4.977   4.454   1.187  1.1878 -0.1082  1.2117
14656TIP3    H265384   5.085   4.382   1.108  1.2607 -0.0632  1.2704
14657TIP3   OH265385   1.429   0.710  16.718  0.1369  0.3980  0.2069
14657TIP3    H165386   1.441   0.750  16.804  0.0430  2.2520 -0.5901
14657TIP3    H265387   1.517   0.683  16.692  0.1839 -0.0595  0.8075
14658TIP3   OH265388   6.313   6.757   2.126  0.0341  0.2715 -0.0800
14658TIP3    H165389   6.242   6.693   2.135  0.2645 -0.2575 -1.7574
14658TIP3    H265390   6.269   6.841   2.120 -0.6494 -0.1827 -2.8214
14659TIP3   OH265391   4.406   0.725  15.420 -0.0387 -0.2577 -0.1302
14659TIP3    H165392   4.358   0.642  15.411 -0.1189 -0.1517 -0.7450
14659TIP3    H265393   4.350   0.790  15.377  0.1477  0.0706  0.1151
14660TIP3   OH265394   4.292   0.070   4.452 -0.0198 -0.1225  0.5605
14660TIP3    H165395   4.375   0.048   4.411 -0.8024  0.4976 -1.4844
14660TIP3    H265396   4.283   0.164   4.439 -1.1087 -0.2053  0.6080
14661TIP3   OH265397   3.640   4.568  10.693  0.5120  0.5054 -0.2120
14661TIP3    H165398   3.603   4.486  10.724  2.8273 -0.3396  0.5265
14661TIP3    H265399   3.730   4.547  10.669  1.3189  2.8816  0.3912
14662TIP3   OH265400   4.318   1.663  15.583 -0.6493  0.1133  0.5132
14662TIP3    H165401   4.270   1.739  15.615 -1.6952  0.2454 -1.2651
14662TIP3    H265402   4.252   1.595  15.572 -0.3943  0.1109 -1.3962
14663TIP3   OH265403   5.139   1.795  13.059  0.0145 -0.2100 -0.4322
14663TIP3    H165404   5.185   1.759  12.983  1.2047 -0.3396  0.3178
14663TIP3    H265405   5.164   1.737  13.131  1.4604  1.6579  0.6804
14664TIP3   OH265406   2.562   2.949  16.150 -0.1345 -0.7670  0.6393
14664TIP3    H165407   2.482   3.002  16.147 -0.0026 -0.5347  1.2410
14664TIP3    H265408   2.530   2.859  16.162 -0.4253 -1.0246 -1.6300
14665TIP3   OH265409   3.873   5.808  14.172  0.0680  0.5627 -0.2212
14665TIP3    H165410   3.932   5.769  14.236 -0.6145  0.2283  0.2135
14665TIP3    H265411   3.929   5.865  14.120  1.0146 -0.6999 -0.6355
14666TIP3   OH265412   5.594   3.698  15.369  0.1054 -0.5714  0.4530
14666TIP3    H165413   5.565   3.673  15.456 -0.7677 -1.0186  0.0493
14666TIP3    H265414   5.562   3.628  15.312 -0.7424  0.5024 -0.4349
14667TIP3   OH265415   1.929   2.808   2.941 -0.0693 -0.2681 -0.3293
14667TIP3    H165416   1.844   2.765   2.934 -0.2129  0.1733 -1.4622
14667TIP3    H265417   1.984   2.764   2.875  0.6405 -0.6707  0.5085
14668TIP3   OH265418   4.128   1.950   1.776  0.1797 -0.6765 -0.1689
14668TIP3    H165419   4.183   1.894   1.831  1.1037  1.6643  1.4828
14668TIP3    H265420   4.186   1.975   1.703  0.1831 -0.8754 -0.2348
14669TIP3   OH265421   2.946   4.550   5.044 -0.0586 -0.3538  0.0685
14669TIP3    H165422   2.890   4.483   5.006 -0.5250  0.9007 -1.5476
14669TIP3    H265423   2.890   4.592   5.110 -0.4238 -0.2595 -0.2995
14670TIP3   OH265424   5.533   3.993   0.105 -0.0355 -0.9222  0.2956
14670TIP3    H165425   5.624   3.978   0.127  0.5776  2.1920  0.4346
14670TIP3    H265426   5.529   3.983   0.010  0.9256  0.6815  0.0571
14671TIP3   OH265427   1.589   5.679  14.603  0.6402  0.1837  0.1426
14671TIP3    H165428   1.681   5.692  14.624  0.3568  1.7653  0.5857
14671TIP3    H265429   1.550   5.643  14.683  0.9456 -0.9571 -0.2071
14672TIP3   OH265430   5.117   3.488   2.984 -0.0815  0.2176  0.4348
14672TIP3    H165431   5.060   3.486   2.907 -1.0605 -1.4104  1.1549
14672TIP3    H265432   5.074   3.547   3.045  0.0676  0.5475  0.2302
14673TIP3   OH265433   5.849   2.579  12.099 -0.5180 -0.1933 -0.0139
14673TIP3    H165434   5.829   2.491  12.068 -2.5297 -0.0557  0.7209
14673TIP3    H265435   5.854   2.570  12.194 -0.6196  0.4384  0.0589
14674TIP3   OH265436   2.940   5.169   3.265 -0.4684 -0.1154  0.0269
14674TIP3    H165437   2.904   5.082   3.280  1.4924 -1.1710 -1.0298
14674TIP3    H265438   2.973   5.197   3.351 -2.6190  0.3849  0.7541
14675TIP3   OH265439   5.406   5.493  13.600 -0.1935  0.4782 -0.1901
14675TIP3    H165440   5.355   5.412  13.599  0.8362 -0.1986  0.6549
14675TIP3    H265441   5.455   5.491  13.517  0.9903 -0.5586  0.4925
14676TIP3   OH265442   2.456   2.112  12.276 -0.1200 -0.2285 -0.0558
14676TIP3    H165443   2.539   2.087  12.235 -0.5138 -1.1476 -0.3279
14676TIP3    H265444   2.414   2.029  12.297 -1.1532  0.2183 -0.2965
14677TIP3   OH265445   0.037   1.169  10.550  0.0794 -0.1492  0.2161
14677TIP3    H165446   0.014   1.258  10.576  0.7610 -0.2100  1.0623
14677TIP3    H265447   0.132   1.170  10.545  0.0607 -0.6655 -0.4323
14678TIP3   OH265448   4.409   1.789  14.101  0.3619  0.3025  0.3355
14678TIP3    H165449   4.464   1.824  14.031 -0.5142 -1.0228 -1.0742
14678TIP3    H265450   4.448   1.704  14.121 -0.8673 -0.4687 -0.3939
14679TIP3   OH265451   2.013   6.338   3.686 -0.0018  0.1574 -0.1952
14679TIP3    H165452   1.979   6.312   3.600  2.3680  0.6615 -1.3690
14679TIP3    H265453   1.995   6.432   3.691  0.5246  0.2833 -0.5121
14680TIP3   OH265454   2.260   4.481  14.021 -1.1294 -0.5672 -0.3937
14680TIP3    H165455   2.167   4.491  14.003 -1.1712  0.4064  0.2648
14680TIP3    H265456   2.280   4.549  14.085  0.3944  0.3350 -1.7421
14681TIP3   OH265457   5.552   1.568   1.970  0.3318 -0.1993 -0.3278
14681TIP3    H165458   5.611   1.602   1.902  2.8996  1.3947  2.4322
14681TIP3    H265459   5.525   1.646   2.019 -1.2372 -1.3090  0.6488
14682TIP3   OH265460   3.255   3.649   0.315 -0.2099 -0.1937  0.1803
14682TIP3    H165461   3.251   3.724   0.257 -2.0130  0.1630  0.6982
14682TIP3    H265462   3.256   3.573   0.256  1.1342  0.1932 -0.3292
14683TIP3   OH265463   0.372   4.961   0.334  0.2589 -0.4671  0.1318
14683TIP3    H165464   0.419   5.039   0.362  0.6178 -0.3743 -0.7307
14683TIP3    H265465   0.426   4.888   0.366  1.5550 -0.3751 -1.6962
14684TIP3   OH265466   6.010   4.698   3.263  0.2555  0.1472 -0.3551
14684TIP3    H165467   5.942   4.756   3.297 -0.2883 -1.5733  1.6901
14684TIP3    H265468   6.059   4.671   3.340 -0.0835 -2.7614 -1.0571
14685TIP3   OH265469   5.162   4.993   1.526 -0.5644 -0.0647 -0.3461
14685TIP3    H165470   5.127   4.935   1.594 -0.0539 -2.1101 -1.7457
14685TIP3    H265471   5.255   5.000   1.546  0.2147 -3.0281 -2.3006
14686TIP3   OH265472   3.811   2.515   1.819  0.0609 -0.0477  0.4403
14686TIP3    H165473   3.824   2.502   1.913 -2.9317 -2.1444  0.6770
14686TIP3    H265474   3.809   2.426   1.782  1.0843  0.7179 -1.6523
14687TIP3   OH265475   5.915   2.762   1.444 -0.0980  0.5458 -0.1646
14687TIP3    H165476   5.907   2.806   1.528  0.4995  1.4330 -0.5604
14687TIP3    H265477   5.827   2.726   1.427  0.0600 -0.6519  1.3547
14688TIP3   OH265478   5.458   5.811   2.522  0.0411  0.4421 -0.2531
14688TIP3    H165479   5.433   5.903   2.517 -1.4428  0.1294  0.7878
14688TIP3    H265480   5.495   5.801   2.610  0.9879  0.1953 -0.6547
14689TIP3   OH265481   4.500   0.788   0.325  0.2682  0.2312  0.0915
14689TIP3    H165482   4.483   0.758   0.414 -0.6958  1.1555  0.2350
14689TIP3    H265483   4.423   0.759   0.275 -0.1587  1.4764  0.0050
14690TIP3   OH265484   6.600   0.116   6.488 -0.3235 -0.0799 -0.1561
14690TIP3    H165485   6.530   0.163   6.441 -0.8580 -0.4899  0.2218
14690TIP3    H265486   6.579   0.024   6.477  0.2686 -0.2156 -0.1938
14691TIP3   OH265487   1.084   6.116  14.596  0.1876  0.2314 -0.3615
14691TIP3    H165488   1.007   6.120  14.539  0.2838 -3.3876 -0.9963
14691TIP3    H265489   1.048   6.114  14.685 -0.2631  1.1866 -0.5162
14692TIP3   OH265490   4.261   3.223  14.756 -0.1874  0.1891 -0.0969
14692TIP3    H165491   4.298   3.248  14.840 -0.0300  0.5342 -0.2642
14692TIP3    H265492   4.338   3.200  14.703 -0.0618  2.1897 -0.8716
14693TIP3   OH265493   3.850   2.128   4.845 -0.5266  0.4959 -0.2669
14693TIP3    H165494   3.794   2.185   4.898 -1.3563 -0.1831 -0.3847
14693TIP3    H265495   3.898   2.189   4.788  1.7249  1.4104  2.3623
14694TIP3   OH265496   6.256   1.129  16.792  0.3216 -0.3870  0.6852
14694TIP3    H165497   6.219   1.047  16.823  0.1025 -1.0907 -1.3047
14694TIP3    H265498   6.214   1.145  16.707 -1.3768  2.9917  1.9687
14695TIP3   OH265499   0.304   3.390   3.863  0.4411  0.2222  0.1184
14695TIP3    H165500   0.287   3.484   3.869 -0.1468  0.0746  0.9468
14695TIP3    H265501   0.314   3.373   3.769 -0.2237  0.9743 -0.0983
14696TIP3   OH265502   0.797   2.407  16.079  0.2090  0.3741  0.9921
14696TIP3    H165503   0.889   2.415  16.102  1.3455 -3.4014 -1.4353
14696TIP3    H265504   0.795   2.407  15.983 -1.7407 -2.9454  0.8544
14697TIP3   OH265505   5.798   3.663  12.585 -0.0117  0.4664  0.2905
14697TIP3    H165506   5.786   3.618  12.669 -0.9436  0.3974  0.1254
14697TIP3    H265507   5.710   3.689  12.558  0.0575 -0.8298 -1.3975
14698TIP3   OH265508   1.527   1.316   3.433  0.2000 -0.7005 -0.6566
14698TIP3    H165509   1.502   1.255   3.363  1.1262 -1.3683 -0.4325
14698TIP3    H265510   1.609   1.280   3.467 -0.0785 -0.2140  0.5713
14699TIP3   OH265511   5.326   1.065   4.606  0.1320  0.3215 -0.0658
14699TIP3    H165512   5.290   1.151   4.586 -2.0798 -0.2647  1.1060
14699TIP3    H265513   5.373   1.078   4.689  2.5422  1.0222 -1.4519
14700TIP3   OH265514   4.753   0.963  14.061  0.4119 -0.0266 -0.7586
14700TIP3    H165515   4.748   0.949  13.967 -0.8228  0.0092 -0.7089
14700TIP3    H265516   4.760   1.058  14.071  2.6342 -0.1306 -0.8647
14701TIP3   OH265517   5.611   4.951   0.808  0.0539 -0.5910  0.1665
14701TIP3    H165518   5.597   4.918   0.719 -0.1502 -1.5767  0.5470
14701TIP3    H265519   5.567   4.887   0.864 -0.0204  0.1451  0.9673
14702TIP3   OH265520   2.133   3.288  12.104 -0.4962  0.6406  0.3234
14702TIP3    H165521   2.208   3.310  12.048 -0.5941  1.5712  0.5347
14702TIP3    H265522   2.168   3.291  12.193 -1.1105  2.7306  0.5518
14703TIP3   OH265523   5.132   3.940  13.631 -0.3699 -0.0553 -0.0459
14703TIP3    H165524   5.189   3.889  13.689  0.5788 -0.3633 -1.2144
14703TIP3    H265525   5.079   3.992  13.691 -1.3640 -2.3479  1.1897
14704TIP3   OH265526   3.273   1.055   3.553  0.1783  0.4745 -0.1552
14704TIP3    H165527   3.216   1.086   3.482  1.8910  1.1935 -1.2815
14704TIP3    H265528   3.330   0.991   3.512  1.1342  0.8297  0.5900
14705TIP3   OH265529   2.896   3.758   1.787  0.1198  0.2111 -0.6904
14705TIP3    H165530   2.840   3.786   1.860  1.4605 -1.1369  0.9419
14705TIP3    H265531   2.849   3.685   1.747  0.2557 -0.3027  0.0704
14706TIP3   OH265532   3.727   4.930   5.927  0.6869  0.1070 -0.4151
14706TIP3    H165533   3.716   4.845   5.885 -1.1473  0.4640 -0.7399
14706TIP3    H265534   3.739   4.991   5.854 -1.5120  0.5832 -0.4524
14707TIP3   OH265535   3.918   4.992  11.408  0.1717  0.6318  0.2215
14707TIP3    H165536   3.966   4.976  11.326 -0.3025 -0.5746  0.1596
14707TIP3    H265537   3.982   4.975  11.477 -0.2521 -1.4734  0.1500
14708TIP3   OH265538   4.262   0.037  11.389 -0.2808 -0.1858 -0.5882
14708TIP3    H165539   4.307   0.046  11.473 -1.8409  1.9538  0.0977
14708TIP3    H265540   4.325   0.071  11.325 -0.7520  2.7320  0.3477
14709TIP3   OH265541   3.512   2.651   2.666  0.2105  0.2412 -0.1797
14709TIP3    H165542   3.477   2.631   2.753  1.3800  1.0141  0.4882
14709TIP3    H265543   3.531   2.566   2.628 -0.7203 -0.1234  0.1288
14710TIP3   OH265544   4.876   6.690   4.127 -0.2761 -0.1777 -0.0173
14710TIP3    H165545   4.964   6.727   4.128 -0.8882  1.3124  0.2229
14710TIP3    H265546   4.833   6.734   4.054 -0.9944 -0.5292  0.1899
14711TIP3   OH265547   6.293   5.685  16.835 -0.6596  0.0982 -0.4225
14711TIP3    H165548   6.321   5.774  16.857 -1.3131  0.0366  0.7451
14711TIP3    H265549   6.239   5.658  16.909 -1.9283 -0.6128 -1.5596
14712TIP3   OH265550   1.340   5.627  15.347  0.5332 -0.4140  0.0426
14712TIP3    H165551   1.338   5.668  15.434  0.7811 -0.6101  0.1429
14712TIP3    H265552   1.342   5.533  15.365 -0.6235 -0.4961 -0.1912
14713TIP3   OH265553   5.723   2.783   3.797  0.0628 -0.3435 -0.4279
14713TIP3    H165554   5.796   2.838   3.768  1.2617 -0.6383  1.8490
14713TIP3    H265555   5.651   2.845   3.812 -0.3441 -0.0820 -2.9900
14714TIP3   OH265556   5.175   3.733  13.229  0.1057  0.1535  0.1417
14714TIP3    H165557   5.214   3.707  13.312  1.4902  1.8871  0.0969
14714TIP3    H265558   5.109   3.798  13.253  0.1345  0.2650 -0.0834
14715TIP3   OH265559   2.754   0.098  14.111  0.6106 -0.1866 -0.0447
14715TIP3    H165560   2.736   0.186  14.145  1.6024  0.4573 -1.1251
14715TIP3    H265561   2.729   0.102  14.019 -0.6562 -1.4704  0.2043
14716TIP3   OH265562   2.022   2.640   5.210 -0.1232  0.0459  0.2924
14716TIP3    H165563   2.009   2.730   5.240 -0.1429 -0.1283  0.8179
14716TIP3    H265564   2.082   2.602   5.274  0.5424 -0.0782 -0.3900
14717TIP3   OH265565   5.376   2.568   5.918 -0.6934  0.5076  0.3464
14717TIP3    H165566   5.285   2.589   5.939 -2.0920 -1.5922 -2.8565
14717TIP3    H265567   5.417   2.653   5.901 -2.5675  1.4034  0.0683
14718TIP3   OH265568   5.005   4.867   5.172  0.4150 -1.0428  0.1000
14718TIP3    H165569   5.063   4.862   5.248  1.3097 -2.1666 -0.6105
14718TIP3    H265570   5.063   4.894   5.100 -0.3883 -0.1148 -0.2123
14719TIP3   OH265571   5.039   2.117   4.026  0.1323 -0.3395  0.0446
14719TIP3    H165572   4.966   2.150   4.078 -0.9880 -2.4863 -0.0387
14719TIP3    H265573   5.065   2.036   4.071  1.6544 -0.2823 -0.6511
14720TIP3   OH265574   0.247   2.047   5.604 -0.6935 -0.0208 -0.2531
14720TIP3    H165575   0.286   1.959   5.607  1.2281  0.7314 -1.6865
14720TIP3    H265576   0.266   2.084   5.690 -1.1471 -0.8455  0.2134
14721TIP3   OH265577   5.469   2.603   3.117 -0.3148 -0.0318 -0.1172
14721TIP3    H165578   5.462   2.677   3.056 -0.5536  0.8703  0.9787
14721TIP3    H265579   5.382   2.596   3.156 -0.0597 -0.3703  0.3871
14722TIP3   OH265580   1.194   2.080  10.987  0.4259 -0.0071  0.9375
14722TIP3    H165581   1.110   2.035  10.989  0.9380 -0.9758  1.6187
14722TIP3    H265582   1.184   2.147  10.920 -0.5196 -0.8365  0.2215
14723TIP3   OH265583   3.924   4.282  13.300  0.6701  0.1927 -0.3568
14723TIP3    H165584   3.938   4.371  13.267  2.6272  0.6790  1.6120
14723TIP3    H265585   3.885   4.294  13.386  0.5523 -0.8883 -0.2468
14724TIP3   OH265586   1.664   2.072  14.562 -0.1062 -0.0999  0.0809
14724TIP3    H165587   1.583   2.070  14.512  1.5020 -1.4389 -2.7308
14724TIP3    H265588   1.666   1.988  14.609  0.3222 -0.7607 -1.0885
14725TIP3   OH265589   6.312   3.182  12.529  0.9139  0.2173 -0.0946
14725TIP3    H165590   6.223   3.214  12.509  1.4802  1.2368 -1.1201
14725TIP3    H265591   6.308   3.088  12.514  0.4451  0.4853 -1.9680
14726TIP3   OH265592   2.719   6.642  11.391 -0.4242  0.7067  0.2428
14726TIP3    H165593   2.628   6.657  11.415 -0.5080  0.4669  0.0822
14726TIP3    H265594   2.735   6.701  11.317  0.0107  1.8860  1.2428
14727TIP3   OH265595   6.466   0.498   5.182 -0.4075  0.3061  0.4072
14727TIP3    H165596   6.546   0.548   5.201  0.2309 -0.6611  0.3251
14727TIP3    H265597   6.395   0.561   5.195  0.4462  1.7111 -1.2966
14728TIP3   OH265598   5.270   5.138  16.624 -0.2200 -0.1748  0.4154
14728TIP3    H165599   5.362   5.111  16.617  0.3670  0.8106  2.9114
14728TIP3    H265600   5.230   5.072  16.680  0.0691  1.4347  2.6781
14729TIP3   OH265601   5.923   3.553   0.477  0.2042 -0.2720 -0.2257
14729TIP3    H165602   6.001   3.572   0.528  0.4364 -0.1121 -0.6370
14729TIP3    H265603   5.907   3.632   0.426 -1.4137  0.4934  1.3362
14730TIP3   OH265604   4.448   6.790  11.026  0.2046 -0.7739 -0.1791
14730TIP3    H165605   4.484   6.720  11.080 -0.6943 -0.8833  0.2913
14730TIP3    H265606   4.493   6.869  11.056 -0.0531 -0.8819  0.5038
14731TIP3   OH265607   5.341   6.629   2.003  0.4258  0.1536  0.4983
14731TIP3    H165608   5.289   6.620   2.083  0.2028  2.0317  0.6091
14731TIP3    H265609   5.308   6.709   1.963  2.6006  0.8878  0.0864
14732TIP3   OH265610   0.560   3.516   1.696  0.0998  0.2987  0.8291
14732TIP3    H165611   0.517   3.446   1.745 -0.5830  0.3417  0.3141
14732TIP3    H265612   0.638   3.474   1.659 -0.5440 -0.3345  0.1404
14733TIP3   OH265613   5.670   1.139  10.831  0.2477 -0.0629  0.4935
14733TIP3    H165614   5.640   1.223  10.797  1.8030 -0.3386 -1.8129
14733TIP3    H265615   5.634   1.074  10.771  0.1775 -0.9551  1.4605
14734TIP3   OH265616   0.248   4.146   1.302 -0.4934  0.0269 -0.4968
14734TIP3    H165617   0.239   4.079   1.370  0.7235 -0.3658 -0.6823
14734TIP3    H265618   0.328   4.193   1.325 -1.2667  1.3656 -0.4386
14735TIP3   OH265619   2.346   4.778   2.325 -1.2633  0.9245 -0.1593
14735TIP3    H165620   2.343   4.711   2.256 -0.5663  2.0022 -1.2840
14735TIP3    H265621   2.378   4.732   2.402  3.4392  0.6502 -1.9417
14736TIP3   OH265622   5.989   0.466  12.362 -0.3522  0.5775  0.2619
14736TIP3    H165623   6.042   0.421  12.296 -1.5797 -2.9337  1.4459
14736TIP3    H265624   5.989   0.558  12.335  3.0377  0.0976 -1.9330
14737TIP3   OH265625   5.884   6.144  12.562  0.2034  0.4717 -0.8735
14737TIP3    H165626   5.840   6.146  12.647 -0.6752  0.4524 -1.3187
14737TIP3    H265627   5.909   6.053  12.549  0.7774  0.5565 -0.4294
14738TIP3   OH265628   0.589   1.472  15.978 -0.2291 -0.0513 -0.2463
14738TIP3    H165629   0.518   1.412  15.999 -1.1950  1.1720  0.0588
14738TIP3    H265630   0.585   1.482  15.883 -0.9585  0.6053 -0.1501
14739TIP3   OH265631   4.169   5.896   6.258 -0.3628  0.2348  0.5268
14739TIP3    H165632   4.144   5.987   6.239 -0.5871 -0.1003 -0.8721
14739TIP3    H265633   4.231   5.873   6.189 -0.8721 -0.9038  0.4290
14740TIP3   OH265634   3.507   2.763  15.835  0.0601 -0.5312 -0.0366
14740TIP3    H165635   3.557   2.690  15.800 -0.7355 -1.2150  0.2046
14740TIP3    H265636   3.448   2.788  15.764 -0.6597 -1.0762  0.3519
14741TIP3   OH265637   3.219   6.571  16.545 -0.1673 -0.1454 -0.0207
14741TIP3    H165638   3.223   6.534  16.633  0.2653 -0.9998 -0.3881
14741TIP3    H265639   3.260   6.658  16.553 -0.2742 -0.1538  0.6445
14742TIP3   OH265640   5.878   1.361  13.657  0.4428 -0.3666  0.0915
14742TIP3    H165641   5.796   1.356  13.608  0.9237  0.0715 -0.7938
14742TIP3    H265642   5.858   1.419  13.730  0.2736  0.7517 -0.8075
14743TIP3   OH265643   5.438   2.925   4.423 -0.9845  0.1689 -0.3596
14743TIP3    H165644   5.456   2.925   4.518 -0.9850 -0.0315 -0.3594
14743TIP3    H265645   5.502   2.864   4.387 -1.5566 -0.4353 -0.3791
14744TIP3   OH265646   5.503   5.119  15.416  0.0736  0.5747  0.0606
14744TIP3    H165647   5.575   5.177  15.443  0.2366 -0.2386  1.4609
14744TIP3    H265648   5.510   5.115  15.321  3.9746 -2.0174  0.2361
14745TIP3   OH265649   4.879   0.084  11.349 -0.0259  0.4405  0.1840
14745TIP3    H165650   4.806   0.145  11.340 -0.2300 -0.0481 -2.0888
14745TIP3    H265651   4.874   0.028  11.272  2.1194 -0.3239  0.5048
14746TIP3   OH265652   5.671   0.436   2.112  0.2836 -0.0499 -0.3363
14746TIP3    H165653   5.632   0.485   2.039  0.1855 -1.3855 -1.2260
14746TIP3    H265654   5.635   0.477   2.190 -1.9477 -0.4022 -1.0958
14747TIP3   OH265655   5.721   5.837   3.938 -0.7389  0.0277  0.4427
14747TIP3    H165656   5.745   5.756   3.985 -2.0026 -0.3779  0.4311
14747TIP3    H265657   5.726   5.905   4.005 -0.2451 -0.1614  0.6011
14748TIP3   OH265658   5.946   2.255   2.196 -0.1713 -0.3912 -0.3985
14748TIP3    H165659   5.957   2.342   2.157  2.1318 -0.6355 -0.4507
14748TIP3    H265660   5.891   2.269   2.273  1.7827  1.4973  0.7415
14749TIP3   OH265661   1.208   3.646   3.551  0.9772 -0.5825  0.2169
14749TIP3    H165662   1.157   3.700   3.612  0.7272 -1.0161  0.3981
14749TIP3    H265663   1.149   3.574   3.528  1.9034 -1.7680  1.3875
14750TIP3   OH265664   1.961   2.494   4.391  0.0386 -0.5306  0.2233
14750TIP3    H165665   1.941   2.583   4.363  1.5612 -0.6959 -1.5892
14750TIP3    H265666   2.051   2.499   4.425  0.1346 -1.3760  0.1150
14751TIP3   OH265667   5.259   6.051  13.224  0.0046 -0.0211  0.2117
14751TIP3    H165668   5.319   6.012  13.288  1.3841  3.8798  1.6152
14751TIP3    H265669   5.312   6.062  13.146 -0.0265  0.0703  0.2035
14752TIP3   OH265670   1.455   6.227   2.337  0.5031  0.3282 -0.3828
14752TIP3    H165671   1.547   6.203   2.327  0.6202  0.0841  1.0442
14752TIP3    H265672   1.456   6.296   2.404 -0.5254 -1.3931  1.5259
14753TIP3   OH265673   3.786   1.915  15.253 -0.3173 -0.6245  0.0260
14753TIP3    H165674   3.767   1.822  15.254 -1.6266 -0.4930 -2.5511
14753TIP3    H265675   3.845   1.926  15.178 -1.0186  0.7124 -0.3610
14754TIP3   OH265676   5.752   3.125  13.285  0.6743 -0.3962 -0.3041
14754TIP3    H165677   5.798   3.180  13.349 -0.4610  0.6796 -0.3647
14754TIP3    H265678   5.746   3.040  13.328  2.3193 -0.4689 -0.1258
14755TIP3   OH265679   0.052   3.671  10.635  0.2314 -0.0267 -0.3655
14755TIP3    H165680   0.080   3.745  10.689  1.3935 -0.8398  0.1887
14755TIP3    H265681  -0.020   3.706  10.582  0.5412  1.4024  0.1049
14756TIP3   OH265682   0.892   5.350  17.188  0.1935  0.1926 -0.6396
14756TIP3    H165683   0.839   5.428  17.203  0.7736  0.4929 -0.1387
14756TIP3    H265684   0.937   5.366  17.106  0.6341  0.5663 -0.3266
14757TIP3   OH265685   1.499   6.403  17.106  0.5333 -0.4427  0.4603
14757TIP3    H165686   1.457   6.462  17.044  0.2587 -1.5959 -0.4956
14757TIP3    H265687   1.551   6.460  17.162 -0.1012  0.7404 -0.1091
14758TIP3   OH265688   5.139   4.909  13.297 -0.5932 -0.1316  0.1056
14758TIP3    H165689   5.133   4.813  13.292 -1.9359 -0.1339  1.0250
14758TIP3    H265690   5.213   4.932  13.242 -2.2194 -1.4436 -2.8937
14759TIP3   OH265691   3.376   5.838   3.055  0.5370 -0.8556 -0.3554
14759TIP3    H165692   3.371   5.893   3.133 -1.7847 -2.4380  0.7643
14759TIP3    H265693   3.424   5.890   2.991 -0.4281  1.9118  1.0104
14760TIP3   OH265694   1.442   3.871  12.218 -0.0050  0.3652  0.6794
14760TIP3    H165695   1.485   3.813  12.281  0.7493  1.6818  1.4285
14760TIP3    H265696   1.514   3.911  12.170 -0.5702 -1.2467 -1.7105
14761TIP3   OH265697   6.313   4.355   1.638 -0.1873 -0.0147  0.4417
14761TIP3    H165698   6.346   4.429   1.688  0.8857 -0.9241  1.1129
14761TIP3    H265699   6.272   4.298   1.703  1.3354 -1.2681  0.3697
14762TIP3   OH265700   4.583   6.777  13.184  0.6846  0.3394  0.6476
14762TIP3    H165701   4.664   6.750  13.227 -0.0553 -0.3172  1.6680
14762TIP3    H265702   4.538   6.695  13.164 -0.7501  0.6931  2.1463
14763TIP3   OH265703   1.206   1.463   3.889  0.1336 -0.2920  0.1453
14763TIP3    H165704   1.235   1.546   3.926  0.2287  0.0948 -0.7563
14763TIP3    H265705   1.117   1.480   3.857 -0.4204 -0.9657  1.2891
14764TIP3   OH265706   1.345   0.104  14.223 -0.4688 -0.0845 -0.2768
14764TIP3    H165707   1.285   0.121  14.151 -0.5284 -0.6484 -0.3676
14764TIP3    H265708   1.295   0.126  14.302 -0.8986 -0.7912 -0.3374
14765TIP3   OH265709   1.345   3.852   3.764  0.4844 -0.6465 -0.2337
14765TIP3    H165710   1.333   3.808   3.848 -0.2976 -0.7130 -0.3768
14765TIP3    H265711   1.439   3.870   3.760  0.6854 -1.5344  0.2059
14766TIP3   OH265712   4.851   2.865  12.791 -0.0777 -0.5272 -0.4126
14766TIP3    H165713   4.931   2.917  12.795 -0.6401  0.2492  1.4884
14766TIP3    H265714   4.829   2.846  12.882 -1.9477 -0.9072 -0.8879
14767TIP3   OH265715   6.716   6.231   4.390  0.1818 -0.1711 -0.1223
14767TIP3    H165716   6.683   6.273   4.469 -1.6855 -1.2890 -0.2486
14767TIP3    H265717   6.654   6.256   4.322  0.7993 -0.6126 -0.8597
14768TIP3   OH265718   2.858   4.758   0.063 -0.2270  0.1093  0.2606
14768TIP3    H165719   2.908   4.840   0.058  0.1020 -0.1060 -0.0725
14768TIP3    H265720   2.818   4.749  -0.024  0.2750 -0.4110  0.0744
14769TIP3   OH265721   6.575   4.114   0.961  0.0278 -0.1857 -0.0360
14769TIP3    H165722   6.660   4.087   0.926 -0.1358 -0.4213 -0.2547
14769TIP3    H265723   6.571   4.208   0.945  0.8766  0.0987  1.3081
14770TIP3   OH265724   5.038   4.681   3.357  0.4842  0.5662 -0.5933
14770TIP3    H165725   5.083   4.762   3.379  0.1821  1.0492 -1.6529
14770TIP3    H265726   4.945   4.702   3.363  0.3775  0.8163 -2.4902
14771TIP3   OH265727   5.131   3.012  13.465  0.3148  0.4325  0.0419
14771TIP3    H165728   5.155   2.937  13.519  2.0684 -0.7751 -2.2321
14771TIP3    H265729   5.048   3.043  13.502  0.9060 -0.8907  2.7359
14772TIP3   OH265730   0.172   2.955   1.215 -0.0039 -0.2973  0.2508
14772TIP3    H165731   0.226   3.004   1.153  0.0825  0.3111  0.7936
14772TIP3    H265732   0.153   2.873   1.170  0.9084 -0.2928 -0.1690
14773TIP3   OH265733   2.673   4.693   0.746 -0.2579  0.7970 -0.6397
14773TIP3    H165734   2.654   4.630   0.677  1.0146  0.4096 -0.6644
14773TIP3    H265735   2.647   4.778   0.709  0.5877  0.6219 -1.6842
14774TIP3   OH265736   1.856   6.738  15.464  0.0781 -0.6866  0.2602
14774TIP3    H165737   1.808   6.724  15.545  0.7277 -4.2703  0.1696
14774TIP3    H265738   1.920   6.667  15.461  0.7478 -0.1002 -2.9212
14775TIP3   OH265739   2.305   4.014  17.018  0.3621  0.1276  0.6828
14775TIP3    H165740   2.306   3.923  16.990  1.3437 -0.1608  1.6113
14775TIP3    H265741   2.295   4.010  17.113  0.6790  0.9868  0.7623
14776TIP3   OH265742   6.408   2.709  14.208 -0.3408  0.4760 -0.1335
14776TIP3    H165743   6.404   2.802  14.190  0.7972  0.7107  0.6693
14776TIP3    H265744   6.500   2.686  14.192 -0.3075 -0.2109  0.9668
14777TIP3   OH265745   4.711   3.870  14.824  0.4508 -0.2756  0.0844
14777TIP3    H165746   4.640   3.823  14.781  1.0736 -1.6162  0.4642
14777TIP3    H265747   4.672   3.953  14.851 -1.4237 -1.5633  1.6137
14778TIP3   OH265748   5.789   4.583  15.890  0.1225  0.0262 -0.7571
14778TIP3    H165749   5.857   4.567  15.824  1.6998 -0.6788  0.9404
14778TIP3    H265750   5.838   4.599  15.971 -1.7392  0.9004  0.2566
14779TIP3   OH265751   1.074   4.882  12.283 -0.6898 -0.1953 -0.1555
14779TIP3    H165752   1.134   4.955  12.272 -0.1808 -0.2489  1.8011
14779TIP3    H265753   1.001   4.917  12.334 -2.6175 -0.0310 -2.8278
14780TIP3   OH265754   3.386   6.523   3.498  0.2370 -0.0908 -0.2299
14780TIP3    H165755   3.333   6.481   3.431  0.5312  1.1685 -1.2889
14780TIP3    H265756   3.329   6.528   3.575 -0.4870 -0.5290 -0.7328
14781TIP3   OH265757   0.967   4.067   3.096 -0.0347 -0.4633  0.1754
14781TIP3    H165758   0.980   4.162   3.087 -3.2589 -0.0242 -1.3332
14781TIP3    H265759   1.015   4.029   3.022  0.4667  0.0900  0.2121
14782TIP3   OH265760   2.359   4.270   2.401 -0.1269  0.5481  0.1021
14782TIP3    H165761   2.325   4.346   2.354  0.9088  0.7001 -0.4367
14782TIP3    H265762   2.287   4.207   2.402 -0.7937  1.2996  0.0272
14783TIP3   OH265763   3.509   1.208   2.880 -0.1944  0.1785  0.2034
14783TIP3    H165764   3.539   1.213   2.971  1.5669 -0.2938 -0.3074
14783TIP3    H265765   3.414   1.220   2.885 -0.0400  0.9487  2.0159
14784TIP3   OH265766   4.718   4.965   5.603  0.4027 -0.6716 -0.8978
14784TIP3    H165767   4.647   4.933   5.658  0.6335 -1.2804 -0.9447
14784TIP3    H265768   4.678   5.032   5.548  0.0025 -0.5924 -0.5117
14785TIP3   OH265769   5.053   4.994   0.960 -0.1058  0.1147 -0.1377
14785TIP3    H165770   5.041   5.089   0.959  2.3877  0.4995  0.5663
14785TIP3    H265771   5.057   4.972   1.053  0.7084 -0.4567 -0.3020
14786TIP3   OH265772   0.405   6.179   0.110  0.1297 -0.5676 -0.7910
14786TIP3    H165773   0.328   6.131   0.080 -0.1203 -0.5974 -0.1108
14786TIP3    H265774   0.372   6.241   0.175  0.2518  1.4282 -2.5376
14787TIP3   OH265775   4.232   5.222   1.934  0.1086 -0.4958 -0.3976
14787TIP3    H165776   4.142   5.252   1.918  0.3977 -0.8264 -3.2752
14787TIP3    H265777   4.245   5.153   1.869  2.9324  0.6340 -1.1552
14788TIP3   OH265778   3.709   0.188  12.231  0.0968  0.0135 -0.0861
14788TIP3    H165779   3.718   0.226  12.318 -1.1610  0.3487 -0.0797
14788TIP3    H265780   3.617   0.161  12.226  0.8147 -2.6379 -0.2719
14789TIP3   OH265781   5.827   3.811  15.231  0.1805  0.1921  0.4145
14789TIP3    H165782   5.745   3.808  15.279 -0.1555 -0.0758 -0.1657
14789TIP3    H265783   5.880   3.877  15.276  0.7633 -1.6121  2.5465
14790TIP3   OH265784   0.658   3.560   0.459  0.0744 -0.3831  0.1572
14790TIP3    H165785   0.576   3.526   0.494  0.3260  0.1156  1.2754
14790TIP3    H265786   0.662   3.526   0.370 -0.8895 -1.1828  0.4012
14791TIP3   OH265787   5.358   2.124  13.320  0.0336 -0.2900  0.1459
14791TIP3    H165788   5.406   2.188  13.268 -2.1650  1.4929  0.1469
14791TIP3    H265789   5.354   2.163  13.408 -0.9935 -0.6014  0.2527
14792TIP3   OH265790   4.204   5.355  11.308  0.2869 -0.1722  0.1376
14792TIP3    H165791   4.270   5.336  11.242 -0.2589 -0.3263 -0.3660
14792TIP3    H265792   4.213   5.449  11.324 -0.2047  0.0478 -0.8401
14793TIP3   OH265793   2.054   2.766  16.931 -0.0945 -0.0349 -0.0729
14793TIP3    H165794   2.021   2.731  16.848  0.3588 -0.2523 -0.1678
14793TIP3    H265795   1.993   2.732  16.997 -2.4102  2.7466 -0.5724
14794TIP3   OH265796   5.198   0.534  16.367  0.6515 -0.6347 -0.0825
14794TIP3    H165797   5.134   0.501  16.305  2.2886 -1.6986 -1.2623
14794TIP3    H265798   5.249   0.598  16.318 -0.4434  1.4390  1.2955
14795TIP3   OH265799   4.579   2.646  11.861  0.1696  0.0226  0.3605
14795TIP3    H165800   4.621   2.597  11.790  0.2972 -0.3366  0.6811
14795TIP3    H265801   4.494   2.673  11.824 -0.2956 -1.2169  0.4785
14796TIP3   OH265802   5.306   6.654   4.761  0.5754  0.1528  0.3702
14796TIP3    H165803   5.396   6.686   4.764  0.2178  1.5689 -1.8873
14796TIP3    H265804   5.268   6.683   4.844  2.6931 -2.4198  2.4401
14797TIP3   OH265805   4.347   3.794  16.335  0.3144  0.2787 -0.0577
14797TIP3    H165806   4.260   3.770  16.303 -0.6691  2.7079  0.5353
14797TIP3    H265807   4.330   3.836  16.420  1.8329  2.4973 -0.7681
14798TIP3   OH265808   1.730   6.459   3.151  0.3235 -0.4949  0.2526
14798TIP3    H165809   1.654   6.508   3.184 -0.7066 -0.4231 -2.0089
14798TIP3    H265810   1.712   6.368   3.174 -0.3197 -0.4375  0.0036
14799TIP3   OH265811   3.494   4.785  13.794 -0.5737  0.2478 -0.1902
14799TIP3    H165812   3.541   4.810  13.714  0.2819  1.0602  0.5298
14799TIP3    H265813   3.404   4.812  13.779 -0.0169  2.3911 -0.1068
14800TIP3   OH265814   3.859   4.541   1.353  0.2733 -0.3791 -0.4413
14800TIP3    H165815   3.842   4.616   1.410  0.9557 -0.1248 -0.5704
14800TIP3    H265816   3.821   4.467   1.400 -0.9356  0.1247 -0.5862
14801TIP3   OH265817   3.194   2.850  14.496  0.1323 -0.0147 -0.4634
14801TIP3    H165818   3.234   2.763  14.497  0.1162 -0.0185  0.2229
14801TIP3    H265819   3.258   2.906  14.540 -1.0956 -0.2480  1.7740
14802TIP3   OH265820   4.018   0.000  15.908  0.3570  0.2750  1.0043
14802TIP3    H165821   4.062  -0.022  15.826 -0.6052  0.8551  0.3091
14802TIP3    H265822   3.958  -0.073  15.923 -0.4443  0.7970  0.4512
14803TIP3   OH265823   5.862   5.728  11.888 -0.4663 -0.5167 -0.1123
14803TIP3    H165824   5.923   5.774  11.945 -1.0225  0.7280 -0.4952
14803TIP3    H265825   5.817   5.667  11.946  0.0346 -0.3470  0.4720
14804TIP3   OH265826   4.338   1.460  16.736  0.2208 -0.3004 -0.0679
14804TIP3    H165827   4.323   1.372  16.771  1.1775 -0.5761 -0.3217
14804TIP3    H265828   4.433   1.467  16.728  0.1710  0.8269  0.1131
14805TIP3   OH265829   1.635   1.677   3.992 -0.1430 -0.3544  0.2884
14805TIP3    H165830   1.729   1.693   3.999 -0.2004 -0.2927  1.0326
14805TIP3    H265831   1.624   1.586   4.018 -0.2638 -0.4265 -0.0164
14806TIP3   OH265832   3.417   2.674   3.585  0.2237 -0.2848  0.4856
14806TIP3    H165833   3.376   2.633   3.509 -0.5044 -0.3020  0.8755
14806TIP3    H265834   3.511   2.672   3.566 -0.0493  1.6444 -1.3630
14807TIP3   OH265835   2.307   5.585   2.266  0.4243  0.6038 -0.4404
14807TIP3    H165836   2.249   5.535   2.324  0.3695  0.8699 -0.2617
14807TIP3    H265837   2.249   5.644   2.218  0.4697  0.3804 -0.7741
14808TIP3   OH265838   3.927   1.173  11.652 -0.1366  0.4587  0.3069
14808TIP3    H165839   3.840   1.133  11.661  0.1847 -0.3933 -0.2018
14808TIP3    H265840   3.988   1.103  11.674  0.4603  0.4537 -1.2008
14809TIP3   OH265841   5.793   3.646   4.535  0.0821 -0.9023  0.1222
14809TIP3    H165842   5.712   3.607   4.501  1.1565 -2.2451 -1.0348
14809TIP3    H265843   5.835   3.685   4.459  0.3750  0.0692  0.7706
14810TIP3   OH265844   5.650   4.981  14.777  0.4468 -0.0405  0.8824
14810TIP3    H165845   5.590   4.907  14.780 -3.4250  2.7995  4.2395
14810TIP3    H265846   5.635   5.021  14.691 -0.1496 -1.1086  0.4710
14811TIP3   OH265847   5.900   6.239   3.403  0.7435  0.5533 -0.4397
14811TIP3    H165848   5.980   6.288   3.424  0.7726  0.6863 -0.8446
14811TIP3    H265849   5.930   6.149   3.389  0.2993 -0.4075  3.4964
14812TIP3   OH265850   1.740   1.308  15.283 -0.4417  0.1644  0.3932
14812TIP3    H165851   1.702   1.231  15.326 -2.2574 -0.3020 -1.7876
14812TIP3    H265852   1.718   1.381  15.340  0.3354 -0.7715  1.9606
14813TIP3   OH265853   4.145   0.820  10.823  0.2270 -0.4104  0.0720
14813TIP3    H165854   4.228   0.850  10.785 -0.2510 -0.2386 -0.8810
14813TIP3    H265855   4.131   0.876  10.899  0.4033  0.3712 -0.4627
14814TIP3   OH265856   2.656   1.418  11.804  0.0826  0.9151 -0.3017
14814TIP3    H165857   2.632   1.414  11.711  1.6249 -0.9345 -0.6828
14814TIP3    H265858   2.684   1.508  11.818 -1.7707  1.6784 -1.1733
14815TIP3   OH265859   0.278   2.476   4.410  0.3210  0.0090  0.1799
14815TIP3    H165860   0.255   2.568   4.397  0.3782  0.4999  2.8518
14815TIP3    H265861   0.201   2.438   4.454  1.2849 -0.4826  1.5376
14816TIP3   OH265862   5.248   6.695  16.452 -0.2918 -0.5248  0.3052
14816TIP3    H165863   5.225   6.662  16.538 -1.8395 -0.8838 -0.2050
14816TIP3    H265864   5.226   6.788  16.455  2.4284  0.1567  1.1911
14817TIP3   OH265865   5.579   5.541  11.738 -0.4216  0.0119  0.0168
14817TIP3    H165866   5.606   5.548  11.830  3.2894 -2.1126 -0.6953
14817TIP3    H265867   5.630   5.609  11.693 -0.0434 -0.7945 -0.7945
14818TIP3   OH265868   5.700   4.627   1.283  0.0077 -0.2128 -0.5243
14818TIP3    H165869   5.774   4.682   1.309 -0.4409 -0.4211  1.3768
14818TIP3    H265870   5.738   4.561   1.226  1.7548 -1.5948  2.0546
14819TIP3   OH265871   0.442   0.882  16.775 -0.1923 -0.4699 -0.0805
14819TIP3    H165872   0.432   0.977  16.784  1.1673 -0.2750 -0.5028
14819TIP3    H265873   0.382   0.846  16.841  0.7374  0.7212  1.4968
14820TIP3   OH265874   4.058   6.552   0.740 -0.4736 -0.3088 -0.3671
14820TIP3    H165875   4.019   6.465   0.728 -1.7212  0.0742  0.6547
14820TIP3    H265876   3.983   6.611   0.749  0.3553  0.7604 -0.2055
14821TIP3   OH265877   1.211   6.333   2.542 -0.2745  0.8961 -0.8016
14821TIP3    H165878   1.160   6.405   2.505 -1.2899  0.1768 -0.8329
14821TIP3    H265879   1.298   6.370   2.557 -0.9147  2.2629 -0.3697
14822TIP3   OH265880   4.744   6.307  15.992  0.5471 -0.1837  0.6659
14822TIP3    H165881   4.834   6.296  15.962  0.8559  1.6722  0.8146
14822TIP3    H265882   4.752   6.347  16.078 -0.4076 -2.1518  1.7528
14823TIP3   OH265883   4.966   2.449   3.326 -0.1961 -0.4209  0.2265
14823TIP3    H165884   4.951   2.483   3.238  0.5310 -0.6448  0.0115
14823TIP3    H265885   4.943   2.521   3.384  1.7704  0.6465 -0.2350
14824TIP3   OH265886   0.056   0.380  13.758 -0.3323  0.4504 -0.1003
14824TIP3    H165887   0.126   0.318  13.736  1.3365  2.3372 -0.4057
14824TIP3    H265888   0.033   0.358  13.849 -0.7536 -1.4130 -0.5972
14825TIP3   OH265889   0.519   2.972  16.246  0.5403 -0.0206 -0.5932
14825TIP3    H165890   0.465   3.007  16.176  0.3213 -0.5375 -0.6900
14825TIP3    H265891   0.462   2.975  16.323  1.0103  1.1891 -0.2782
14826TIP3   OH265892   1.808   3.248   3.511  0.4039 -0.3887  0.1332
14826TIP3    H165893   1.740   3.309   3.540  0.0321 -0.3824 -0.7456
14826TIP3    H265894   1.784   3.165   3.552 -0.4690 -0.5307 -0.6384
14827TIP3   OH265895   4.804   2.172   4.161  0.0924  0.4159  0.1323
14827TIP3    H165896   4.713   2.199   4.152  0.0770  0.5331  0.6071
14827TIP3    H265897   4.800   2.090   4.210  0.2239  0.2582 -0.1189
14828TIP3   OH265898   6.193   4.343  15.457 -0.1416 -0.2172 -0.1864
14828TIP3    H165899   6.098   4.336  15.452 -0.1046 -1.0772  0.0631
14828TIP3    H265900   6.216   4.418  15.403 -1.2053  1.8407  2.0228
14829TIP3   OH265901   1.448   0.844   0.492  0.5274 -0.9676  0.2940
14829TIP3    H165902   1.446   0.929   0.449  1.9148 -1.7197 -1.3812
14829TIP3    H265903   1.462   0.781   0.421  2.0034 -2.3616  1.7324
14830TIP3   OH265904   2.411   2.258  11.323  0.9735 -0.0934  0.1454
14830TIP3    H165905   2.389   2.213  11.404 -0.0603  1.7840  0.9571
14830TIP3    H265906   2.503   2.282  11.334  0.9430 -0.1729  0.5982
14831TIP3   OH265907   3.195   4.658   2.544 -0.0691  0.5185 -0.2305
14831TIP3    H165908   3.188   4.751   2.525 -1.5526  0.5757  0.4329
14831TIP3    H265909   3.163   4.615   2.464  0.3836  0.5763 -0.4456
14832TIP3   OH265910   0.518   6.641  14.333  0.6497 -0.1975  0.3460
14832TIP3    H165911   0.434   6.659  14.292  1.1209 -0.7864 -0.9267
14832TIP3    H265912   0.501   6.567  14.392  0.5611 -1.3542 -1.0609
14833TIP3   OH265913   2.214   3.050  17.207  0.1922  0.6671 -0.1304
14833TIP3    H165914   2.246   2.984  17.146  1.9207  0.7819  0.5866
14833TIP3    H265915   2.120   3.031  17.217  0.3543 -0.7345 -1.0630
14834TIP3   OH265916   5.609   3.646   2.369  0.0749 -0.5708 -0.2675
14834TIP3    H165917   5.640   3.649   2.279 -2.2221 -2.4417 -1.2298
14834TIP3    H265918   5.595   3.553   2.387 -1.5376 -0.0940  1.2498
14835TIP3   OH265919   5.589   5.952   5.731 -0.0513 -0.4503  0.2759
14835TIP3    H165920   5.595   5.911   5.817 -2.5790  0.2024  0.8266
14835TIP3    H265921   5.644   6.030   5.738 -0.7415 -0.0508  1.5516
14836TIP3   OH265922   5.876   3.287   0.809  0.4298  0.4216  0.2147
14836TIP3    H165923   5.914   3.219   0.753  1.4672 -0.0270  1.4282
14836TIP3    H265924   5.789   3.254   0.831  1.2534 -1.0175  1.5501
14837TIP3   OH265925   4.534   3.946   1.605 -0.6315  0.0938  0.3684
14837TIP3    H165926   4.483   4.000   1.544 -0.8950  0.0970  0.5865
14837TIP3    H265927   4.625   3.970   1.590 -0.3760 -1.9990 -2.1314
14838TIP3   OH265928   6.265   0.304   5.269 -0.1270  0.2412 -0.1225
14838TIP3    H165929   6.322   0.372   5.233  1.4594 -0.4221  1.0217
14838TIP3    H265930   6.274   0.313   5.364  1.0352 -2.2532  0.0674
14839TIP3   OH265931   3.608   2.385   3.285  0.6220 -0.3981 -0.1160
14839TIP3    H165932   3.667   2.402   3.359  1.3963 -0.8974 -0.6043
14839TIP3    H265933   3.603   2.290   3.280 -1.1987 -0.3844  0.6519
14840TIP3   OH265934   3.700   5.649  14.029  0.4244  0.1867  0.1594
14840TIP3    H165935   3.747   5.624  13.950  0.0461  2.1052 -0.7198
14840TIP3    H265936   3.762   5.704  14.078  0.2384  0.0021  0.6126
14841TIP3   OH265937   5.038   2.400  15.302  0.1835 -0.1725 -0.3900
14841TIP3    H165938   5.130   2.426  15.315 -0.1920  1.2892 -0.5515
14841TIP3    H265939   4.999   2.409  15.389  0.4969 -2.1810  0.0015
14842TIP3   OH265940   5.484   5.048  12.087 -0.0306  0.1928 -0.1035
14842TIP3    H165941   5.524   5.102  12.019 -0.9588 -0.8935 -1.5859
14842TIP3    H265942   5.415   5.103  12.125 -1.4082 -0.1050 -2.0487
14843TIP3   OH265943   0.470   1.056  15.966  0.2159 -0.1445 -0.2717
14843TIP3    H165944   0.453   0.969  16.002 -0.3759 -0.2393 -0.7545
14843TIP3    H265945   0.435   1.052  15.877 -0.5156  0.8123 -0.0508
14844TIP3   OH265946   1.418   0.702  11.801 -0.2339 -0.3077 -0.0033
14844TIP3    H165947   1.484   0.765  11.832 -1.2428  0.4236  0.7304
14844TIP3    H265948   1.449   0.677  11.714  0.8833  0.2042  0.2191
14845TIP3   OH265949   0.139   4.379   5.633 -0.3310  0.2130  0.2955
14845TIP3    H165950   0.129   4.472   5.652 -0.7995  0.1488  0.3884
14845TIP3    H265951   0.067   4.337   5.680  1.2287 -0.4775  2.2177
14846TIP3   OH265952   2.406   3.772   3.869  0.6293  0.6972 -0.6662
14846TIP3    H165953   2.377   3.848   3.819 -1.3874  1.7707  1.9172
14846TIP3    H265954   2.481   3.802   3.919 -1.9972  2.2459  2.7904
14847TIP3   OH265955   3.568   1.536  16.032  0.6826  0.2172  0.2376
14847TIP3    H165956   3.631   1.537  15.960 -1.1236  0.1725 -1.4272
14847TIP3    H265957   3.593   1.611  16.087  2.1798  0.1778 -0.3523
14848TIP3   OH265958   5.702   6.667   0.649  0.1280  0.5326  0.1487
14848TIP3    H165959   5.642   6.676   0.574 -0.6527  2.5689  0.9459
14848TIP3    H265960   5.785   6.704   0.617  0.4289 -0.4956 -0.3250
14849TIP3   OH265961   1.343   1.540   0.465  0.5207  0.0498  0.0604
14849TIP3    H165962   1.431   1.508   0.485  1.1753  0.6834 -1.6437
14849TIP3    H265963   1.294   1.462   0.440  0.3754 -0.4013  1.6507
14850TIP3   OH265964   1.405   6.152  11.465 -0.6849 -0.2059  0.3528
14850TIP3    H165965   1.345   6.159  11.390 -2.6982 -0.4476  1.8393
14850TIP3    H265966   1.432   6.242  11.483  2.5452 -0.3895 -2.6108
14851TIP3   OH265967   4.152   4.351  11.741  0.4389  0.3308 -0.2844
14851TIP3    H165968   4.223   4.384  11.687  0.3464 -1.2502 -1.4315
14851TIP3    H265969   4.155   4.256  11.731  1.7483 -0.3216  4.1757
14852TIP3   OH265970   2.637   5.024  13.051 -0.4399 -0.0923  0.2866
14852TIP3    H165971   2.673   5.107  13.082 -1.4335 -0.2417  1.9757
14852TIP3    H265972   2.582   5.048  12.977  0.7639  0.4893 -0.4550
14853TIP3   OH265973   2.181   3.027  12.240 -0.5974  0.2377 -0.8902
14853TIP3    H165974   2.138   2.991  12.318  1.3208 -0.3810 -0.0475
14853TIP3    H265975   2.137   3.110  12.224 -1.8319 -0.1908  0.1188
14854TIP3   OH265976   5.723   0.092  10.845 -0.0164  0.0290 -0.3747
14854TIP3    H165977   5.731   0.046  10.762 -0.1892 -1.6866  0.5038
14854TIP3    H265978   5.645   0.054  10.886  1.3473 -0.8831  1.5528
14855TIP3   OH265979   3.153   5.493   6.083  0.6184  0.2409 -0.3147
14855TIP3    H165980   3.225   5.482   6.144  0.7411 -1.7317 -0.7488
14855TIP3    H265981   3.076   5.463   6.131  0.3696  0.6992 -0.4240
14856TIP3   OH265982   1.190   4.377  12.869 -0.1264 -0.1796  0.0971
14856TIP3    H165983   1.158   4.302  12.818  0.7996 -0.1733 -0.5298
14856TIP3    H265984   1.219   4.440  12.803  2.6406 -0.8293  0.5399
14857TIP3   OH265985   1.346   6.377   4.419  0.1384 -0.2302  0.4377
14857TIP3    H165986   1.329   6.470   4.411  0.1426 -0.2888 -0.3260
14857TIP3    H265987   1.259   6.338   4.433  0.1621 -0.0959  0.9772
14858TIP3   OH265988   3.078   1.611   5.431 -0.1505 -0.0878  0.5335
14858TIP3    H165989   3.151   1.553   5.452 -0.6601 -0.6764  0.7203
14858TIP3    H265990   3.094   1.690   5.483 -1.1258 -1.3092  2.8362
14859TIP3   OH265991   5.114   2.787   0.561 -0.1999 -1.4299  0.2733
14859TIP3    H165992   5.021   2.765   0.554 -0.5067 -0.1534 -0.0435
14859TIP3    H265993   5.160   2.705   0.543 -1.2609 -1.9524 -0.1521
14860TIP3   OH265994   6.594   3.810  14.525  0.1774  0.0394 -0.1620
14860TIP3    H165995   6.650   3.880  14.492 -1.3954  0.7733 -1.4254
14860TIP3    H265996   6.526   3.855  14.576 -0.5930 -0.5809 -0.6093
14861TIP3   OH265997   1.009   3.593   2.489  0.1515  0.6450 -0.5808
14861TIP3    H165998   0.919   3.571   2.513  0.5056  0.1114  0.3069
14861TIP3    H265999   1.062   3.556   2.559  0.9621  2.1743 -0.3472
14862TIP3   OH266000   3.692   5.895  14.601  0.1462  0.2629 -0.6434
14862TIP3    H166001   3.710   5.947  14.680  1.0378 -1.3725  0.2866
14862TIP3    H266002   3.750   5.933  14.535  0.9114  0.3913  0.0698
14863TIP3   OH266003   2.077   6.461   0.054  0.3162  0.7813 -0.2736
14863TIP3    H166004   2.110   6.440   0.141  1.8240 -1.1953 -1.2361
14863TIP3    H266005   1.992   6.417   0.049  0.1852  0.9739  0.2235
14864TIP3   OH266006   2.820   3.216  11.242  0.0248 -0.0213  0.1438
14864TIP3    H166007   2.805   3.122  11.230 -0.4591  0.0263  0.3179
14864TIP3    H266008   2.817   3.252  11.153  1.1475 -0.2871 -0.0187
14865TIP3   OH266009   0.198   6.671  13.291  0.1809 -0.5048 -0.2776
14865TIP3    H166010   0.181   6.743  13.230  0.6533  0.1457  0.3464
14865TIP3    H266011   0.272   6.624  13.253 -1.4191 -1.9657 -1.7914
14866TIP3   OH266012   1.458   5.789  13.388 -0.1646  0.1023 -0.3474
14866TIP3    H166013   1.514   5.744  13.325 -1.6234  1.2241 -2.5462
14866TIP3    H266014   1.390   5.830  13.335 -1.5624  0.9822  1.9922
14867TIP3   OH266015   4.287   1.126   1.400  0.2546 -0.2568 -0.0640
14867TIP3    H166016   4.343   1.106   1.475 -0.6230 -1.8082  0.2075
14867TIP3    H266017   4.337   1.191   1.350  0.7044  1.0930  2.0170
14868TIP3   OH266018   6.513   0.909   3.616 -0.4141  0.4951 -0.3894
14868TIP3    H166019   6.512   0.880   3.525 -3.0815 -0.7022 -0.0572
14868TIP3    H266020   6.454   0.850   3.662  0.9843  0.9280  2.2166
14869TIP3   OH266021   5.915   2.332  12.442  0.5082  0.7930  0.4578
14869TIP3    H166022   5.891   2.422  12.423  0.2176  0.4552 -0.8678
14869TIP3    H266023   5.963   2.303  12.365  1.2363  0.0370  1.1760
14870TIP3   OH266024   4.518   0.246  14.194  0.2820  0.0871 -0.0121
14870TIP3    H166025   4.476   0.224  14.277  0.1779  0.1573 -0.0463
14870TIP3    H266026   4.476   0.327  14.166  1.1565  0.7193  0.4627
14871TIP3   OH266027   5.188   5.532  13.360  0.1592  0.3703  0.4885
14871TIP3    H166028   5.136   5.452  13.359  2.1144 -0.9817 -0.7356
14871TIP3    H266029   5.197   5.554  13.453 -2.3137  0.5695  0.7621
14872TIP3   OH266030   0.730   6.709  17.157 -0.0513 -0.2894 -0.6376
14872TIP3    H166031   0.721   6.619  17.190 -0.2808 -0.0810 -0.1211
14872TIP3    H266032   0.764   6.698  17.068  0.1058 -0.8810 -0.5132
14873TIP3   OH266033   5.247   6.567   3.934 -0.0780  0.1628 -0.0419
14873TIP3    H166034   5.175   6.619   3.897  0.4363  0.9268 -0.0104
14873TIP3    H266035   5.323   6.592   3.881  0.4192  0.3331  0.7314
14874TIP3   OH266036   6.006   6.493  10.605  0.4704  0.4343 -0.3519
14874TIP3    H166037   5.970   6.499  10.517 -0.1663  0.8170 -0.0758
14874TIP3    H266038   6.047   6.579  10.620  0.3115  0.4772 -0.1625
14875TIP3   OH266039   2.560   0.285  11.659  0.2792 -0.3439  0.1761
14875TIP3    H166040   2.643   0.239  11.676  1.5259  2.3979  2.2666
14875TIP3    H266041   2.497   0.215  11.644  2.8259 -2.5788 -0.9053
14876TIP3   OH266042   1.552   6.422  14.133  0.0102  0.1548 -0.0031
14876TIP3    H166043   1.569   6.512  14.107 -1.3459  0.1987 -0.8206
14876TIP3    H266044   1.488   6.429  14.204  0.6373 -0.1431  0.6097
14877TIP3   OH266045   5.356   5.092   2.807  0.0945 -0.4826  0.0568
14877TIP3    H166046   5.305   5.015   2.832  0.6548 -0.7464  0.4077
14877TIP3    H266047   5.447   5.068   2.827  0.4608 -0.3316 -1.2921
14878TIP3   OH266048   4.164   0.511   1.719  0.8402 -0.6556 -0.0487
14878TIP3    H166049   4.178   0.513   1.624 -1.3835 -1.7720 -0.4531
14878TIP3    H266050   4.095   0.575   1.734 -0.1414 -1.8071  0.5149
14879TIP3   OH266051   2.746   4.709  11.505  0.2013 -0.8579  0.2097
14879TIP3    H166052   2.667   4.735  11.553 -0.3183  0.0923 -1.0926
14879TIP3    H266053   2.714   4.657  11.432  0.7080 -0.0888 -0.5892
14880TIP3   OH266054   6.597   3.422  11.987 -0.2282  0.0464 -0.3092
14880TIP3    H166055   6.674   3.390  12.034  0.5882 -0.1651 -1.7327
14880TIP3    H266056   6.576   3.505  12.029  0.4440 -0.1513  0.4445
14881TIP3   OH266057   0.260   3.537  16.898 -0.1140  0.1420  0.2180
14881TIP3    H166058   0.302   3.502  16.977  0.2877 -1.6140 -0.7160
14881TIP3    H266059   0.253   3.631  16.914  0.4042 -0.0982  2.1265
14882TIP3   OH266060   6.565   5.076   0.642 -0.0692 -0.2300  0.7744
14882TIP3    H166061   6.532   5.136   0.576  0.2554 -1.4040 -0.5086
14882TIP3    H266062   6.566   4.991   0.599  0.5020 -0.9769  2.1841
14883TIP3   OH266063   6.176   3.522  16.556 -0.2369  0.1102 -0.2128
14883TIP3    H166064   6.188   3.572  16.476  0.6208  0.7750  0.3091
14883TIP3    H266065   6.263   3.485  16.574  0.2914  2.1181  1.7895
14884TIP3   OH266066   1.791   0.453   4.866 -0.1905  0.2483 -0.6563
14884TIP3    H166067   1.767   0.431   4.776 -0.6862 -0.2562 -0.4110
14884TIP3    H266068   1.741   0.531   4.886 -0.9433 -0.2740 -0.4566
14885TIP3   OH266069   5.645   4.850   4.806 -0.9290 -0.0471 -0.2855
14885TIP3    H166070   5.640   4.781   4.873 -0.6496 -0.9519 -1.1689
14885TIP3    H266071   5.562   4.842   4.759 -0.3159 -0.7352 -1.2827
14886TIP3   OH266072   2.878   0.238  15.451  0.1993 -0.0262 -0.3133
14886TIP3    H166073   2.836   0.300  15.510  2.3531  1.3693 -0.1173
14886TIP3    H266074   2.888   0.287  15.369  1.5957 -0.2083 -0.2754
14887TIP3   OH266075   0.957   3.802   4.588 -0.4232  0.4123  0.8833
14887TIP3    H166076   1.021   3.793   4.659  0.0446  1.0942  0.5564
14887TIP3    H266077   0.872   3.806   4.633 -0.5557 -2.9325  1.2457
14888TIP3   OH266078   5.601   0.883   6.097 -0.1236  0.3768 -0.0526
14888TIP3    H166079   5.677   0.905   6.043  0.3558  0.6102  0.6995
14888TIP3    H266080   5.605   0.788   6.107  1.1478  0.5427  1.4942
14889TIP3   OH266081   2.697   5.205   4.903 -0.1912  0.3129  0.9190
14889TIP3    H166082   2.765   5.141   4.879 -2.2961 -1.5668 -0.4179
14889TIP3    H266083   2.654   5.227   4.820 -1.3536  1.3172  1.7426
14890TIP3   OH266084   3.419   1.492   5.955  0.1731 -0.3824  0.1191
14890TIP3    H166085   3.336   1.466   5.994  1.4648 -1.9412  2.0179
14890TIP3    H266086   3.424   1.586   5.969 -1.3233 -0.2349 -0.1764
14891TIP3   OH266087   0.232   1.177  14.436 -0.4640 -0.4393  0.8968
14891TIP3    H166088   0.161   1.199  14.496  0.3134  1.2472  1.2649
14891TIP3    H266089   0.195   1.189  14.349 -0.5994  0.6453  1.0876
14892TIP3   OH266090   3.217   5.395   1.682 -0.0760 -0.3168 -0.2645
14892TIP3    H166091   3.291   5.405   1.622 -0.5299  1.2185 -0.6397
14892TIP3    H266092   3.244   5.441   1.762  0.4553 -2.2010  0.6808
14893TIP3   OH266093   1.357   3.850  11.726 -0.1986  0.2605  0.0880
14893TIP3    H166094   1.452   3.846  11.737 -0.0250  1.4284 -0.7881
14893TIP3    H266095   1.323   3.833  11.814  0.7722 -1.1177  0.2263
14894TIP3   OH266096   1.825   5.271  13.628  0.0061 -0.2761 -0.2122
14894TIP3    H166097   1.747   5.299  13.581  0.1419 -0.0778 -0.3218
14894TIP3    H266098   1.792   5.219  13.701 -0.2323 -0.1114 -0.2018
14895TIP3   OH266099   4.461   2.623   6.524 -0.2911 -0.1712 -0.6776
14895TIP3    H166100   4.409   2.607   6.603 -0.5042  1.9542 -0.3215
14895TIP3    H266101   4.477   2.718   6.524  2.7561 -0.5747 -1.3211
14896TIP3   OH266102   2.504   6.640   3.448  0.4076  0.2787 -0.4906
14896TIP3    H166103   2.414   6.609   3.452  1.1209 -1.9306 -0.3615
14896TIP3    H266104   2.544   6.610   3.530  0.5020  4.0735  1.0452
14897TIP3   OH266105   3.709   6.097   3.772 -0.1875 -1.1408  0.2972
14897TIP3    H166106   3.694   6.111   3.865  0.0484 -0.0847  0.1915
14897TIP3    H266107   3.623   6.080   3.735 -0.5095 -0.0102  0.4741
14898TIP3   OH266108   4.296   4.782  14.718  0.1023  0.1266  0.0724
14898TIP3    H166109   4.201   4.790  14.726  0.1673  0.0333  0.9493
14898TIP3    H266110   4.326   4.871  14.702 -0.3463 -0.1311 -2.8423
14899TIP3   OH266111   2.477   3.728  11.984  0.0208 -0.1175 -0.0201
14899TIP3    H166112   2.461   3.636  12.005  0.3568 -0.0793  0.4411
14899TIP3    H266113   2.569   3.731  11.957 -0.2188 -0.0485 -0.8518
14900TIP3   OH266114   4.286   6.528   4.791  0.2561  0.1864 -0.2159
14900TIP3    H166115   4.290   6.619   4.762 -0.0143  0.1848 -0.2579
14900TIP3    H266116   4.262   6.478   4.713 -0.3697  0.1701 -0.0168
14901TIP3   OH266117   2.641   1.609   1.820  0.0933  0.8033  0.3951
14901TIP3    H166118   2.554   1.646   1.803  1.0421  2.2880 -1.6966
14901TIP3    H266119   2.643   1.529   1.766  0.0117  0.7415  0.4831
14902TIP3   OH266120   0.082   3.350   0.440  0.2698  0.4426  0.0640
14902TIP3    H166121   0.009   3.293   0.416  0.8791  0.0331 -0.9205
14902TIP3    H266122   0.062   3.380   0.528 -0.2390 -1.0437  0.4949
14903TIP3   OH266123   1.785   3.247  16.580  0.0837 -0.4116  0.1741
14903TIP3    H166124   1.738   3.303  16.641  2.2477  0.1078  1.4322
14903TIP3    H266125   1.796   3.164  16.627  0.0940 -0.6758 -0.2834
14904TIP3   OH266126   5.729   1.159   4.548  0.5416 -0.0013 -0.5337
14904TIP3    H166127   5.742   1.188   4.638  0.5306  1.2215 -0.9123
14904TIP3    H266128   5.683   1.075   4.556 -0.7183  0.7554  0.5682
14905TIP3   OH266129   3.424   3.859   0.870  0.6196  0.3027  0.2430
14905TIP3    H166130   3.470   3.891   0.948 -3.2227  1.3321  2.3211
14905TIP3    H266131   3.396   3.771   0.893  2.2552 -0.7473 -1.4339
14906TIP3   OH266132   4.304   4.818  15.702  0.3120 -0.2583 -0.2769
14906TIP3    H166133   4.364   4.746  15.721 -0.4182 -1.1346 -1.1783
14906TIP3    H266134   4.249   4.785  15.630 -2.5399 -0.2193  1.7383
14907TIP3   OH266135   4.127   6.625  15.431  0.2634 -0.8266 -0.1797
14907TIP3    H166136   4.160   6.549  15.478  0.7370 -0.9537 -0.7130
14907TIP3    H266137   4.189   6.638  15.360 -1.3341 -1.6901 -1.8253
14908TIP3   OH266138   6.629   4.603  14.584  0.0815  0.0123 -0.6563
14908TIP3    H166139   6.615   4.622  14.677 -0.0780 -1.7977 -0.2733
14908TIP3    H266140   6.690   4.530  14.583 -0.0273 -0.0890 -1.9913
14909TIP3   OH266141   1.602   3.411  12.517 -0.4408 -0.4925 -0.2365
14909TIP3    H166142   1.540   3.401  12.445  1.3964  2.9322 -2.5751
14909TIP3    H266143   1.561   3.474  12.576 -0.7366 -1.1721  0.3113
14910TIP3   OH266144   4.455   6.365  14.485  0.4354 -0.1243  0.1340
14910TIP3    H166145   4.498   6.279  14.486 -1.1790 -1.1028 -2.3319
14910TIP3    H266146   4.362   6.344  14.479  0.0096  1.7952 -0.6521
14911TIP3   OH266147   3.409   4.352  12.307  0.0615  0.2401  0.3084
14911TIP3    H166148   3.429   4.292  12.236 -2.7733 -0.9147  0.3347
14911TIP3    H266149   3.479   4.418  12.305  2.0136 -1.7512 -1.1928
14912TIP3   OH266150   0.460   3.596   5.674 -0.4825 -0.2011 -0.2184
14912TIP3    H166151   0.447   3.501   5.683  1.2125 -0.4625 -0.1826
14912TIP3    H266152   0.379   3.627   5.633 -3.4373 -0.8100  4.4474
14913TIP3   OH266153   0.414   2.499  10.738  0.0948  0.0760 -0.5496
14913TIP3    H166154   0.459   2.492  10.653 -0.3578 -0.7767 -0.7283
14913TIP3    H266155   0.441   2.585  10.772  2.4175 -0.6852 -0.3166
14914TIP3   OH266156   3.294   6.404   4.421  0.4894  0.1962  0.0001
14914TIP3    H166157   3.282   6.313   4.393  0.3715 -0.6353  2.4504
14914TIP3    H266158   3.214   6.423   4.471  0.4122  1.7457 -0.6802
14915TIP3   OH266159   6.030   5.712   1.336  0.4996  0.1683 -0.3812
14915TIP3    H166160   6.099   5.677   1.279 -0.0678 -2.1722  0.2736
14915TIP3    H266161   5.950   5.703   1.284  0.3591  0.5985 -0.2371
14916TIP3   OH266162   4.873   0.839   0.635 -0.3337 -0.1151  0.0162
14916TIP3    H166163   4.817   0.811   0.563 -1.2510  0.0698  0.6395
14916TIP3    H266164   4.825   0.910   0.677  0.1616 -0.2499  0.8434
14917TIP3   OH266165   4.583   0.218  11.874 -0.4123  0.5507  0.0781
14917TIP3    H166166   4.495   0.185  11.852 -0.7537  0.4902  1.4281
14917TIP3    H266167   4.584   0.307  11.839 -0.0518 -0.2904 -2.2159
14918TIP3   OH266168   6.749   2.650   3.875  0.5901  0.6600 -0.4170
14918TIP3    H166169   6.833   2.609   3.893  0.2011 -0.8185 -1.7377
14918TIP3    H266170   6.685   2.593   3.919  0.1622  0.7291 -0.9403
14919TIP3   OH266171   5.122   4.453   0.653  0.2475 -0.3648  0.4873
14919TIP3    H166172   5.064   4.503   0.711  0.4298 -0.5030  0.7941
14919TIP3    H266173   5.166   4.520   0.600 -1.2129 -0.3368 -0.7381
14920TIP3   OH266174   4.708   5.595  11.084  0.5589 -0.1798  0.1313
14920TIP3    H166175   4.632   5.612  11.027  1.3604 -1.3744 -1.3655
14920TIP3    H266176   4.772   5.662  11.058  0.9312 -0.7364 -0.4157
14921TIP3   OH266177   1.855   2.919  15.052 -0.1728  0.0633 -0.0885
14921TIP3    H166178   1.849   2.828  15.080 -1.1197  0.5905  1.6110
14921TIP3    H266179   1.764   2.948  15.046  0.1254  1.3516  1.0935
14922TIP3   OH266180   4.677   0.103   2.051  0.5971  0.1570 -0.3601
14922TIP3    H166181   4.602   0.163   2.051  1.0169  0.6906  0.0192
14922TIP3    H266182   4.753   0.160   2.047  1.0244 -0.3189  0.5621
14923TIP3   OH266183   4.745   4.783  13.171  0.0923 -0.6508 -0.6758
14923TIP3    H166184   4.814   4.762  13.109 -1.4268 -1.3768 -2.1911
14923TIP3    H266185   4.751   4.878  13.182  1.3339 -0.7049 -0.7322
14924TIP3   OH266186   0.088   4.637   5.719 -0.2159 -0.5222 -0.4106
14924TIP3    H166187   0.145   4.709   5.746  0.4276 -1.5740  1.1821
14924TIP3    H266188  -0.001   4.670   5.733  0.0864 -0.3613  1.3275
14925TIP3   OH266189   1.206   2.035   1.988 -0.4006 -0.2018 -0.5866
14925TIP3    H166190   1.139   1.992   2.041  0.7820 -1.7800 -0.3095
14925TIP3    H266191   1.237   1.967   1.928  1.0245  0.4600 -0.6382
14926TIP3   OH266192   0.624   3.980  17.103  0.3466 -0.0438  0.0412
14926TIP3    H166193   0.566   3.947  17.172  1.3288 -0.0482  0.8736
14926TIP3    H266194   0.648   3.902  17.053  1.2484 -0.3612  0.9334
14927TIP3   OH266195   1.584   4.925   4.668 -0.5252  0.3553  0.6560
14927TIP3    H166196   1.667   4.911   4.623 -0.8768  0.2716  0.0333
14927TIP3    H266197   1.546   4.837   4.676 -2.2859  0.6888 -2.3998
14928TIP3   OH266198   4.706   6.737   1.833  0.0133  0.4326 -0.4656
14928TIP3    H166199   4.683   6.817   1.880  0.7718  1.6307 -2.0450
14928TIP3    H266200   4.621   6.698   1.809 -0.3723  0.1396  1.2476
14929TIP3   OH266201   5.147   3.185   4.867  0.3706 -0.1347 -0.1937
14929TIP3    H166202   5.234   3.203   4.830  1.2199  0.8441  2.1063
14929TIP3    H266203   5.101   3.269   4.862  0.1984 -0.2033  0.2334
14930TIP3   OH266204   3.894   1.554  10.434  0.2757 -0.1720  0.5882
14930TIP3    H166205   3.806   1.514  10.430  0.0883  0.0501  2.1372
14930TIP3    H266206   3.893   1.619  10.364 -0.2760 -1.1720 -0.3703
14931TIP3   OH266207   1.492   1.704   2.174  0.0320  0.6760  0.0538
14931TIP3    H166208   1.438   1.663   2.106  0.5620 -0.5104  0.3344
14931TIP3    H266209   1.494   1.797   2.149  1.4720  0.0674 -2.4362
14932TIP3   OH266210   1.158   1.782   2.277  0.1742  0.3194  0.3030
14932TIP3    H166211   1.156   1.796   2.372 -0.9604 -0.9338  0.5032
14932TIP3    H266212   1.222   1.844   2.245 -0.3057  1.6405  1.7563
14933TIP3   OH266213   2.734   6.528   4.297 -0.1002 -0.7040 -0.3867
14933TIP3    H166214   2.806   6.587   4.317 -1.2909 -0.0908  2.6428
14933TIP3    H266215   2.693   6.565   4.219  1.3213  0.3816 -0.6459
14934TIP3   OH266216   6.699   4.048   1.883  0.2443  0.1837  0.0020
14934TIP3    H166217   6.679   4.122   1.940 -1.6812  0.5018 -0.9698
14934TIP3    H266218   6.727   4.088   1.800 -0.0113 -0.1834 -0.2671
14935TIP3   OH266219   1.455   3.088   2.700  0.0819 -0.0197 -0.9164
14935TIP3    H166220   1.409   3.126   2.775  2.3336 -0.5717  0.8550
14935TIP3    H266221   1.545   3.119   2.709  1.0198 -2.2743 -1.8318
14936TIP3   OH266222   1.435   2.386   0.230 -0.5786 -0.1878 -0.9566
14936TIP3    H166223   1.361   2.442   0.253  0.7662  1.4926 -0.5467
14936TIP3    H266224   1.504   2.409   0.292  0.1722 -2.0715 -1.0036
14937TIP3   OH266225   0.053   6.383  13.027 -0.4160 -0.1200 -0.5029
14937TIP3    H166226   0.030   6.402  13.118  0.7450  1.5626 -0.5181
14937TIP3    H266227   0.146   6.406  13.021 -0.4131 -0.4315 -2.0632
14938TIP3   OH266228   3.363   3.573   3.613 -0.1846  0.2336 -0.0746
14938TIP3    H166229   3.419   3.646   3.638 -2.2287  1.1119  2.3896
14938TIP3    H266230   3.297   3.611   3.555  0.3784 -0.3018 -1.0935
14939TIP3   OH266231   0.980   3.274   6.323  0.9253  0.0495  0.0069
14939TIP3    H166232   0.969   3.185   6.290  2.0970 -0.0205 -0.2221
14939TIP3    H266233   0.959   3.267   6.416 -2.6317  0.2945 -0.6297
14940TIP3   OH266234   0.447   4.019   2.294 -0.3540  0.0162  0.6686
14940TIP3    H166235   0.489   3.962   2.230  0.2251  1.1270  0.0150
14940TIP3    H266236   0.516   4.037   2.359  0.4998  2.3606 -0.7458
14941TIP3   OH266237   4.842   0.459  11.382  0.3967  0.2174  0.4476
14941TIP3    H166238   4.901   0.459  11.306  1.6631 -1.8465  1.3376
14941TIP3    H266239   4.832   0.551  11.405  0.8859  0.8087 -1.5426
14942TIP3   OH266240   4.373   5.269   3.808 -0.3089 -0.0233  0.0810
14942TIP3    H166241   4.336   5.180   3.806 -2.0155  0.4568  3.1855
14942TIP3    H266242   4.435   5.267   3.881  1.3692  0.8191 -1.2502
14943TIP3   OH266243   2.565   5.316  16.392 -0.3850 -0.3405 -0.0413
14943TIP3    H166244   2.603   5.390  16.439 -0.3999 -2.3033  3.3079
14943TIP3    H266245   2.640   5.264  16.363 -0.4321 -0.0315 -0.7648
14944TIP3   OH266246   4.376   5.029  15.848  0.0386 -0.1378 -0.2268
14944TIP3    H166247   4.343   4.972  15.779 -0.4319  0.0837 -0.1885
14944TIP3    H266248   4.299   5.079  15.877  0.1585 -0.4897  0.7066
14945TIP3   OH266249   4.539   1.302  16.878  0.3437 -0.0707  0.1087
14945TIP3    H166250   4.610   1.258  16.831  0.8219 -0.1360  0.8656
14945TIP3    H266251   4.581   1.378  16.919  0.2377 -0.6753  1.4226
14946TIP3   OH266252   0.145   3.669  16.125  0.2902  0.4351  0.6356
14946TIP3    H166253   0.132   3.709  16.039  3.0820  1.6178  0.6654
14946TIP3    H266254   0.112   3.734  16.187 -1.0388 -0.1090  0.5447
14947TIP3   OH266255   4.790   0.579   0.117 -0.3063 -0.1978  0.4479
14947TIP3    H166256   4.846   0.619   0.183  2.2920 -0.6514 -1.3361
14947TIP3    H266257   4.732   0.649   0.089  1.5401  1.2681  0.1238
14948TIP3   OH266258   1.273   0.325  13.977 -0.2460 -0.1052  0.0470
14948TIP3    H166259   1.226   0.324  13.894 -1.0159 -0.8520  0.4814
14948TIP3    H266260   1.352   0.376  13.959 -2.0021  2.7096 -0.2455
14949TIP3   OH266261   5.082   5.736   0.450 -0.1858  0.0664 -0.1985
14949TIP3    H166262   5.121   5.650   0.439 -0.0092  0.1100  0.0719
14949TIP3    H266263   5.140   5.796   0.404 -1.2290 -0.1639 -1.8986
14950TIP3   OH266264   2.012   0.493  15.204 -0.0951 -0.4924  0.2244
14950TIP3    H166265   2.087   0.435  15.192  1.0829  0.4983  2.3121
14950TIP3    H266266   1.983   0.477  15.294 -2.9867 -1.4420 -0.7571
14951TIP3   OH266267   2.413   4.870  12.305 -0.2344 -0.2269 -0.1864
14951TIP3    H166268   2.464   4.944  12.272 -2.2295  0.4821 -1.8549
14951TIP3    H266269   2.474   4.796  12.303  0.6117  0.4457 -2.6903
14952TIP3   OH266270   1.493   6.309  11.124 -0.3091  0.5924 -0.3212
14952TIP3    H166271   1.577   6.286  11.082  0.1237  0.2250  0.7133
14952TIP3    H266272   1.446   6.226  11.130  0.2956  0.3169  1.3149
14953TIP3   OH266273   3.667   3.777   2.905  0.2161  0.0427 -0.2348
14953TIP3    H166274   3.579   3.811   2.888 -0.2948 -0.0581  1.9149
14953TIP3    H266275   3.658   3.682   2.892  0.3798  0.1596 -1.3268
14954TIP3   OH266276   3.958   1.864  11.567 -0.0478  0.3607 -0.1446
14954TIP3    H166277   3.933   1.957  11.569  0.2669  0.4240  0.8473
14954TIP3    H266278   3.881   1.818  11.601 -0.2978  0.2251 -0.8676
14955TIP3   OH266279   6.484   2.991  14.422 -0.2251 -0.6331 -0.6900
14955TIP3    H166280   6.391   2.966  14.421 -0.3889 -0.0735 -0.2102
14955TIP3    H266281   6.486   3.073  14.472  0.5922 -0.8899 -0.2846
14956TIP3   OH266282   0.072   4.417  14.916 -0.1353  0.3312 -0.1573
14956TIP3    H166283   0.035   4.329  14.922 -0.7232  0.5998  0.2204
14956TIP3    H266284   0.034   4.454  14.837  0.6907 -0.0072 -0.7355
14957TIP3   OH266285   3.024   5.057  14.867  0.0310  0.1871  0.4091
14957TIP3    H166286   2.938   5.021  14.845  0.0337 -0.4137  1.3046
14957TIP3    H266287   3.027   5.141  14.822 -0.8522  0.0330  0.0247
14958TIP3   OH266288   3.109   4.960   4.608  0.2107 -0.3723  0.4696
14958TIP3    H166289   3.092   4.878   4.562  2.4916 -0.7863  0.2379
14958TIP3    H266290   3.115   5.026   4.539  2.3096 -0.7654  0.1913
14959TIP3   OH266291   0.826   1.302   3.494 -0.1981  0.4807  0.2352
14959TIP3    H166292   0.762   1.277   3.427  0.2897 -0.2224  0.0119
14959TIP3    H266293   0.825   1.397   3.495 -1.3824  0.4764  0.3654
14960TIP3   OH266294   3.456   5.077   1.731 -0.8150 -0.0873  0.0668
14960TIP3    H166295   3.473   5.133   1.807 -0.7055 -0.4971  0.3473
14960TIP3    H266296   3.422   5.136   1.665 -1.7315  0.1422  0.7221
14961TIP3   OH266297   5.235   2.982   5.961  0.0082  0.2137 -0.5385
14961TIP3    H166298   5.311   3.016   6.009  1.2340 -2.2041 -0.5990
14961TIP3    H266299   5.247   3.014   5.872  2.6210 -2.3144 -1.2561
14962TIP3   OH266300   5.010   0.539   2.603  0.0914 -0.6525 -0.2284
14962TIP3    H166301   4.921   0.574   2.592 -0.5694 -1.7876  1.0951
14962TIP3    H266302   5.054   0.603   2.660 -0.0974 -0.4187 -0.3444
14963TIP3   OH266303   6.771   5.241   3.673 -0.0226 -0.6239 -0.4071
14963TIP3    H166304   6.730   5.221   3.757 -0.4781 -0.0884 -0.4916
14963TIP3    H266305   6.710   5.302   3.631 -0.0117 -1.2330 -1.3143
14964TIP3   OH266306   3.444   5.576  15.086 -0.1003  0.0702 -0.1929
14964TIP3    H166307   3.516   5.594  15.146  0.3679  0.4539 -0.8544
14964TIP3    H266308   3.453   5.642  15.017 -2.0099  1.1432  0.5043
14965TIP3   OH266309   1.866   5.448  12.934  0.3141 -0.2063 -0.4350
14965TIP3    H166310   1.886   5.541  12.947 -1.5697 -0.1072  2.8185
14965TIP3    H266311   1.926   5.402  12.992 -0.0588 -0.8857 -0.5764
14966TIP3   OH266312   5.243   2.771   4.053  0.1491 -0.5669 -0.6538
14966TIP3    H166313   5.154   2.800   4.077  0.0916  0.0525 -1.5557
14966TIP3    H266314   5.236   2.747   3.961  1.1575  0.5600 -1.0498
14967TIP3   OH266315   0.017   2.349  17.243  0.8351  0.4907  0.2620
14967TIP3    H166316  -0.014   2.370  17.155  0.0016 -0.2616  0.3609
14967TIP3    H266317   0.057   2.262  17.235 -0.9435 -0.4458  0.9688
14968TIP3   OH266318   4.840   2.682   4.302  0.0951 -0.2331 -0.0418
14968TIP3    H166319   4.765   2.716   4.254 -2.1586 -2.4503  1.6504
14968TIP3    H266320   4.837   2.588   4.289  1.8760 -0.4937  1.0741
14969TIP3   OH266321   3.391   4.532   0.745  0.1913  0.0715  0.1927
14969TIP3    H166322   3.308   4.508   0.786  0.6584  1.1090  1.8157
14969TIP3    H266323   3.365   4.592   0.674 -0.8134 -3.4921 -2.7395
14970TIP3   OH266324   1.669   0.688  14.537 -1.1043  0.3086 -0.0032
14970TIP3    H166325   1.582   0.690  14.496 -1.9555  0.7032  1.7524
14970TIP3    H266326   1.660   0.627  14.610 -0.1359  0.9459  0.6678
14971TIP3   OH266327   6.437   6.476   3.356 -0.3045 -0.3526  0.6156
14971TIP3    H166328   6.479   6.419   3.421 -1.1640  0.7671  2.2500
14971TIP3    H266329   6.507   6.499   3.295  1.0628  0.0423  2.2288
14972TIP3   OH266330   2.258   1.173   4.792  0.1751  0.2681 -0.3560
14972TIP3    H166331   2.330   1.228   4.823  0.0603 -0.2451  0.9284
14972TIP3    H266332   2.278   1.156   4.700  3.0747 -1.8755  0.5242
14973TIP3   OH266333   5.767   5.180  13.944  0.3895 -0.5761  0.0895
14973TIP3    H166334   5.796   5.267  13.917  0.1142 -0.4778  0.1067
14973TIP3    H266335   5.687   5.195  13.994 -1.0145 -0.9846 -1.8893
14974TIP3   OH266336   3.992   6.091  12.743  0.0952 -0.0749  0.4186
14974TIP3    H166337   3.959   6.149  12.674 -0.4007 -0.7544  0.0636
14974TIP3    H266338   4.013   6.150  12.815 -1.7956  0.4378  0.6153
14975TIP3   OH266339   2.179   3.480   0.537  0.3730  0.3882  0.2321
14975TIP3    H166340   2.177   3.483   0.632  1.7074 -0.4383  0.3123
14975TIP3    H266341   2.272   3.470   0.515 -0.0372 -1.0813 -1.0755
14976TIP3   OH266342   0.762   3.106  17.136 -0.7086  0.3228 -0.3262
14976TIP3    H166343   0.808   3.025  17.114 -0.8927  0.8677 -3.0550
14976TIP3    H266344   0.669   3.083  17.128 -0.7659  0.7152 -0.7957
14977TIP3   OH266345   4.452   2.735  14.462  0.0364  0.2500  0.3714
14977TIP3    H166346   4.521   2.793  14.430  0.3199 -0.9826 -1.4140
14977TIP3    H266347   4.427   2.773  14.546  1.5316  1.8353  0.1840
14978TIP3   OH266348   5.468   2.657   4.221  0.2300 -0.3410 -0.0315
14978TIP3    H166349   5.473   2.570   4.181 -1.6319 -1.6738  2.3857
14978TIP3    H266350   5.402   2.703   4.169  2.6544  0.5185 -2.6178
14979TIP3   OH266351   4.336   2.479   5.957 -0.9268 -0.9258 -0.5075
14979TIP3    H166352   4.404   2.492   5.890 -1.7641 -1.9768 -1.6030
14979TIP3    H266353   4.356   2.393   5.994  0.3646  0.2302  1.6461
14980TIP3   OH266354   4.529   3.191   5.542 -0.4970  0.0207 -0.5424
14980TIP3    H166355   4.576   3.205   5.624 -1.3686  2.7575 -0.3957
14980TIP3    H266356   4.437   3.182   5.569 -0.8333  1.2958 -1.1981
14981TIP3   OH266357   4.677   5.605  14.434 -0.1782 -0.5503  0.1968
14981TIP3    H166358   4.731   5.609  14.513 -0.8061 -0.7858  0.6439
14981TIP3    H266359   4.726   5.547  14.374 -0.8977 -2.4796  1.3741
14982TIP3   OH266360   1.843   2.550   3.835  0.0969 -0.6609  0.0029
14982TIP3    H166361   1.799   2.465   3.831 -1.7982  0.2645  0.5487
14982TIP3    H266362   1.798   2.598   3.904  0.3434  1.2292 -1.0888
14983TIP3   OH266363   4.639   2.270   3.390  0.4091 -0.1492 -0.3994
14983TIP3    H166364   4.703   2.271   3.460 -0.8587 -0.4416  0.8150
14983TIP3    H266365   4.615   2.178   3.380 -1.8422  0.1760  1.1639
14984TIP3   OH266366   1.468   6.108  14.435 -0.1145 -0.0311  0.1441
14984TIP3    H166367   1.431   6.167  14.369 -0.8661 -0.3911  0.2426
14984TIP3    H266368   1.453   6.020  14.400 -2.6112 -0.3743  1.8094
14985TIP3   OH266369   3.368   4.814  12.029 -0.3113  0.3575  0.0436
14985TIP3    H166370   3.343   4.795  12.120 -0.8320 -0.7986 -0.3115
14985TIP3    H266371   3.464   4.809  12.029 -0.0002  3.7203  1.1890
14986TIP3   OH266372   5.755   0.054  12.338  0.1558  0.3554 -0.4006
14986TIP3    H166373   5.687   0.099  12.387  1.3923  0.6000  1.1581
14986TIP3    H266374   5.771  -0.027  12.386  0.0856 -0.3094 -1.4669
14987TIP3   OH266375   2.851   0.015  13.261  0.2422  0.1711  0.2688
14987TIP3    H166376   2.925  -0.041  13.234 -0.0551 -0.0912 -0.0094
14987TIP3    H266377   2.882   0.058  13.341  0.1245 -1.1376  1.0469
14988TIP3   OH266378   0.065   6.785   0.969  0.1329  0.4043 -0.5572
14988TIP3    H166379   0.026   6.741   0.893 -1.0252  0.0536  0.2221
14988TIP3    H266380  -0.004   6.841   1.003  1.1000  1.6430 -0.5851
14989TIP3   OH266381   6.409   4.795  15.534 -0.3005  0.5412 -0.2207
14989TIP3    H166382   6.320   4.764  15.550 -0.5444  1.4052  0.1630
14989TIP3    H266383   6.448   4.728  15.477 -1.7949  1.0814 -1.9510
14990TIP3   OH266384   1.370   0.511   6.033  0.5757 -0.3182  0.5274
14990TIP3    H166385   1.372   0.510   6.128 -0.7350 -0.7942  0.5781
14990TIP3    H266386   1.317   0.588   6.011 -0.5635 -1.1501  0.2603
14991TIP3   OH266387   4.107   1.617   3.508 -0.3327  0.3903  0.1664
14991TIP3    H166388   4.065   1.550   3.561 -1.1333  2.6097  2.5392
14991TIP3    H266389   4.171   1.657   3.567  0.2712  1.5937 -1.2385
14992TIP3   OH266390   6.026   1.249  15.865 -0.5515 -0.0211  0.4331
14992TIP3    H166391   5.950   1.217  15.816 -0.2814  1.0518 -0.7272
14992TIP3    H266392   6.073   1.169  15.890 -2.3642 -0.7527  1.7494
14993TIP3   OH266393   0.545   5.907  13.236  0.1310 -0.1249  0.0730
14993TIP3    H166394   0.539   5.814  13.216 -0.2842  0.4495 -2.9936
14993TIP3    H266395   0.458   5.942  13.220  0.8520  1.1569 -1.4250
14994TIP3   OH266396   3.839   0.122   0.309  0.1190  0.1535  0.5668
14994TIP3    H166397   3.835   0.132   0.214  0.1458 -0.9079  0.4506
14994TIP3    H266398   3.929   0.097   0.327  0.1885  0.6351  0.9053
14995TIP3   OH266399   2.645   2.785  13.505  0.0690 -0.0401 -0.2752
14995TIP3    H166400   2.678   2.701  13.474 -2.4457 -1.0000 -0.5524
14995TIP3    H266401   2.594   2.763  13.583 -0.2612  1.3181 -0.0881
14996TIP3   OH266402   4.723   4.024  15.113 -0.7675 -0.3087  0.1882
14996TIP3    H166403   4.659   4.041  15.045 -0.9003  1.8912  0.7922
14996TIP3    H266404   4.672   4.023  15.194 -0.2254  0.1727  0.5439
14997TIP3   OH266405   0.932   0.587   4.870  0.4324 -0.0266  0.5796
14997TIP3    H166406   0.934   0.496   4.839  0.4978  0.7017 -1.7609
14997TIP3    H266407   0.897   0.636   4.796  1.0669  1.9611  1.5401
14998TIP3   OH266408   5.746   1.689  10.848  0.0138 -0.4183  0.1498
14998TIP3    H166409   5.822   1.690  10.789  1.5735 -2.1411  1.9921
14998TIP3    H266410   5.781   1.720  10.932 -1.5329 -0.4886  0.8420
14999TIP3   OH266411   1.168   3.008   1.882 -0.3342 -0.2040  0.2975
14999TIP3    H166412   1.218   3.078   1.841  2.1769 -1.9241  0.1742
14999TIP3    H266413   1.077   3.026   1.859  0.5719  1.0347 -2.7598
15000TIP3   OH266414   6.567   4.684   3.590 -0.3885  0.3607 -0.0853
15000TIP3    H166415   6.566   4.610   3.529  0.3255 -0.1850  0.5368
15000TIP3    H266416   6.548   4.761   3.536 -0.7813 -0.2322 -0.8048
15001TIP3   OH266417   1.903   0.358  13.342  0.3640  0.8371 -0.2598
15001TIP3    H166418   1.833   0.337  13.281 -0.3253  1.2896  0.3505
15001TIP3    H266419   1.978   0.305  13.313 -0.3368  0.0642 -0.7007
15002TIP3   OH266420   1.503   0.958   3.888 -0.0426  0.3358  0.0855
15002TIP3    H166421   1.428   0.898   3.884  0.1027  0.2241 -1.5461
15002TIP3    H266422   1.500   1.005   3.805  2.0552 -0.1079 -0.2880
15003TIP3   OH266423   3.833   1.594   0.533 -0.2053  0.0631  0.2048
15003TIP3    H166424   3.756   1.625   0.582  0.4128  0.1553  1.1324
15003TIP3    H266425   3.907   1.619   0.587  0.4982  0.0547 -0.7308
15004TIP3   OH266426   0.084   6.287   1.930 -0.1533  0.0063 -0.4957
15004TIP3    H166427   0.178   6.302   1.942  0.3516 -2.2654 -1.1373
15004TIP3    H266428   0.055   6.360   1.876  1.5754  0.0015 -1.5031
15005TIP3   OH266429   5.754   5.949  11.747 -0.1353  0.1970  0.0404
15005TIP3    H166430   5.800   5.890  11.807 -1.2801 -1.0697 -0.2649
15005TIP3    H266431   5.782   5.922  11.660  0.5682  1.2058 -0.0614
15006TIP3   OH266432   1.774   1.535   1.701 -0.4720 -0.1701 -0.1451
15006TIP3    H166433   1.865   1.544   1.673 -0.8103  0.2023 -1.1919
15006TIP3    H266434   1.761   1.441   1.711  0.3258 -0.1755  1.1277
15007TIP3   OH266435   1.699   6.763   1.983  0.4599  0.3786 -0.1523
15007TIP3    H166436   1.724   6.779   1.892 -0.2707 -0.9531 -0.6076
15007TIP3    H266437   1.773   6.797   2.034  1.4743 -0.0310 -1.2994
15008TIP3   OH266438   1.113   1.572  12.667  0.7062 -0.2931  0.2220
15008TIP3    H166439   1.031   1.560  12.715  0.2557 -1.5668 -0.8183
15008TIP3    H266440   1.092   1.548  12.577  2.1578 -0.3752 -0.1185
15009TIP3   OH266441   5.483   2.639  15.200  0.2058 -0.2274 -0.6236
15009TIP3    H166442   5.575   2.612  15.195  0.8811  1.4527  1.2403
15009TIP3    H266443   5.476   2.709  15.135  0.3189 -0.1487 -0.5513
15010TIP3   OH266444   0.388   2.778  11.951 -0.3752 -0.2574  0.1166
15010TIP3    H166445   0.375   2.859  11.900 -2.5434 -0.4700  0.2382
15010TIP3    H266446   0.324   2.784  12.022 -0.8409 -2.2518 -0.0926
15011TIP3   OH266447   2.503   2.140  13.569 -0.3819  0.1273  0.5698
15011TIP3    H166448   2.526   2.161  13.660 -0.5749  1.8647  0.2580
15011TIP3    H266449   2.408   2.151  13.566 -0.3713  0.1061  0.1500
15012TIP3   OH266450   5.259   6.553   4.521  0.2938 -0.0012  0.4538
15012TIP3    H166451   5.271   6.602   4.602 -1.2071  0.2531  0.5542
15012TIP3    H266452   5.283   6.615   4.452  1.1914 -0.0897  0.6729
15013TIP3   OH266453   3.952   5.795   2.885 -0.1795 -0.5588 -0.2402
15013TIP3    H166454   3.996   5.846   2.953  0.8556 -0.5054 -0.9282
15013TIP3    H266455   3.888   5.855   2.847  1.1474  0.3273 -1.1669
15014TIP3   OH266456   3.228   6.083   2.313  0.1281  0.1402  0.0254
15014TIP3    H166457   3.254   5.996   2.343 -0.5158  0.4852  1.6972
15014TIP3    H266458   3.204   6.130   2.393 -0.4491  1.5498 -0.9318
15015TIP3   OH266459   1.882   6.386  11.885 -0.5563 -0.1110  0.2569
15015TIP3    H166460   1.806   6.442  11.866 -1.4742 -1.5800 -0.6841
15015TIP3    H266461   1.895   6.337  11.804 -0.0445 -1.5144  1.1577
15016TIP3   OH266462   0.211   2.341   3.328  0.5510 -0.2425 -0.0510
15016TIP3    H166463   0.130   2.293   3.316  0.5677  0.0170 -1.3624
15016TIP3    H266464   0.184   2.433   3.330  0.8696 -0.1051 -1.3048
15017TIP3   OH266465   6.544   5.231  15.354  0.0031 -0.1403  0.2315
15017TIP3    H166466   6.547   5.305  15.294  1.7830  0.4598  0.9873
15017TIP3    H266467   6.464   5.245  15.404 -0.8003  0.0784 -1.0666
15018TIP3   OH266468   4.025   5.543   3.261 -0.8315 -0.2910  0.3307
15018TIP3    H166469   3.942   5.590   3.273  0.1287  1.6435 -0.1333
15018TIP3    H266470   4.076   5.566   3.339 -0.1575 -0.1417 -0.1479
15019TIP3   OH266471   3.509   5.770   0.776 -0.4184 -0.2970  0.5380
15019TIP3    H166472   3.537   5.681   0.754  0.7216  0.3248 -0.7042
15019TIP3    H266473   3.443   5.791   0.711  1.2324  0.6806 -0.9160
15020TIP3   OH266474   4.339   0.089   4.949 -0.0354 -0.1465  0.4095
15020TIP3    H166475   4.354   0.031   4.875 -1.3237  1.1036 -0.8964
15020TIP3    H266476   4.255   0.060   4.985 -0.9123  1.1293 -0.5293
15021TIP3   OH266477   2.394   2.662   3.751 -0.2467 -0.3370 -0.0225
15021TIP3    H166478   2.320   2.606   3.775  0.3462 -0.7085  0.9797
15021TIP3    H266479   2.354   2.733   3.700 -1.0105 -1.6864 -1.4052
15022TIP3   OH266480   2.968   2.229   0.953 -0.4249  0.5527  0.2641
15022TIP3    H166481   2.944   2.138   0.970 -0.8395  0.9189  1.7923
15022TIP3    H266482   2.891   2.268   0.911  0.2237 -0.0960 -1.6343
15023TIP3   OH266483   4.397   3.316   3.836 -0.9404  0.0854 -0.2030
15023TIP3    H166484   4.448   3.396   3.834 -2.0015  0.8060  0.3541
15023TIP3    H266485   4.327   3.330   3.772 -1.2922 -0.2770  0.0928
15024TIP3   OH266486   2.141   6.483  13.626  0.2020 -0.1286  0.0751
15024TIP3    H166487   2.111   6.449  13.710 -0.8372  1.0292  0.1922
15024TIP3    H266488   2.149   6.406  13.570  0.5250 -0.8630  1.1085
15025TIP3   OH266489   5.208   2.454  13.523 -0.0210 -0.2511 -0.4099
15025TIP3    H166490   5.188   2.387  13.458 -1.8700  0.5786 -0.7480
15025TIP3    H266491   5.124   2.472  13.566 -0.2526  3.6106 -2.0379
15026TIP3   OH266492   5.281   1.100  15.349  0.2596  0.0400  0.3186
15026TIP3    H166493   5.362   1.142  15.322  0.8459 -1.0292  0.3824
15026TIP3    H266494   5.277   1.020  15.298 -1.1398  0.4235 -0.2275
15027TIP3   OH266495   0.602   1.779  16.976 -0.2914 -0.2369 -0.1187
15027TIP3    H166496   0.551   1.840  16.924 -0.4814  1.6957  2.1749
15027TIP3    H266497   0.548   1.700  16.980 -1.9664  0.8658  0.1448
15028TIP3   OH266498   1.372   5.352  15.392  0.3248 -0.0959  0.5335
15028TIP3    H166499   1.284   5.318  15.376  1.5599 -2.8412 -1.2922
15028TIP3    H266500   1.404   5.301  15.466  0.2457  1.3248  1.5987
15029TIP3   OH266501   1.187   0.830  14.421  0.7813 -0.2202 -0.1739
15029TIP3    H166502   1.179   0.748  14.371  0.4170 -1.3867  1.6752
15029TIP3    H266503   1.237   0.805  14.498  0.7334  1.3432  0.3865
15030TIP3   OH266504   4.342   4.531  12.002  0.0714 -0.0781  0.3653
15030TIP3    H166505   4.301   4.585  12.069 -0.9074  0.6520 -0.7831
15030TIP3    H266506   4.279   4.460  11.987  0.2865 -0.2399  0.2160
15031TIP3   OH266507   3.653   3.001   6.647  0.3999  0.3014  0.6768
15031TIP3    H166508   3.585   2.938   6.625  1.1460  0.1042 -1.2811
15031TIP3    H266509   3.627   3.082   6.604  1.2723  0.2821  0.0773
15032TIP3   OH266510   4.461   5.784   1.373  0.8092  0.0133 -0.4983
15032TIP3    H166511   4.371   5.795   1.405  1.0450 -0.4766  0.3525
15032TIP3    H266512   4.494   5.706   1.419  1.0023 -1.0287 -2.2928
15033TIP3   OH266513   2.594   5.249   5.243  0.3166 -0.2118  0.0833
15033TIP3    H166514   2.528   5.198   5.289  1.1070 -2.0869 -0.7311
15033TIP3    H266515   2.674   5.236   5.295  0.1937  1.6307  0.7953
15034TIP3   OH266516   3.943   0.418  15.204  0.1879  0.0569 -0.4625
15034TIP3    H166517   3.960   0.324  15.206 -0.5178 -0.1111  2.5277
15034TIP3    H266518   4.007   0.455  15.265  1.2130  1.7359 -2.4197
15035TIP3   OH266519   5.095   5.110   5.828  0.1303 -0.3771  0.4770
15035TIP3    H166520   5.095   5.182   5.891  0.2080  0.2783 -0.2590
15035TIP3    H266521   5.012   5.118   5.781  0.6739  0.0075 -0.4577
15036TIP3   OH266522   3.772   1.986  12.309 -0.3577 -0.5195 -0.1170
15036TIP3    H166523   3.819   1.909  12.279  1.4129  1.2155 -2.1250
15036TIP3    H266524   3.693   1.989  12.255  0.7341  0.2716 -1.7571
15037TIP3   OH266525   2.874   4.959  12.806 -0.3898  0.3957  0.2633
15037TIP3    H166526   2.948   4.932  12.753 -0.6177  0.3412 -0.0316
15037TIP3    H266527   2.909   4.967  12.895  0.0222  0.6146  0.0823
15038TIP3   OH266528   2.115   4.490  11.367 -0.4826  0.0771  0.4430
15038TIP3    H166529   2.043   4.507  11.306  0.9138  1.8579 -0.8192
15038TIP3    H266530   2.129   4.396  11.362 -3.1302 -0.4687  1.2839
15039TIP3   OH266531   2.853   5.189  17.068 -0.4443 -0.4246  0.0506
15039TIP3    H166532   2.878   5.126  17.001 -0.0524  0.1729 -0.3782
15039TIP3    H266533   2.901   5.162  17.146 -0.8612 -1.0937  0.0833
15040TIP3   OH266534   2.222   5.030   2.352  0.0854  0.1415 -0.2082
15040TIP3    H166535   2.269   4.947   2.356 -1.2607 -0.6966 -0.8992
15040TIP3    H266536   2.262   5.077   2.279  0.1207 -0.3811 -0.5278
15041TIP3   OH266537   5.271   2.967   5.281 -0.3317 -0.2432  0.7177
15041TIP3    H166538   5.245   2.876   5.266 -0.4807 -0.0257 -0.4392
15041TIP3    H266539   5.366   2.966   5.268 -0.6098  0.1908 -1.7632
15042TIP3   OH266540   4.013   0.421  14.677 -0.7543 -0.4537 -0.3304
15042TIP3    H166541   3.957   0.363  14.626  1.4770 -2.9341 -0.1470
15042TIP3    H266542   4.032   0.494  14.619 -0.3387 -1.9404 -2.1294
15043TIP3   OH266543   6.537   0.688   1.246 -0.6393 -0.1276 -0.2725
15043TIP3    H166544   6.464   0.628   1.259 -1.0389  0.1811 -1.0511
15043TIP3    H266545   6.603   0.659   1.309 -1.7501  0.1218  1.0567
15044TIP3   OH266546   4.621   1.687   1.328  0.2175 -0.1508  0.3692
15044TIP3    H166547   4.599   1.779   1.312  1.5245 -0.1595 -1.8117
15044TIP3    H266548   4.537   1.642   1.324 -0.2875  0.7730  0.1363
15045TIP3   OH266549   5.436   3.850  13.665 -0.0527  0.0152 -0.0829
15045TIP3    H166550   5.383   3.867  13.744 -1.0956 -1.9926 -0.2778
15045TIP3    H266551   5.411   3.762  13.639  1.6112 -0.0348 -1.6598
15046TIP3   OH266552   2.296   2.915   3.661 -0.4162  0.2990  0.2639
15046TIP3    H166553   2.360   2.987   3.666 -1.2917  1.0335  1.3174
15046TIP3    H266554   2.211   2.958   3.667 -0.9800 -0.7759  0.1781
15047TIP3   OH266555   5.595   0.256   4.991  0.0550 -0.0397 -0.1442
15047TIP3    H166556   5.639   0.277   4.909  2.7905 -0.4356  1.1178
15047TIP3    H266557   5.651   0.294   5.059 -0.8967 -1.6473  1.6518
15048TIP3   OH266558   0.881   6.222  13.765  0.3587  0.2334 -0.0411
15048TIP3    H166559   0.860   6.240  13.673 -1.3117  0.5738  0.3662
15048TIP3    H266560   0.822   6.151  13.790 -0.5668  1.4000  1.2549
15049TIP3   OH266561   6.588   0.083  13.233 -0.3296  0.1380 -0.0100
15049TIP3    H166562   6.494   0.063  13.233 -0.1965 -0.5566  0.8168
15049TIP3    H266563   6.630  -0.001  13.212  0.0854  0.6183 -1.1514
15050TIP3   OH266564   1.165   0.780   1.279  0.1850  0.2116 -0.0546
15050TIP3    H166565   1.140   0.818   1.363  0.9975 -0.7136  0.6219
15050TIP3    H266566   1.236   0.836   1.247  1.0974 -0.4674  0.7408
15051TIP3   OH266567   4.037   1.190  15.754 -0.4697  0.3615 -0.5122
15051TIP3    H166568   4.027   1.146  15.838  0.9012 -0.1530 -0.6042
15051TIP3    H266569   3.977   1.144  15.695  0.3078 -0.8416 -0.3935
15052TIP3   OH266570   0.553   3.092  11.361  0.1127  0.4510 -0.3268
15052TIP3    H166571   0.570   3.185  11.350  1.9653 -0.0101 -1.8401
15052TIP3    H266572   0.495   3.069  11.289 -0.8364  0.5146  0.3920
15053TIP3   OH266573   5.037   1.795   5.692  0.1364 -0.2501  0.4423
15053TIP3    H166574   5.057   1.876   5.645  0.4693 -0.2972  0.5045
15053TIP3    H266575   4.954   1.814   5.737 -0.1610 -0.1890 -0.1208
15054TIP3   OH266576   5.602   1.059  13.688 -0.9623  0.2829 -0.2924
15054TIP3    H166577   5.599   1.023  13.599 -1.3272  1.5600 -0.8212
15054TIP3    H266578   5.654   0.995  13.738  0.7053  0.3533 -1.8170
15055TIP3   OH266579   3.809   0.792  11.197  0.2854  0.4831 -0.5681
15055TIP3    H166580   3.811   0.871  11.251 -1.2049  1.7102 -2.2036
15055TIP3    H266581   3.865   0.730  11.244  2.4500  2.8424  0.2248
15056TIP3   OH266582   0.418   4.615   5.608  0.2240  0.1770 -0.1108
15056TIP3    H166583   0.491   4.583   5.556  0.4859 -3.1184  2.0181
15056TIP3    H266584   0.457   4.678   5.669  1.1331 -0.7370  0.2794
15057TIP3   OH266585   2.799   4.853  12.222 -0.2072  0.2059  0.3764
15057TIP3    H166586   2.817   4.944  12.246  0.4343 -0.2843  1.9194
15057TIP3    H266587   2.703   4.847  12.220 -0.2682  1.2198 -1.1459
15058TIP3   OH266588   1.994   0.291  14.392  0.3115  0.3719 -0.3296
15058TIP3    H166589   2.035   0.220  14.343 -0.0756 -0.7984  0.9759
15058TIP3    H266590   1.901   0.270  14.392  0.1576  1.0161 -0.1160
15059TIP3   OH266591   2.198   4.581   3.170  0.4608  0.4007  0.2884
15059TIP3    H166592   2.175   4.488   3.171  0.8418  0.3060  0.5384
15059TIP3    H266593   2.194   4.607   3.262  2.3776  0.1122  0.4977
15060TIP3   OH266594   1.926   0.671   1.844 -0.8388 -0.4061  0.0493
15060TIP3    H166595   1.867   0.711   1.908 -1.5670  0.4338 -1.1014
15060TIP3    H266596   2.000   0.732   1.839 -1.7480  0.6456 -1.3869
15061TIP3   OH266597   4.076   0.270  12.635  0.3246  0.0215  0.1589
15061TIP3    H166598   4.070   0.282  12.540 -1.4640  3.6753  0.5861
15061TIP3    H266599   3.986   0.263  12.664  0.8648 -1.4376  1.6253
15062TIP3   OH266600   4.227   0.717   3.176  0.0298  0.2620 -0.0680
15062TIP3    H166601   4.279   0.688   3.252  0.6169  1.3928 -0.0118
15062TIP3    H266602   4.168   0.783   3.212  2.2537  2.9625 -0.9839
15063TIP3   OH266603   1.501   6.555  14.623  0.1310 -0.1646 -0.4255
15063TIP3    H166604   1.525   6.610  14.548 -1.0075  0.9126 -0.0248
15063TIP3    H266605   1.568   6.486  14.624  0.7666  0.3921 -1.7973
15064TIP3   OH266606   5.280   2.752   6.271 -0.2971 -0.2384  0.3069
15064TIP3    H166607   5.237   2.749   6.357 -0.2315  2.7430  0.5764
15064TIP3    H266608   5.301   2.845   6.259  1.8682 -0.9051 -1.8950
15065TIP3   OH266609   5.305   3.656   1.701  0.5195  0.1348  0.3539
15065TIP3    H166610   5.337   3.685   1.616  2.0480  1.5070  1.3483
15065TIP3    H266611   5.286   3.736   1.749 -1.9832 -0.6231  0.7592
15066TIP3   OH266612   0.172   5.340  16.390 -0.1625  0.3767  0.2239
15066TIP3    H166613   0.227   5.291  16.329  0.2492  0.4394  0.5409
15066TIP3    H266614   0.106   5.382  16.335 -2.4355 -2.9017  0.1389
15067TIP3   OH266615   5.530   0.151  12.547  0.1664 -0.1062  0.0001
15067TIP3    H166616   5.555   0.238  12.515 -1.5270  0.5780  0.4538
15067TIP3    H266617   5.475   0.168  12.624  0.6146 -1.6132  0.7056
15068TIP3   OH266618   5.920   0.241  13.415  0.1248 -0.0452  0.3330
15068TIP3    H166619   5.992   0.259  13.476  2.7993 -1.1527 -2.2879
15068TIP3    H266620   5.890   0.154  13.440 -1.1304  0.8164  2.0852
15069TIP3   OH266621   5.496   5.551  11.390 -0.6043 -0.3659  0.1657
15069TIP3    H166622   5.542   5.589  11.315 -0.4564 -0.4790  0.1978
15069TIP3    H266623   5.514   5.457  11.383 -0.1788 -0.3221  0.6214
15070TIP3   OH266624   5.948   2.326   5.753  0.1780 -0.3254  0.6112
15070TIP3    H166625   5.955   2.307   5.847 -1.1197  2.1795  1.3214
15070TIP3    H266626   5.959   2.421   5.748 -1.1315 -0.2337 -1.6258
15071TIP3   OH266627   3.272   0.693  16.007 -0.2849 -0.0803  0.4605
15071TIP3    H166628   3.177   0.700  16.000 -0.4799  0.4702  2.9557
15071TIP3    H266629   3.303   0.783  15.996 -0.2356  0.0542  1.6176
15072TIP3   OH266630   5.625   2.920   5.591 -0.0134 -0.1788 -0.3124
15072TIP3    H166631   5.637   2.975   5.514  1.5054  1.5047  1.0209
15072TIP3    H266632   5.606   2.982   5.662  1.6138 -1.3230  1.2207
15073TIP3   OH266633   4.978   4.895  11.562  0.1058  0.6672 -0.4824
15073TIP3    H166634   5.010   4.871  11.649 -0.0381  1.3622 -0.2304
15073TIP3    H266635   5.013   4.983  11.547  1.3918 -0.0212 -1.7610
15074TIP3   OH266636   3.178   4.919   5.414 -0.3497  0.0510 -0.3136
15074TIP3    H166637   3.111   4.984   5.391 -1.0470  0.1353  1.8207
15074TIP3    H266638   3.258   4.971   5.425 -0.9049  0.6177  1.3960
15075TIP3   OH266639   6.532   4.149   4.028  0.5869  0.3316 -0.2414
15075TIP3    H166640   6.563   4.211   4.094  3.8674 -0.8364 -0.5401
15075TIP3    H266641   6.513   4.203   3.951  2.2005  1.1510 -0.1087
15076TIP3   OH266642   1.293   5.765   5.372 -0.2558  0.2781  0.3589
15076TIP3    H166643   1.387   5.751   5.384 -0.0473  0.0431 -1.3298
15076TIP3    H266644   1.271   5.833   5.435  0.7890 -0.4977  1.6147
15077TIP3   OH266645   1.049   0.715  10.451 -0.5739  0.0212  0.3024
15077TIP3    H166646   0.978   0.733  10.388 -1.6765 -0.5872  1.3358
15077TIP3    H266647   1.065   0.621  10.443 -1.8883 -0.4025  2.0586
15078TIP3   OH266648   2.166   3.618  16.290 -0.8348  0.3913 -0.4030
15078TIP3    H166649   2.160   3.542  16.232  0.1538 -0.8614  1.0438
15078TIP3    H266650   2.077   3.634  16.318 -1.0461 -0.2847 -0.6680
15079TIP3   OH266651   0.832   2.779  14.122 -0.4771 -0.0593  0.6190
15079TIP3    H166652   0.852   2.862  14.165  2.9605  0.1095 -0.9210
15079TIP3    H266653   0.828   2.715  14.194 -1.3189  1.1396  1.6707
15080TIP3   OH266654   2.851   0.040   5.423  0.6529 -0.2571  0.0799
15080TIP3    H166655   2.771   0.092   5.434  1.5053  1.2723 -0.6391
15080TIP3    H266656   2.874   0.012   5.511 -0.2172  0.0176  0.4024
15081TIP3   OH266657   3.964   3.396  12.409  0.2538  0.0017 -0.0012
15081TIP3    H166658   3.876   3.432  12.404  0.4902  0.4540 -1.1373
15081TIP3    H266659   4.012   3.459  12.463 -0.4060 -0.8965  1.7021
15082TIP3   OH266660   4.917   2.553   5.614 -0.3359 -0.2666 -0.2777
15082TIP3    H166661   5.004   2.592   5.627 -0.7980  0.4124  1.0424
15082TIP3    H266662   4.879   2.552   5.702 -2.3872  1.2114 -1.0606
15083TIP3   OH266663   4.070   1.466  12.958  0.6446 -0.7458 -0.0919
15083TIP3    H166664   4.060   1.450  12.864  0.7088  0.7582 -0.3752
15083TIP3    H266665   4.006   1.409  12.999 -0.8226  0.0551 -1.1908
15084TIP3   OH266666   3.902   0.369  14.921 -0.4657  0.7741 -0.2509
15084TIP3    H166667   3.967   0.385  14.989  0.1887  0.7860 -0.8711
15084TIP3    H266668   3.947   0.389  14.839 -0.9798 -0.0423 -0.7499
15085TIP3   OH266669   4.933   2.282   4.860 -0.8301 -0.2482 -0.2427
15085TIP3    H166670   4.986   2.338   4.916 -1.2907 -0.5767  0.5465
15085TIP3    H266671   4.899   2.340   4.793 -1.1489  0.3857  0.4535
15086TIP3   OH266672   3.893   5.422  12.848  0.0891  0.1762  0.3736
15086TIP3    H166673   3.838   5.399  12.922  1.0673  0.6219  1.2628
15086TIP3    H266674   3.887   5.346  12.790  0.7433 -0.9858  1.7714
15087TIP3   OH266675   3.062   5.593   4.559  0.8707  0.3891 -0.0058
15087TIP3    H166676   3.088   5.501   4.562 -0.1647  0.0249 -1.1222
15087TIP3    H266677   2.970   5.591   4.534  1.3180  1.7628 -2.0715
15088TIP3   OH266678   3.432   5.029   5.440 -0.5695 -0.5109  0.5122
15088TIP3    H166679   3.449   4.985   5.523  2.0565  2.4850  1.7914
15088TIP3    H266680   3.465   5.118   5.454  0.2128  0.0861 -3.8328
15089TIP3   OH266681   3.913   3.883   2.490 -0.7766  0.2300  0.2508
15089TIP3    H166682   3.835   3.827   2.495 -1.9738  1.6508 -1.4451
15089TIP3    H266683   3.962   3.850   2.415 -0.3280  0.0668  0.6123
15090TIP3   OH266684   0.251   0.583  14.372 -0.0141  0.4137 -0.3229
15090TIP3    H166685   0.308   0.630  14.312  1.2152 -0.2850  0.2611
15090TIP3    H266686   0.291   0.496  14.379 -3.2967 -1.5788 -3.0344
15091TIP3   OH266687   4.088   4.250  16.815 -0.1223 -0.2773  0.4265
15091TIP3    H166688   4.068   4.177  16.874  1.0030 -0.5326  0.5103
15091TIP3    H266689   4.141   4.309  16.867 -0.0602  0.0409  0.0027
15092TIP3   OH266690   5.489   0.559  14.812 -0.4825 -0.4896  0.5593
15092TIP3    H166691   5.397   0.533  14.823 -0.6467 -0.3409 -0.4036
15092TIP3    H266692   5.517   0.584  14.900 -1.7356  0.6235  0.6749
15093TIP3   OH266693   3.726   2.856   2.597  0.1082  0.1740  0.3803
15093TIP3    H166694   3.645   2.901   2.574 -0.5216 -0.9002  0.4557
15093TIP3    H266695   3.697   2.775   2.640  1.2154 -0.2547  0.3410
15094TIP3   OH266696   1.342   0.554   5.256 -0.3998  0.1865 -0.1686
15094TIP3    H166697   1.430   0.520   5.275 -0.3185  0.3230 -0.3056
15094TIP3    H266698   1.285   0.508   5.318 -0.3216 -0.3678 -0.5036
15095TIP3   OH266699   6.692   2.060  17.222 -0.6124  0.8017 -0.0458
15095TIP3    H166700   6.752   2.013  17.281 -2.0662  0.1953  1.0099
15095TIP3    H266701   6.744   2.077  17.144  0.0790 -2.5750 -0.5100
15096TIP3   OH266702   3.208   2.991  16.637 -0.0105  0.4130 -0.0921
15096TIP3    H166703   3.258   3.070  16.614  0.2633  0.9796  2.1734
15096TIP3    H266704   3.249   2.921  16.587  1.2440  1.3245 -0.3977
15097TIP3   OH266705   0.110   3.636   1.080  0.1728  0.0962 -0.0850
15097TIP3    H166706   0.029   3.684   1.059 -0.3233 -0.7025 -0.0528
15097TIP3    H266707   0.112   3.633   1.176  0.4188  0.4000 -0.0785
15098TIP3   OH266708   1.597   2.550   1.963 -0.0512  0.1833  0.2076
15098TIP3    H166709   1.634   2.590   1.884  0.2157 -1.4805 -0.5546
15098TIP3    H266710   1.515   2.510   1.933 -0.1031 -0.1840  0.8246
15099TIP3   OH266711   5.333   1.997  15.836  0.1046 -0.4386  0.0053
15099TIP3    H166712   5.322   1.978  15.930  0.4860 -1.7246 -0.1826
15099TIP3    H266713   5.390   1.927  15.805  0.0759  0.0469 -1.1687
15100TIP3   OH266714   3.994   0.652   4.040 -0.2613 -0.9007  0.0016
15100TIP3    H166715   3.933   0.619   3.973 -0.3616  1.0736 -0.9433
15100TIP3    H266716   3.938   0.701   4.101 -0.1635 -2.6449  1.5803
15101TIP3   OH266717   5.947   5.802  14.750 -0.0034  0.1608 -0.2110
15101TIP3    H166718   5.954   5.818  14.656 -1.8017  1.8990 -0.0944
15101TIP3    H266719   5.857   5.775  14.764  0.0119  0.7093  1.1163
15102TIP3   OH266720   1.828   0.513  16.096 -0.3328  0.2132 -0.3894
15102TIP3    H166721   1.736   0.532  16.079 -0.1213  2.1361  0.3148
15102TIP3    H266722   1.876   0.581  16.048  0.6317  0.2038  0.5134
15103TIP3   OH266723   1.957   2.767   5.714  0.1157  0.6676  0.4440
15103TIP3    H166724   2.044   2.752   5.752 -0.4852  0.6059  1.8329
15103TIP3    H266725   1.927   2.679   5.690  0.0263  0.5707  0.8997
15104TIP3   OH266726   3.928   5.468   1.702 -0.0124 -0.3176 -0.1232
15104TIP3    H166727   3.940   5.545   1.647  0.8589  0.4024  1.0348
15104TIP3    H266728   3.851   5.488   1.755  0.5674  0.0265  0.6005
15105TIP3   OH266729   1.854   6.770  13.619 -0.2000  0.4723 -0.4330
15105TIP3    H166730   1.849   6.759  13.714 -0.0762 -0.2609 -0.5063
15105TIP3    H266731   1.821   6.859  13.603 -1.7358  0.0452  0.1634
15106TIP3   OH266732   4.126   1.108  15.013 -0.5994 -0.0801  0.2356
15106TIP3    H166733   4.171   1.127  15.095  1.1309 -0.7153 -0.5189
15106TIP3    H266734   4.197   1.094  14.950 -1.8758  0.5087 -1.4005
15107TIP3   OH266735   5.945   1.903  10.494 -0.2717  0.1304  0.5547
15107TIP3    H166736   6.020   1.945  10.535 -1.6040  0.1984  3.0937
15107TIP3    H266737   5.875   1.969  10.497 -1.0268 -0.6254  0.1529
15108TIP3   OH266738   0.556   1.369  14.933  0.3721  0.4511 -0.6238
15108TIP3    H166739   0.639   1.321  14.941  0.0963  0.2378  2.2530
15108TIP3    H266740   0.508   1.323  14.865  1.0580 -2.0100  0.4250
15109TIP3   OH266741   3.339   5.984  13.612  0.3669 -0.0794 -1.1753
15109TIP3    H166742   3.375   5.954  13.528  1.7758  1.6808 -1.2749
15109TIP3    H266743   3.415   5.991  13.669 -0.4674 -0.4580  0.0156
15110TIP3   OH266744   4.639   5.919  11.620  0.0677  0.5923  0.5795
15110TIP3    H166745   4.621   5.986  11.554 -0.4031 -0.2861 -0.2011
15110TIP3    H266746   4.717   5.874  11.587 -1.4554 -1.3468 -0.6313
15111TIP3   OH266747   5.149   0.094   5.452 -1.1695 -0.8754  0.0557
15111TIP3    H166748   5.201   0.174   5.448 -0.4375 -1.3615 -0.8587
15111TIP3    H266749   5.176   0.051   5.533  0.5095 -1.5155 -0.7960
15112TIP3   OH266750   5.602   0.580  11.772 -0.4538  0.1570  0.0055
15112TIP3    H166751   5.575   0.590  11.863 -1.6423  0.4445 -0.3676
15112TIP3    H266752   5.559   0.500  11.743  0.5739 -0.3868 -0.0928
15113TIP3   OH266753   1.186   0.874  12.119  0.0009 -0.3116 -0.4120
15113TIP3    H166754   1.133   0.949  12.145  0.2204  0.3934 -1.9223
15113TIP3    H266755   1.122   0.812  12.082 -0.1221 -0.7218  0.4469
15114TIP3   OH266756   4.568   2.542  13.438 -0.6081  0.4254  0.1206
15114TIP3    H166757   4.572   2.481  13.511 -2.2611  0.7507  0.5347
15114TIP3    H266758   4.522   2.494  13.369 -0.3577  0.6097 -0.1765
15115TIP3   OH266759   4.677   2.960  12.599  0.3478  0.3457  0.6139
15115TIP3    H166760   4.749   2.935  12.658  0.6102  1.8601  0.9939
15115TIP3    H266761   4.653   2.879  12.554  1.4594 -0.4469  1.3892
15116TIP3   OH266762   4.020   3.624  12.028 -0.2282 -0.3564 -0.1379
15116TIP3    H166763   4.082   3.616  12.100  0.7914  0.8155 -0.8400
15116TIP3    H266764   3.980   3.710  12.040  0.2570  0.0305 -1.1772
15117TIP3   OH266765   4.958   6.245   1.239 -0.4534  0.3044  0.0717
15117TIP3    H166766   4.864   6.241   1.223 -0.8516  2.2152  1.5983
15117TIP3    H266767   4.975   6.179   1.306 -0.5556 -0.5439 -0.7223
15118TIP3   OH266768   3.356   1.813  11.509 -0.1391  0.1140 -0.5776
15118TIP3    H166769   3.283   1.768  11.466  0.2276 -4.6361  2.9630
15118TIP3    H266770   3.354   1.781  11.599  5.2132  1.1814  0.2226
15119TIP3   OH266771   1.905   5.085   0.087 -0.2666  0.2382  0.3083
15119TIP3    H166772   1.859   5.044   0.161  0.7791  0.9064  1.3509
15119TIP3    H266773   1.962   5.015   0.053 -2.7115 -0.9747 -1.7191
15120TIP3   OH266774   4.113   1.982   5.460  0.2595 -0.1602  0.0916
15120TIP3    H166775   4.062   2.063   5.466  1.7875  0.7469  2.2684
15120TIP3    H266776   4.149   1.982   5.371 -0.5021  1.0665 -0.2411
15121TIP3   OH266777   0.409   4.577   3.284 -0.4285  0.1878  0.3583
15121TIP3    H166778   0.473   4.616   3.344 -0.8819 -0.1838  1.0974
15121TIP3    H266779   0.386   4.648   3.224  0.5995  0.3545  0.1332
15122TIP3   OH266780   3.205   0.437  12.077 -0.0564  0.3242  0.7148
15122TIP3    H166781   3.179   0.528  12.060  2.3802  1.2107  1.3844
15122TIP3    H266782   3.244   0.408  11.995  0.6437  0.4460  1.0030
15123TIP3   OH266783   3.650   5.491   4.826 -0.1959  0.8182 -0.1578
15123TIP3    H166784   3.709   5.561   4.851 -1.5118  1.4930  1.2459
15123TIP3    H266785   3.698   5.410   4.844 -0.0885  1.3286  2.1397
15124TIP3   OH266786   4.040   2.567   0.240 -0.1105 -0.4322  0.2065
15124TIP3    H166787   4.087   2.550   0.322  2.3051 -1.2378 -1.2630
15124TIP3    H266788   4.001   2.483   0.216 -0.7096 -0.2251  0.4128
15125TIP3   OH266789   5.848   5.444   5.832  0.7437  0.4367 -0.6787
15125TIP3    H166790   5.888   5.417   5.749 -0.4257  0.0660 -1.1388
15125TIP3    H266791   5.760   5.405   5.830  0.8570  0.0416  0.9382
15126TIP3   OH266792   2.430   2.203  14.335  0.2532  0.2511  0.2753
15126TIP3    H166793   2.491   2.165  14.398  0.0442  0.3370  0.5304
15126TIP3    H266794   2.426   2.296  14.360 -1.9300 -0.2116  1.8733
15127TIP3   OH266795   0.130   4.080  16.397  0.0207 -0.2106  0.4765
15127TIP3    H166796   0.132   4.166  16.440 -3.5368  1.1127 -1.5641
15127TIP3    H266797   0.151   4.098  16.305  0.5377 -1.7975  0.2418
15128TIP3   OH266798   3.200   3.731   0.615  0.2303  0.3979 -0.4319
15128TIP3    H166799   3.285   3.708   0.654  0.6089  0.5345 -1.1717
15128TIP3    H266800   3.149   3.650   0.619  1.2259 -0.3661 -2.1564
15129TIP3   OH266801   0.430   3.955   1.504 -0.0066  0.5412 -0.0381
15129TIP3    H166802   0.524   3.969   1.517 -0.2982  1.5350  1.2621
15129TIP3    H266803   0.404   3.898   1.576 -0.0675 -1.4137 -1.5462
15130TIP3   OH266804   3.524   4.038   6.526  0.0125  0.6285 -0.3305
15130TIP3    H166805   3.472   4.033   6.446 -1.0368  1.0764  0.2952
15130TIP3    H266806   3.592   3.972   6.515  0.0225  0.8351 -1.6791
15131TIP3   OH266807   5.791   5.272   1.029  0.4871 -0.0494 -0.0751
15131TIP3    H166808   5.764   5.253   0.939 -0.3082  1.7256 -0.2374
15131TIP3    H266809   5.780   5.188   1.075 -2.3715 -0.1983 -0.8579
15132TIP3   OH266810   3.752   4.803  13.640 -0.4872  0.1941  0.3445
15132TIP3    H166811   3.685   4.776  13.576 -1.4177 -1.9277  2.0805
15132TIP3    H266812   3.835   4.776  13.600 -0.7260  1.6641 -1.2571
15133TIP3   OH266813   4.584   3.287   2.871  0.0760  0.7997 -0.0431
15133TIP3    H166814   4.497   3.269   2.836  1.0889 -1.9015 -1.4888
15133TIP3    H266815   4.574   3.283   2.966 -1.3669  0.6405 -0.1870
15134TIP3   OH266816   2.572   4.907   0.644  0.0550 -0.6019  0.3169
15134TIP3    H166817   2.627   4.913   0.565 -0.1076 -0.8588  0.1837
15134TIP3    H266818   2.547   4.998   0.662  0.8904 -0.4230  0.6439
15135TIP3   OH266819   1.823   6.543  12.436  0.2690  0.7517 -0.3645
15135TIP3    H166820   1.883   6.548  12.511 -0.9059  2.0207  0.5500
15135TIP3    H266821   1.809   6.634  12.411  1.4634  0.3348 -2.8943
15136TIP3   OH266822   5.677   0.455  16.723  0.4002 -0.2434  0.1110
15136TIP3    H166823   5.759   0.407  16.713 -0.7559 -2.3043  0.1327
15136TIP3    H266824   5.656   0.450  16.816  0.4550  0.6830  0.1875
15137TIP3   OH266825   5.122   1.485   6.728  0.3419 -0.5926 -0.1112
15137TIP3    H166826   5.081   1.532   6.801  0.9659  0.8684 -0.6734
15137TIP3    H266827   5.198   1.538   6.705 -1.0380  0.2231 -3.2701
15138TIP3   OH266828   2.965   0.257  10.330 -0.2987  0.0219  0.6415
15138TIP3    H166829   3.008   0.310  10.262 -2.1536 -1.2054 -1.6224
15138TIP3    H266830   2.990   0.167  10.309 -2.1215 -0.5131  0.5956
15139TIP3   OH266831   3.015   1.557  14.230 -0.5353  0.6382 -0.0558
15139TIP3    H166832   3.085   1.557  14.165 -0.9938 -0.2690 -0.5800
15139TIP3    H266833   2.942   1.602  14.186 -1.4855 -1.5883 -0.9696
15140TIP3   OH266834   1.112   6.388   1.820 -0.6831  0.1197  0.1158
15140TIP3    H166835   1.063   6.318   1.864 -0.5009  0.4231  0.8097
15140TIP3    H266836   1.204   6.363   1.830 -0.6480  0.0438 -0.3540
15141TIP3   OH266837   3.391   1.378   4.594  0.5617 -0.1351  0.3066
15141TIP3    H166838   3.324   1.410   4.533  0.1247 -1.3912  0.0835
15141TIP3    H266839   3.375   1.428   4.674 -0.3279 -0.0525  0.0964
15142TIP3   OH266840   3.631   6.507  16.095  0.0560 -0.0460 -0.0113
15142TIP3    H166841   3.698   6.466  16.149 -0.5213 -1.7439 -0.5108
15142TIP3    H266842   3.617   6.593  16.135  1.1760 -0.3913  1.2043
15143TIP3   OH266843   1.896   2.610  11.023 -0.2190 -0.3483  0.6628
15143TIP3    H166844   1.978   2.608  10.974  0.3577  2.1706  1.3668
15143TIP3    H266845   1.829   2.584  10.959  0.6990  1.2257 -1.0237
15144TIP3   OH266846   1.569   2.411   3.172 -0.3139 -0.0661  0.2714
15144TIP3    H166847   1.518   2.356   3.112 -1.6079  0.1035  1.1725
15144TIP3    H266848   1.509   2.483   3.195  0.2924  0.0765  1.4591
15145TIP3   OH266849   5.229   4.519  15.637 -0.0922 -0.2818 -1.0695
15145TIP3    H166850   5.249   4.430  15.664  1.6276  0.2815 -0.3038
15145TIP3    H266851   5.315   4.562  15.633 -0.9516  1.6219 -0.3140
15146TIP3   OH266852   1.511   4.462   0.140  0.2991 -0.1849  0.0620
15146TIP3    H166853   1.431   4.422   0.105  0.0802  0.5144 -0.2499
15146TIP3    H266854   1.540   4.522   0.071  1.3312 -0.7419 -0.0093
15147TIP3   OH266855   1.703   2.926   5.172  0.2040 -0.2313  0.0444
15147TIP3    H166856   1.710   3.021   5.183 -2.0151 -0.0770  0.5095
15147TIP3    H266857   1.667   2.895   5.255 -1.6375 -1.1007 -1.0124
15148TIP3   OH266858   1.014   2.281  16.474  0.3177 -0.2100 -0.0275
15148TIP3    H166859   0.922   2.308  16.467  0.8947  2.0027  0.0620
15148TIP3    H266860   1.025   2.256  16.566 -0.4482 -1.6758 -0.3041
15149TIP3   OH266861   2.071   4.119  16.649 -0.3740 -0.3132  0.1216
15149TIP3    H166862   2.111   4.086  16.568 -3.0665 -1.2632 -0.9360
15149TIP3    H266863   2.056   4.212  16.632  0.8556 -0.0544  0.3492
15150TIP3   OH266864   5.104   1.382  15.880 -0.0272  0.0633 -0.0208
15150TIP3    H166865   5.048   1.444  15.833  0.2507  0.8306  0.6421
15150TIP3    H266866   5.179   1.369  15.822  0.2478  0.8969  0.1336
15151TIP3   OH266867   1.939   2.632   1.900  0.5822  0.3430 -0.1688
15151TIP3    H166868   1.871   2.662   1.839  1.1931  3.7749  0.6566
15151TIP3    H266869   2.018   2.627   1.846  0.1944 -1.5817 -0.6531
15152TIP3   OH266870   4.862   1.594   3.339  0.0936 -0.3520 -0.1635
15152TIP3    H166871   4.899   1.509   3.364  1.7077  0.4850  0.4208
15152TIP3    H266872   4.931   1.657   3.359 -1.9547  1.4282  1.8432
15153TIP3   OH266873   1.835   3.656   1.694  0.0111 -0.2382  0.5225
15153TIP3    H166874   1.921   3.616   1.694  0.9896  1.7231 -0.6574
15153TIP3    H266875   1.828   3.698   1.780  0.6491  0.3595  0.2958
15154TIP3   OH266876   6.062   3.457   0.144 -0.4079  0.5324 -0.6570
15154TIP3    H166877   6.070   3.544   0.106 -0.7716  1.2505  0.8609
15154TIP3    H266878   5.968   3.440   0.146 -0.5349  1.2367  1.4447
15155TIP3   OH266879   4.803   2.727  15.097 -0.7775 -0.3181 -0.5331
15155TIP3    H166880   4.713   2.756  15.108 -0.7036 -0.1234 -0.4311
15155TIP3    H266881   4.800   2.666  15.023 -1.2266 -1.4011  0.3487
15156TIP3   OH266882   2.275   0.002   3.720 -0.6036 -0.0064  0.1531
15156TIP3    H166883   2.265   0.083   3.670 -0.5703 -0.2135 -0.1947
15156TIP3    H266884   2.370  -0.010   3.725 -0.6168 -0.2041 -0.0882
15157TIP3   OH266885   6.541   0.106  16.550  0.2419 -0.8028  0.2795
15157TIP3    H166886   6.454   0.105  16.589  0.0043 -0.1177 -0.2331
15157TIP3    H266887   6.579   0.189  16.578  0.8461 -1.2245  0.7400
15158TIP3   OH266888   0.642   2.863   1.505 -0.0535  0.1678 -0.5362
15158TIP3    H166889   0.638   2.889   1.413 -1.3252  0.5716 -0.3870
15158TIP3    H266890   0.573   2.913   1.547 -0.2689 -0.8902  0.4247
15159TIP3   OH266891   6.296   6.517   5.749 -0.1880 -0.1358 -0.2604
15159TIP3    H166892   6.251   6.443   5.788 -2.6077  0.9772 -0.7855
15159TIP3    H266893   6.299   6.583   5.819  0.4203 -0.1042 -0.3095
15160TIP3   OH266894   5.120   0.224   4.280  0.0876 -0.0579 -0.0486
15160TIP3    H166895   5.109   0.281   4.355  0.8953 -1.3114  1.0643
15160TIP3    H266896   5.056   0.154   4.293 -0.4943  0.2522 -1.0896
15161TIP3   OH266897   3.398   1.796   4.465  0.3074 -0.2166 -0.2575
15161TIP3    H166898   3.305   1.818   4.454  0.2315 -0.8233 -0.8820
15161TIP3    H266899   3.411   1.795   4.560 -0.0108  1.1123 -0.1735
15162TIP3   OH266900   6.589   4.116  13.460  0.5035  0.3555 -0.3031
15162TIP3    H166901   6.514   4.149  13.510  0.3883 -1.8588  1.1449
15162TIP3    H266902   6.551   4.087  13.377 -0.2977 -0.7973  0.4368
15163TIP3   OH266903   4.598   3.563  15.445  0.7674 -0.6826 -0.0347
15163TIP3    H166904   4.551   3.594  15.523  0.0563 -1.0536 -0.3059
15163TIP3    H266905   4.634   3.478  15.471  0.8014 -0.6586 -0.0039
15164TIP3   OH266906   0.856   0.092   4.704 -0.0014  0.0139  0.1288
15164TIP3    H166907   0.943   0.110   4.669  1.5985 -0.0806  3.6671
15164TIP3    H266908   0.826   0.016   4.655  2.7553 -1.1577  0.0661
15165TIP3   OH266909   1.759   0.089  16.449  0.4682 -0.1174 -0.2326
15165TIP3    H166910   1.746   0.183  16.461 -0.7202 -0.1713 -0.9633
15165TIP3    H266911   1.823   0.083  16.378  1.0184  0.1239  0.2261
15166TIP3   OH266912   2.081   0.077  12.717 -0.5225 -0.2320 -0.1119
15166TIP3    H166913   2.115   0.110  12.800 -0.1929  1.1970 -0.7820
15166TIP3    H266914   1.993   0.115  12.710 -0.5383 -0.3210 -0.4246
15167TIP3   OH266915   1.328   0.613   4.993 -0.0061  0.2150  0.5517
15167TIP3    H166916   1.345   0.568   5.075 -1.8573 -0.9507  0.3450
15167TIP3    H266917   1.247   0.662   5.008 -0.4049 -0.0600 -0.5858
15168TIP3   OH266918   0.533   3.092  12.670 -0.4291  0.1263  0.8255
15168TIP3    H166919   0.476   3.016  12.665  0.9007 -0.8403 -1.4978
15168TIP3    H266920   0.607   3.064  12.724  0.6335 -0.7349 -0.9804
15169TIP3   OH266921   3.359   4.687   3.044  0.2303 -0.1360  0.2951
15169TIP3    H166922   3.264   4.680   3.060 -0.0494  2.4392  0.1836
15169TIP3    H266923   3.371   4.649   2.957 -0.9740  0.6822 -0.2709
15170TIP3   OH266924   1.989   2.478  12.659  0.2823 -0.1061  0.0679
15170TIP3    H166925   1.993   2.382  12.660  4.0902 -0.2091 -2.3495
15170TIP3    H266926   2.081   2.505  12.662 -0.6135  3.4394 -0.4924
15171TIP3   OH266927   4.129   0.895   1.793  0.0764 -0.4886  0.0223
15171TIP3    H166928   4.195   0.871   1.728  0.4359 -0.3793  0.3458
15171TIP3    H266929   4.166   0.867   1.877  0.5925  1.2979  0.4376
15172TIP3   OH266930   6.081   1.061  11.273  0.0875 -0.4402  0.4377
15172TIP3    H166931   6.036   1.082  11.354  0.9476  0.3087  0.7372
15172TIP3    H266932   6.080   0.965  11.268 -1.9423 -0.4345  0.1801
15173TIP3   OH266933   3.903   3.679   5.694  0.1608  0.0214  0.1740
15173TIP3    H166934   3.904   3.654   5.602 -0.6510  1.7905 -0.3416
15173TIP3    H266935   3.921   3.597   5.741 -0.5629 -1.1496 -1.4954
15174TIP3   OH266936   0.867   4.649  14.036  0.6326  0.6810 -0.5024
15174TIP3    H166937   0.875   4.569  14.088  0.0169  0.0149 -1.4283
15174TIP3    H266938   0.820   4.709  14.093 -0.8540 -0.3514 -0.6000
15175TIP3   OH266939   0.019   0.430   3.393 -0.2518 -0.2268  0.0737
15175TIP3    H166940   0.012   0.384   3.477 -0.8607 -1.6661 -0.7263
15175TIP3    H266941   0.089   0.384   3.346 -1.1964 -0.6951 -0.9303
15176TIP3   OH266942   0.243   4.961   2.437  0.7405 -0.2179 -0.2168
15176TIP3    H166943   0.256   4.975   2.343  3.5278  0.8591  0.2450
15176TIP3    H266944   0.330   4.941   2.471 -0.2821 -1.0619  2.0931
15177TIP3   OH266945   1.587   1.367   2.185  0.2481 -0.2920 -0.0556
15177TIP3    H166946   1.558   1.454   2.159  0.6118 -0.8815 -2.7281
15177TIP3    H266947   1.668   1.382   2.234 -0.2292  0.9029  0.4053
15178TIP3   OH266948   6.109   5.662   2.524  0.2675 -0.1997  0.6910
15178TIP3    H166949   6.190   5.713   2.519 -0.1206  0.2868 -1.5200
15178TIP3    H266950   6.039   5.727   2.524 -0.1848 -0.6725 -0.2852
15179TIP3   OH266951   4.298   5.774  13.124 -0.2619  0.0799 -0.0375
15179TIP3    H166952   4.252   5.834  13.184 -2.1154 -2.0340  0.7981
15179TIP3    H266953   4.246   5.777  13.044  0.5380  0.7223 -0.5405
15180TIP3   OH266954   0.632   2.199  16.688  0.1796  0.0849  0.1491
15180TIP3    H166955   0.636   2.245  16.772  1.2385 -2.7591  1.8225
15180TIP3    H266956   0.542   2.165  16.684 -0.1743  1.0604 -0.3904
15181TIP3   OH266957   2.403   3.669  15.085  0.6600  0.2769  0.3118
15181TIP3    H166958   2.415   3.764  15.089  0.6997  0.3407 -0.9757
15181TIP3    H266959   2.336   3.656  15.018 -0.8114 -0.5145  1.8703
15182TIP3   OH266960   6.605   1.039   2.934 -0.4085  0.4440 -0.3872
15182TIP3    H166961   6.661   0.986   2.878 -0.1836  0.1696  0.0922
15182TIP3    H266962   6.516   1.012   2.911 -0.3544  0.9108 -1.1783
15183TIP3   OH266963   5.493   0.403   2.530 -0.3893 -0.4779 -0.4099
15183TIP3    H166964   5.505   0.309   2.543  0.1035 -0.4640 -0.7601
15183TIP3    H266965   5.535   0.443   2.606  0.7631 -0.4802 -1.0271
15184TIP3   OH266966   4.851   2.944   2.145 -0.3812 -0.0708 -0.6663
15184TIP3    H166967   4.915   2.913   2.081  0.0715  1.3153 -0.9394
15184TIP3    H266968   4.772   2.893   2.127 -0.0122 -0.2744 -1.8114
15185TIP3   OH266969   2.850   6.353  11.509  0.2550  0.3989  0.9008
15185TIP3    H166970   2.886   6.440  11.493 -0.5959  0.6872  0.4953
15185TIP3    H266971   2.923   6.302  11.544  1.1065  0.9083 -0.1030
15186TIP3   OH266972   2.999   6.653   4.296 -0.3092 -0.2383  0.1014
15186TIP3    H166973   3.053   6.673   4.219 -0.4137 -1.7817 -0.3989
15186TIP3    H266974   2.996   6.736   4.344  1.3769  0.2524 -0.5412
15187TIP3   OH266975   6.645   6.225   3.395  0.2719  0.5392  0.6318
15187TIP3    H166976   6.705   6.298   3.379 -1.1606  1.5261 -0.6306
15187TIP3    H266977   6.612   6.239   3.483  0.0985  1.3839  0.4428
15188TIP3   OH266978   4.252   0.571  14.264 -0.3141 -0.0873 -0.4799
15188TIP3    H166979   4.173   0.522  14.241 -0.6755 -0.3909  1.2710
15188TIP3    H266980   4.227   0.663  14.251 -0.6707 -0.2189 -0.7471
15189TIP3   OH266981   6.284   3.463  15.220  0.0021 -0.0049  0.6170
15189TIP3    H166982   6.203   3.465  15.271 -0.9152 -0.2484 -0.7909
15189TIP3    H266983   6.330   3.385  15.252 -1.0769 -0.7881  0.3228
15190TIP3   OH266984   5.552   6.590   1.835  0.2976  0.7165  0.5788
15190TIP3    H166985   5.478   6.580   1.896 -0.2765  0.5002 -0.1354
15190TIP3    H266986   5.514   6.575   1.749  1.6488 -1.8160  0.3368
15191TIP3   OH266987   3.717   5.629  11.997 -0.4621  0.3590  0.3915
15191TIP3    H166988   3.797   5.605  11.951 -1.3446  1.6950 -2.0227
15191TIP3    H266989   3.741   5.625  12.090  2.2017  0.0798 -0.2176
15192TIP3   OH266990   1.369   5.880   1.012 -0.2863 -0.1176 -0.1031
15192TIP3    H166991   1.283   5.839   1.016  0.0328 -0.7091  2.4721
15192TIP3    H266992   1.431   5.807   1.010  0.2197  0.2905 -2.7235
15193TIP3   OH266993   1.852   5.970   0.741 -0.2697 -0.1922 -0.0609
15193TIP3    H166994   1.863   5.986   0.647 -1.7976  0.2772 -0.1898
15193TIP3    H266995   1.758   5.981   0.756  0.1873  1.8286  1.9148
15194TIP3   OH266996   0.120   2.560   1.180  0.2493  0.2225  0.0242
15194TIP3    H166997   0.179   2.626   1.216  0.0219  0.9282 -0.8543
15194TIP3    H266998   0.147   2.478   1.221  1.4030  0.6440  0.1350
15195TIP3   OH266999   6.703   0.274   3.617 -0.0606 -0.5115 -0.1244
15195TIP3    H167000   6.689   0.312   3.703 -1.0130 -0.6562 -0.2096
15195TIP3    H267001   6.628   0.217   3.603 -1.3044  1.4534 -2.1114
15196TIP3   OH267002   4.738   1.206   5.561  0.4283 -0.1197  0.1183
15196TIP3    H167003   4.762   1.277   5.501 -1.0451  1.7256  1.6076
15196TIP3    H267004   4.821   1.181   5.602  0.7549  2.1322  0.9758
15197TIP3   OH267005   3.684   1.646  14.384  0.0974 -0.1310 -0.2302
15197TIP3    H167006   3.689   1.602  14.469  1.0844 -0.8136 -0.6238
15197TIP3    H267007   3.746   1.599  14.329  0.0369  0.7904 -1.1155
15198TIP3   OH267008   5.167   1.549  14.253  0.2981 -0.0962 -0.0271
15198TIP3    H167009   5.222   1.607  14.200 -1.8993  1.9446 -0.1952
15198TIP3    H267010   5.214   1.465  14.252  3.3218  1.4459 -0.2411
15199TIP3   OH267011   1.984   4.727   3.658  0.5291  0.4348  0.5278
15199TIP3    H167012   1.902   4.681   3.674  1.3426 -1.3220 -0.0884
15199TIP3    H267013   2.027   4.732   3.743  1.8288 -2.8660  0.2072
15200TIP3   OH267014   5.339   4.139  13.047 -0.1252  0.0683  0.3387
15200TIP3    H167015   5.352   4.045  13.060 -0.4274 -0.2194 -1.3061
15200TIP3    H267016   5.296   4.168  13.127 -1.4900 -1.4999  0.2241
15201TIP3   OH267017   1.763   5.629  12.020  0.0266  0.2505 -0.6185
15201TIP3    H167018   1.795   5.715  11.993  2.5364  0.5332  2.6680
15201TIP3    H267019   1.778   5.572  11.945  1.5528  1.9738 -1.6811
15202TIP3   OH267020   5.589   1.625   4.349 -0.5307  0.2979 -0.5138
15202TIP3    H167021   5.619   1.648   4.437 -1.1683  0.5372 -0.3570
15202TIP3    H267022   5.640   1.547   4.327 -1.0884 -0.3766  0.4846
15203TIP3   OH267023   3.974   5.202   1.641 -0.0173  0.1834  0.2543
15203TIP3    H167024   4.007   5.189   1.552 -1.0469 -1.5547  0.0793
15203TIP3    H267025   3.959   5.297   1.647  1.1383  0.4836 -1.0177
15204TIP3   OH267026   3.181   6.398  15.291  0.3580 -0.1903  0.1424
15204TIP3    H167027   3.197   6.328  15.354 -0.6981  0.0136  0.6698
15204TIP3    H267028   3.266   6.415  15.251  0.5875 -1.9581 -0.2028
15205TIP3   OH267029   4.849   0.025  12.960 -0.3855  0.6284  0.4448
15205TIP3    H167030   4.911   0.005  13.031 -0.8842  0.0276  0.7300
15205TIP3    H267031   4.765   0.036  13.005 -0.7494  0.0151 -0.0737
15206TIP3   OH267032   3.417   3.767  14.284  0.2456  0.2222  0.0695
15206TIP3    H167033   3.491   3.711  14.309 -0.4932 -0.0660  1.7917
15206TIP3    H267034   3.442   3.804  14.200  1.2999 -1.7478 -0.5405
15207TIP3   OH267035   1.469   5.148   3.133  0.7847 -0.8797  0.5315
15207TIP3    H167036   1.460   5.061   3.095  1.0436 -0.8188  0.3326
15207TIP3    H267037   1.389   5.159   3.185 -0.0444 -0.5760 -0.7525
15208TIP3   OH267038   0.537   3.026   4.068  0.8856  0.2282 -0.3460
15208TIP3    H167039   0.597   3.053   4.137 -1.5096 -0.7042  2.2726
15208TIP3    H267040   0.490   2.952   4.104 -0.6061 -0.2439 -2.9756
15209TIP3   OH267041   6.383   5.326   5.331 -0.4005  0.5498  0.5339
15209TIP3    H167042   6.441   5.273   5.385 -0.5944  0.9111  1.1008
15209TIP3    H267043   6.297   5.285   5.339 -0.5388  0.9020  0.9260
15210TIP3   OH267044   5.616   0.768   0.729  1.1965 -0.3801 -0.4578
15210TIP3    H167045   5.608   0.863   0.717  0.6981 -0.4348 -0.5809
15210TIP3    H267046   5.692   0.743   0.677  0.6802 -0.2079 -1.3119
15211TIP3   OH267047   5.570   1.763  11.515 -0.2636  0.0558  0.0899
15211TIP3    H167048   5.544   1.856  11.519  0.6605  0.4378 -1.7251
15211TIP3    H267049   5.623   1.750  11.594  0.1398  1.2583  0.0422
15212TIP3   OH267050   5.812   6.094   5.477 -0.1656 -0.4762  0.4719
15212TIP3    H167051   5.763   6.077   5.557  1.1827 -0.9435  1.2456
15212TIP3    H267052   5.853   6.011   5.456  0.6657  0.0026  0.1378
15213TIP3   OH267053   3.208   4.073  13.267 -0.4043  0.1690  0.5318
15213TIP3    H167054   3.208   4.038  13.178  1.7226  0.4961  0.3493
15213TIP3    H267055   3.167   4.005  13.319 -1.4143 -0.1619 -0.6437
15214TIP3   OH267056   4.753   6.343   2.988 -0.0112 -0.0065  0.5066
15214TIP3    H167057   4.728   6.394   3.065  0.4396 -0.6098  1.0595
15214TIP3    H267058   4.848   6.340   2.991  0.1946  2.0100 -1.4067
15215TIP3   OH267059   2.717   1.393  15.673 -0.0002  0.1211  0.8181
15215TIP3    H167060   2.691   1.301  15.677  0.4800  0.0156  3.6073
15215TIP3    H267061   2.707   1.417  15.581 -0.6704 -2.5482  0.1100
15216TIP3   OH267062   0.224   2.773   4.914 -0.5113 -0.2346 -0.6793
15216TIP3    H167063   0.203   2.770   5.008  3.5493  0.9709  0.4354
15216TIP3    H267064   0.224   2.681   4.887  2.8763 -1.1427  1.8173
15217TIP3   OH267065   0.852   4.284  13.995 -0.1929  0.2729 -0.4988
15217TIP3    H167066   0.785   4.266  14.062  0.8573  0.5055  0.6479
15217TIP3    H267067   0.877   4.198  13.963 -0.8448  0.1671 -0.7464
15218TIP3   OH267068   4.059   5.443  16.392 -0.2561 -0.2777  0.0998
15218TIP3    H167069   3.969   5.475  16.388 -0.2616 -0.0079  1.6454
15218TIP3    H267070   4.106   5.496  16.327 -0.7674  1.2307  0.8986
15219TIP3   OH267071   5.740   3.104   2.870 -0.4632  0.1210 -0.3367
15219TIP3    H167072   5.697   3.034   2.820  0.1761 -0.4625 -0.0848
15219TIP3    H267073   5.722   3.082   2.962  0.6293 -0.3184 -0.2092
15220TIP3   OH267074   4.998   1.760  16.351 -0.4555  0.3741 -0.4817
15220TIP3    H167075   4.905   1.742  16.366 -0.1429  0.3080  1.6029
15220TIP3    H267076   5.015   1.840  16.400  0.6250  0.3272 -0.7594
15221TIP3   OH267077   1.524   1.523   2.743 -0.4632 -0.4813 -0.0007
15221TIP3    H167078   1.439   1.486   2.720  0.2305 -2.4621  0.4682
15221TIP3    H267079   1.523   1.529   2.838 -0.3752  0.3032 -0.0374
15222TIP3   OH267080   1.678   1.787   4.377  0.9572 -0.1509  0.0146
15222TIP3    H167081   1.612   1.717   4.384  0.5366 -0.0513 -2.2877
15222TIP3    H267082   1.692   1.815   4.467 -0.6630 -1.5512  0.7650
15223TIP3   OH267083   1.592   3.587   2.385 -0.4479  0.0288  0.5841
15223TIP3    H167084   1.602   3.647   2.311  1.8540  0.1491  0.9078
15223TIP3    H267085   1.597   3.643   2.462 -1.4168 -0.2527  0.8579
15224TIP3   OH267086   4.525   1.789   4.754 -0.2728  0.2135  0.1953
15224TIP3    H167087   4.556   1.715   4.701  0.5647 -0.9428  2.2049
15224TIP3    H267088   4.436   1.764   4.781 -0.4242  0.4795 -0.0433
15225TIP3   OH267089   5.704   4.225   3.492  0.0644  0.0324 -0.1586
15225TIP3    H167090   5.706   4.256   3.582 -1.0115  0.6616 -0.3387
15225TIP3    H267091   5.699   4.305   3.439  1.7881 -0.2744 -0.8400
15226TIP3   OH267092   0.440   4.693  17.148  0.2840  0.1614  0.6830
15226TIP3    H167093   0.380   4.709  17.076 -0.0268 -1.6146  0.5192
15226TIP3    H267094   0.400   4.739  17.222 -1.3812 -1.0840  0.6151
15227TIP3   OH267095   5.560   2.941  11.457 -0.5305 -0.5751  0.1892
15227TIP3    H167096   5.636   2.887  11.435 -0.5452 -0.5732  0.1349
15227TIP3    H267097   5.554   3.004  11.385 -0.5342 -0.5230  0.2344
15228TIP3   OH267098   4.134   2.726   4.760  0.0316  0.5364 -0.0104
15228TIP3    H167099   4.146   2.725   4.665  0.5637  0.1462  0.0537
15228TIP3    H267100   4.211   2.681   4.794 -0.9265 -0.7722  0.5219
15229TIP3   OH267101   2.033   4.838   2.373  0.6797 -0.5115  0.0527
15229TIP3    H167102   2.102   4.904   2.382 -0.4993  0.6143  1.3483
15229TIP3    H267103   1.952   4.888   2.376 -0.2348 -1.9222 -0.2609
15230TIP3   OH267104   6.072   4.006  15.587 -0.1247  0.6190 -0.5383
15230TIP3    H167105   6.092   4.031  15.677  1.1119  0.6852 -0.8258
15230TIP3    H267106   6.122   3.926  15.572 -2.5048 -1.0206 -0.2710
15231TIP3   OH267107   0.592   6.470   3.268 -0.1992 -0.0118  0.0352
15231TIP3    H167108   0.581   6.374   3.266  0.5997 -0.1038 -0.4825
15231TIP3    H267109   0.592   6.495   3.175 -3.1337  0.8517  0.1536
15232TIP3   OH267110   0.860   5.696   1.634  0.2901 -0.1131  0.1939
15232TIP3    H167111   0.847   5.774   1.689  2.7273  0.8089 -0.4220
15232TIP3    H267112   0.954   5.680   1.638  0.1978 -1.4289 -1.8481
15233TIP3   OH267113   2.190   1.519   2.813  0.0128 -0.1123 -0.9772
15233TIP3    H167114   2.165   1.557   2.729 -0.4941  1.7920  0.0060
15233TIP3    H267115   2.107   1.500   2.857  0.2722 -0.0026 -0.4323
15234TIP3   OH267116   4.542   2.736  10.819 -0.5363  0.3458 -0.1068
15234TIP3    H167117   4.473   2.802  10.813  0.5163  1.5362  0.6329
15234TIP3    H267118   4.502   2.665  10.869 -0.7595  1.6966  1.7174
15235TIP3   OH267119   0.472   5.620   2.681  0.2094  0.1448  0.5391
15235TIP3    H167120   0.549   5.566   2.701 -0.0239 -1.2689 -1.9483
15235TIP3    H267121   0.507   5.706   2.661  0.8267  0.3219  2.2285
15236TIP3   OH267122   4.485   1.523  14.089  0.2943 -0.0009  0.2394
15236TIP3    H167123   4.391   1.516  14.106  0.3957 -1.2790  0.3586
15236TIP3    H267124   4.502   1.456  14.022  1.0404  0.5554 -0.1474
15237TIP3   OH267125   0.547   1.385  14.560 -0.2868  0.1083  0.1336
15237TIP3    H167126   0.512   1.446  14.625 -1.6373  0.7092 -1.0839
15237TIP3    H267127   0.485   1.391  14.487  0.7210 -1.1619 -0.8670
15238TIP3   OH267128   2.157   2.101   4.483  0.0265 -0.4556 -0.2365
15238TIP3    H167129   2.094   2.065   4.421  0.2835 -0.3267 -0.5736
15238TIP3    H267130   2.178   2.188   4.449 -0.1425 -0.2183  0.2514
15239TIP3   OH267131   4.832   2.186  12.488 -0.1972  0.2975 -0.1641
15239TIP3    H167132   4.853   2.273  12.522  0.2610 -0.0660  0.5097
15239TIP3    H267133   4.741   2.171  12.515 -0.4084  0.7198 -0.6240
15240TIP3   OH267134   4.278   3.609   0.219  0.2678  0.2103 -0.2656
15240TIP3    H167135   4.221   3.675   0.259  0.6258 -0.6656  1.8530
15240TIP3    H267136   4.359   3.656   0.200 -0.1074  0.7832 -0.4630
15241TIP3   OH267137   2.843   5.335   5.116 -0.2674 -0.7255 -0.2323
15241TIP3    H167138   2.779   5.264   5.114 -0.6060 -0.4937  1.2905
15241TIP3    H267139   2.793   5.413   5.092 -0.3620 -0.6752  0.1312
15242TIP3   OH267140   0.490   3.359   2.679 -0.1124 -0.0462 -0.2638
15242TIP3    H167141   0.505   3.322   2.592 -1.0085 -1.2964  0.0926
15242TIP3    H267142   0.438   3.438   2.663 -0.2072 -0.2284 -0.8643
15243TIP3   OH267143   0.471   1.407   6.261  0.3024 -0.1039  0.3051
15243TIP3    H167144   0.434   1.383   6.176 -1.2333  1.5941  0.4399
15243TIP3    H267145   0.548   1.460   6.239  2.0109 -2.5030  0.0354
15244TIP3   OH267146   2.268   4.419   2.183 -0.0218  0.0024 -0.1273
15244TIP3    H167147   2.198   4.473   2.148 -0.7750 -0.4934  0.5729
15244TIP3    H267148   2.348   4.462   2.154 -0.5711  2.0067  1.1245
15245TIP3   OH267149   2.804   5.810  14.046  0.2771 -0.0497 -0.0305
15245TIP3    H167150   2.755   5.870  13.990  1.6394 -0.4447 -1.7374
15245TIP3    H267151   2.861   5.866  14.098  0.3527  0.2231 -0.4053
15246TIP3   OH267152   4.606   1.729   2.242  0.2380 -0.4837 -0.2605
15246TIP3    H167153   4.639   1.819   2.236 -0.1409 -0.4471 -3.0061
15246TIP3    H267154   4.644   1.695   2.323  1.0347  1.8668  0.4479
15247TIP3   OH267155   2.215   0.078  12.971  0.0703  0.0644 -0.1007
15247TIP3    H167156   2.213   0.060  13.065  1.7815  1.2329  0.2012
15247TIP3    H267157   2.175   0.165  12.963  0.1527  0.0718 -0.4249
15248TIP3   OH267158   2.024   4.735   5.923  0.1736  0.2978 -0.2678
15248TIP3    H167159   2.067   4.653   5.948 -0.2138 -0.0154 -0.6169
15248TIP3    H267160   1.941   4.735   5.972 -0.4701 -0.1946 -1.3277
15249TIP3   OH267161   3.358   0.427  11.843 -0.7591  0.4407 -0.9110
15249TIP3    H167162   3.370   0.412  11.749  0.2669  2.8085 -1.2268
15249TIP3    H267163   3.442   0.463  11.873 -1.6029  1.3051  0.5540
15250TIP3   OH267164   6.470   5.826  16.547 -0.1692  0.5517 -0.2755
15250TIP3    H167165   6.468   5.853  16.639  0.1058 -2.0881  0.6014
15250TIP3    H267166   6.560   5.795  16.533 -0.3421  0.4808 -1.2886
15251TIP3   OH267167   3.389   6.576  14.079  0.1829 -0.2437 -0.1664
15251TIP3    H167168   3.420   6.629  14.006  2.8935 -0.2929  0.8122
15251TIP3    H267169   3.312   6.621  14.112 -1.3075 -0.3843 -3.1753
15252TIP3   OH267170   2.475   4.526   4.864  0.2693  0.2783  0.1799
15252TIP3    H167171   2.466   4.533   4.769 -0.3364  0.3785  0.2376
15252TIP3    H267172   2.422   4.450   4.887  0.5988  0.1200  0.4134
15253TIP3   OH267173   5.617   1.160   5.529  0.1521  0.1792  0.5807
15253TIP3    H167174   5.704   1.153   5.567  0.6180 -0.9566 -0.6257
15253TIP3    H267175   5.563   1.100   5.581  0.0814  0.8328  1.2832
15254TIP3   OH267176   5.341   2.031  16.301  0.2394  0.4803 -0.6201
15254TIP3    H167177   5.379   1.974  16.368 -1.2742 -1.8786 -1.6383
15254TIP3    H267178   5.416   2.065  16.254  1.4639  3.1762  2.8402
15255TIP3   OH267179   2.401   5.233  11.103  0.2925 -0.5346  0.0406
15255TIP3    H167180   2.375   5.148  11.068  1.4296 -0.7271 -0.3747
15255TIP3    H267181   2.479   5.257  11.053  0.0449  0.7137  0.2164
15256TIP3   OH267182   3.041   3.518   2.642  0.3210 -1.2446 -0.4907
15256TIP3    H167183   2.945   3.515   2.639  0.2382 -1.1677  1.1176
15256TIP3    H267184   3.068   3.426   2.639  0.2571 -1.2311 -1.8721
15257TIP3   OH267185   0.339   6.445   1.204  0.4693 -0.2605  0.1053
15257TIP3    H167186   0.369   6.535   1.197 -2.6155  1.0522  1.6602
15257TIP3    H267187   0.272   6.437   1.136 -0.9231 -0.5606  1.4616
15258TIP3   OH267188   5.649   4.398  13.662 -0.0649 -0.4926 -0.3803
15258TIP3    H167189   5.720   4.393  13.725  0.5193  1.2291 -0.8528
15258TIP3    H267190   5.647   4.490  13.635 -2.0253 -0.6444 -0.8893
15259TIP3   OH267191   3.340   0.332   4.211  0.2861 -0.3027  1.0423
15259TIP3    H167192   3.319   0.413   4.257 -1.7755  0.6384 -1.3035
15259TIP3    H267193   3.265   0.275   4.226  0.1460 -0.4396 -0.0512
15260TIP3   OH267194   1.392   4.836  14.865 -0.2576 -0.4075  0.2443
15260TIP3    H167195   1.381   4.788  14.947 -0.9816 -0.3218  0.2071
15260TIP3    H267196   1.480   4.814  14.836 -0.5574 -1.6848  0.2498
15261TIP3   OH267197   2.621   0.970   1.493  0.4145 -1.4309 -0.3626
15261TIP3    H167198   2.576   0.962   1.410  0.1931  0.1140 -0.4132
15261TIP3    H267199   2.669   1.052   1.487 -2.2146  0.4922  2.2017
15262TIP3   OH267200   5.567   3.090  16.595  0.2237  0.3818 -0.6896
15262TIP3    H167201   5.498   3.045  16.548 -0.1694  1.9235 -1.6669
15262TIP3    H267202   5.648   3.059  16.554  0.2083 -1.7754  0.7665
15263TIP3   OH267203   3.922   5.732   3.485 -0.1974 -0.2919 -0.0470
15263TIP3    H167204   3.958   5.787   3.554  0.0807 -1.4600  0.7779
15263TIP3    H267205   3.863   5.672   3.530  0.2052 -1.2680 -0.7615
15264TIP3   OH267206   3.946   0.586   5.976  0.6457  0.2414  0.4074
15264TIP3    H167207   3.901   0.671   5.978  1.1714  0.5091  1.7777
15264TIP3    H267208   4.031   0.606   5.937  0.3358  0.0998 -0.3699
15265TIP3   OH267209   2.672   1.831   1.334  0.2114 -0.0314 -0.3880
15265TIP3    H167210   2.677   1.791   1.247 -0.7500  0.9785 -0.9328
15265TIP3    H267211   2.763   1.836   1.363  0.4813 -1.0668 -1.0102
15266TIP3   OH267212   3.517   0.422  13.963 -0.3244 -0.1054 -0.9495
15266TIP3    H167213   3.467   0.480  14.021 -1.4380 -1.1427 -0.8307
15266TIP3    H267214   3.460   0.346  13.951  1.2376 -1.3360 -0.8265
15267TIP3   OH267215   6.507   3.825  14.921  0.1726 -0.1505 -0.0127
15267TIP3    H167216   6.447   3.772  14.973  1.6942  0.3412  2.3816
15267TIP3    H267217   6.565   3.761  14.879  1.2627 -0.5363  1.9360
15268TIP3   OH267218   1.989   3.710  15.929  0.2261  0.2294 -0.1448
15268TIP3    H167219   2.072   3.736  15.889  0.1456 -0.7338 -0.9643
15268TIP3    H267220   2.012   3.636  15.986 -0.2101 -0.6632 -1.1098
15269TIP3   OH267221   1.078   5.243   4.722 -0.1110  0.5282 -0.6433
15269TIP3    H167222   1.074   5.147   4.718 -1.2315  0.5861 -1.4832
15269TIP3    H267223   0.998   5.268   4.769 -0.8265  1.1153 -2.1187
15270TIP3   OH267224   2.164   5.029  11.374  0.2984 -0.8482 -0.1658
15270TIP3    H167225   2.257   5.045  11.391  0.3304 -1.1700 -0.0190
15270TIP3    H267226   2.135   5.105  11.325  0.9245 -1.3054 -1.2743
15271TIP3   OH267227   1.640   1.458  16.511  0.3766  0.4685 -0.0416
15271TIP3    H167228   1.616   1.405  16.435  1.7902 -0.7610  0.3200
15271TIP3    H267229   1.720   1.503  16.484  2.9014 -2.5683  1.7064
15272TIP3   OH267230   1.172   3.492  15.069 -0.0163  0.4394 -0.1881
15272TIP3    H167231   1.118   3.525  15.140 -0.3101  1.6206 -0.9344
15272TIP3    H267232   1.201   3.405  15.099 -2.3383 -0.2665  0.2289
15273TIP3   OH267233   1.668   0.147   3.909  0.8479 -0.3162 -0.5482
15273TIP3    H167234   1.717   0.066   3.899 -0.3135 -1.1651  0.4249
15273TIP3    H267235   1.709   0.192   3.982  0.7201 -0.6244 -0.2844
15274TIP3   OH267236   4.643   2.424   6.559  0.4919 -0.2187  0.8124
15274TIP3    H167237   4.684   2.387   6.637  2.7765  0.3413 -0.0492
15274TIP3    H267238   4.575   2.483   6.592  0.1824 -1.3622  2.2946
15275TIP3   OH267239   4.832   3.686  12.595 -0.3767 -0.1424 -0.4634
15275TIP3    H167240   4.808   3.593  12.599 -0.9248  0.0440  1.3982
15275TIP3    H267241   4.828   3.707  12.502 -1.6794 -1.6182 -0.7969
15276TIP3   OH267242   5.953   3.859  12.327  0.0669 -0.0879  0.3240
15276TIP3    H167243   5.895   3.853  12.251 -0.6007  0.3382  0.7924
15276TIP3    H267244   5.961   3.768  12.357  0.0912 -0.2206 -0.0716
15277TIP3   OH267245   6.230   0.881   5.571  0.5205 -0.0249 -0.0489
15277TIP3    H167246   6.313   0.889   5.617 -0.5117 -0.6884  2.0469
15277TIP3    H267247   6.224   0.788   5.547 -0.1628 -0.2462  0.9403
15278TIP3   OH267248   2.374   4.613   5.855 -0.7916  0.5198 -0.0769
15278TIP3    H167249   2.432   4.664   5.912  1.7772 -1.4956 -0.6967
15278TIP3    H267250   2.349   4.537   5.908 -0.3302 -0.1580 -0.8121
15279TIP3   OH267251   1.644   2.317   2.519  0.8519  0.2491  0.3985
15279TIP3    H167252   1.556   2.294   2.548  0.2818  2.8172  1.0009
15279TIP3    H267253   1.660   2.262   2.443  0.5466 -3.4265  2.7328
15280TIP3   OH267254   2.318   5.656   5.450  0.5845 -0.0463 -0.4600
15280TIP3    H167255   2.278   5.742   5.437 -0.0119 -0.2478  0.0044
15280TIP3    H267256   2.245   5.599   5.473  0.7263 -1.0244 -2.2161
15281TIP3   OH267257   3.447   4.067  13.060  0.2300 -0.5639  0.3115
15281TIP3    H167258   3.354   4.053  13.046 -0.0751  0.9575  0.5900
15281TIP3    H267259   3.484   4.077  12.972 -0.0456 -0.2167  0.2338
15282TIP3   OH267260   2.850   4.325  12.750  0.0145 -0.4049  0.2453
15282TIP3    H167261   2.831   4.299  12.660 -0.3123 -0.7352  0.4053
15282TIP3    H267262   2.895   4.249  12.787 -0.4889 -0.5439  0.5699
15283TIP3   OH267263   5.132   4.671   1.086  0.0717 -0.2600  0.0017
15283TIP3    H167264   5.049   4.659   1.132 -2.2349  2.3401 -3.0013
15283TIP3    H267265   5.177   4.740   1.136  0.3394 -1.4384  1.4487
15284TIP3   OH267266   3.232   1.843  11.925  0.1955 -0.1490 -0.4460
15284TIP3    H167267   3.278   1.793  11.857  0.9731  0.4169 -0.3480
15284TIP3    H267268   3.215   1.780  11.994  0.0680 -0.5619 -0.8511
15285TIP3   OH267269   0.127   6.029   1.954 -0.3995 -0.3451 -0.6208
15285TIP3    H167270   0.217   6.039   1.923 -0.3432 -0.4574 -0.4957
15285TIP3    H267271   0.094   6.119   1.960 -0.3000 -0.3036 -0.6782
15286TIP3   OH267272   0.710   2.779   1.934 -0.4699  0.0236  0.2687
15286TIP3    H167273   0.661   2.746   1.859  0.5202 -0.9314  0.0224
15286TIP3    H267274   0.723   2.872   1.916  0.9636 -0.4616 -1.4453
15287TIP3   OH267275   4.077   3.188  13.082  0.3242 -0.2701  0.5867
15287TIP3    H167276   4.070   3.101  13.122 -0.3183 -0.1640  0.7283
15287TIP3    H267277   4.155   3.184  13.028  0.3781 -0.8944  0.7040
15288TIP3   OH267278   1.933   1.263   6.097 -0.5090 -0.9622 -0.5971
15288TIP3    H167279   1.949   1.300   6.184  1.3468 -0.5331 -1.0756
15288TIP3    H267280   1.846   1.294   6.073  0.3673  1.9009 -0.3556
15289TIP3   OH267281   1.240   4.548   2.985  0.6674 -0.1705  0.1090
15289TIP3    H167282   1.213   4.612   2.920  2.1193  1.3868  0.9506
15289TIP3    H267283   1.333   4.567   3.000  1.2116 -2.6074  0.2693
15290TIP3   OH267284   5.157   4.340   5.944  0.5456  0.2648 -0.0601
15290TIP3    H167285   5.141   4.329   6.037  0.6345 -0.5671 -0.1319
15290TIP3    H267286   5.215   4.416   5.937  2.4898 -1.0783  0.7508
15291TIP3   OH267287   6.627   1.578  14.602 -0.3522 -0.4024 -0.5288
15291TIP3    H167288   6.700   1.629  14.566 -0.6836  0.0470 -0.5814
15291TIP3    H267289   6.631   1.595  14.696 -0.9699  0.4110 -0.6382
15292TIP3   OH267290   4.890   1.681  14.729  0.0849  0.0842 -0.2676
15292TIP3    H167291   4.933   1.683  14.814 -1.6233 -0.2929  0.6506
15292TIP3    H267292   4.864   1.772  14.713  2.3102  0.5930 -1.4797
15293TIP3   OH267293   4.035   6.353   1.602 -0.5555 -0.3247 -0.3418
15293TIP3    H167294   3.959   6.354   1.545 -0.3725 -0.4479 -0.5932
15293TIP3    H267295   4.096   6.292   1.559  0.7924  1.7549 -1.5961
15294TIP3   OH267296   4.083   5.995  16.940  1.2209 -0.3907  0.2351
15294TIP3    H167297   4.154   5.939  16.972  0.4123 -0.8418  1.3491
15294TIP3    H267298   4.052   5.952  16.861  1.4540 -0.8151  0.3703
15295TIP3   OH267299   0.401   1.725  15.950  0.3344  0.1477  0.2646
15295TIP3    H167300   0.357   1.808  15.964 -0.7640  0.0539 -2.2045
15295TIP3    H267301   0.416   1.691  16.039 -0.3505  2.3378  1.2901
15296TIP3   OH267302   5.607   5.336   5.774 -0.6098  0.7368  0.0321
15296TIP3    H167303   5.606   5.252   5.729 -0.7537 -0.5085  2.2191
15296TIP3    H267304   5.517   5.367   5.770 -1.2674 -0.7688  1.8344
15297TIP3   OH267305   4.526   2.665  13.117  0.0992  0.1203  0.4109
15297TIP3    H167306   4.484   2.636  13.036  3.9438  1.7078 -2.4462
15297TIP3    H267307   4.551   2.585  13.162  0.2683 -0.8640 -1.3577
15298TIP3   OH267308   5.283   4.663  11.081 -0.2817  0.6935 -0.1987
15298TIP3    H167309   5.287   4.656  10.985 -0.7331 -2.0518 -0.1119
15298TIP3    H267310   5.197   4.702  11.099 -0.1979  1.2178 -0.9125
15299TIP3   OH267311   3.186   4.642   5.422 -0.1292  0.3656 -0.0323
15299TIP3    H167312   3.187   4.735   5.400  0.4044  0.5596  0.7717
15299TIP3    H267313   3.278   4.616   5.422 -0.3381 -0.5097 -1.5992
15300TIP3   OH267314   5.962   4.114  12.084 -0.0782 -0.0468 -0.1760
15300TIP3    H167315   5.890   4.052  12.091 -0.8106  0.8164  0.2621
15300TIP3    H267316   5.953   4.170  12.162  1.3562 -0.2178  0.1349
15301TIP3   OH267317   1.621   5.307  16.588  0.3691  0.4305 -0.0582
15301TIP3    H167318   1.707   5.302  16.547 -0.4737 -3.1425 -1.7783
15301TIP3    H267319   1.628   5.254  16.667 -0.0103  0.9331  0.3214
15302TIP3   OH267320   1.933   5.323   1.744 -0.5650 -0.2115 -0.4505
15302TIP3    H167321   1.994   5.379   1.791 -0.1016 -1.4291  0.4571
15302TIP3    H267322   1.940   5.238   1.787 -0.6972 -1.1804 -2.2209
15303TIP3   OH267323   0.864   4.044   5.894  0.1239  0.3699 -0.0849
15303TIP3    H167324   0.893   4.114   5.953  1.2127  1.4929 -1.8699
15303TIP3    H267325   0.932   3.977   5.900 -0.1656  0.1156  0.4888
15304TIP3   OH267326   6.138   3.615  15.812 -0.3867  0.7903  0.2944
15304TIP3    H167327   6.144   3.520  15.812  2.4092  0.9011  0.1216
15304TIP3    H267328   6.117   3.637  15.721  1.6413  0.3898 -0.3201
15305TIP3   OH267329   2.538   3.592   3.080  0.7532 -0.0425  0.0563
15305TIP3    H167330   2.507   3.501   3.079  0.5864 -0.0712  2.3142
15305TIP3    H267331   2.576   3.603   3.168  1.0517  1.9804 -0.2851
15306TIP3   OH267332   2.469   3.958   6.176  0.0822 -0.1184 -0.1231
15306TIP3    H167333   2.451   3.903   6.253 -1.3452 -0.4684 -0.6827
15306TIP3    H267334   2.398   4.022   6.175  0.8293  0.7254 -0.4152
15307TIP3   OH267335   2.169   5.781   3.120  0.7904 -0.2158 -0.4928
15307TIP3    H167336   2.225   5.839   3.172  0.5782  0.6737 -1.2342
15307TIP3    H267337   2.228   5.712   3.090  1.2983  0.2317 -0.5429
15308TIP3   OH267338   4.606   2.988   0.457 -0.0218 -0.3764  0.2401
15308TIP3    H167339   4.533   2.993   0.395  2.9204 -0.1496 -3.6638
15308TIP3    H267340   4.645   2.902   0.440  2.4690  0.7769 -0.3540
15309TIP3   OH267341   6.717   5.691  16.503  0.0498 -0.0421 -0.4530
15309TIP3    H167342   6.671   5.646  16.432  2.1454 -1.1109 -1.1907
15309TIP3    H267343   6.808   5.694  16.475  0.5573  1.5949  1.1768
15310TIP3   OH267344   0.305   4.124   4.669 -0.4151  0.1121  0.2884
15310TIP3    H167345   0.392   4.088   4.689 -1.0994 -0.6741  2.1297
15310TIP3    H267346   0.291   4.104   4.577  0.7573 -1.0709  0.3359
15311TIP3   OH267347   1.442   4.739  12.459  0.6987  0.1550  0.1833
15311TIP3    H167348   1.499   4.687  12.402  1.4963 -0.7218  1.7178
15311TIP3    H267349   1.477   4.726  12.547  0.0242  2.1571  0.7998
15312TIP3   OH267350   3.155   1.682  12.892  0.4125  0.1946 -0.3510
15312TIP3    H167351   3.090   1.706  12.826 -0.4184  2.1431  1.0862
15312TIP3    H267352   3.224   1.637  12.842 -1.2933 -0.5808 -2.1356
15313TIP3   OH267353   0.255   2.407   2.766 -0.1965  0.4077  0.2641
15313TIP3    H167354   0.269   2.327   2.715  0.3041  0.3133  0.5406
15313TIP3    H267355   0.274   2.478   2.706 -1.3760  0.3444 -0.2065
15314TIP3   OH267356   0.270   4.443  16.262  0.9882  0.1754 -0.1975
15314TIP3    H167357   0.339   4.509  16.264  2.0261 -0.7237 -2.2682
15314TIP3    H267358   0.316   4.359  16.271 -0.1064 -0.3483  0.7340
15315TIP3   OH267359   6.442   0.958   1.288 -0.4840 -0.0776  0.2020
15315TIP3    H167360   6.377   1.010   1.241 -2.6731 -0.9292  2.0593
15315TIP3    H267361   6.462   0.885   1.230 -1.1758  0.2422 -0.4514
15316TIP3   OH267362   3.874   3.347   3.910  0.2007 -0.4432  0.2391
15316TIP3    H167363   3.807   3.328   3.844  1.9867 -0.0965 -1.7693
15316TIP3    H267364   3.955   3.314   3.873  1.4392  0.5618  1.8950
15317TIP3   OH267365   1.555   1.767   1.251 -0.0143  0.0974 -0.3547
15317TIP3    H167366   1.531   1.834   1.315  0.3434  0.3159 -0.4425
15317TIP3    H267367   1.492   1.778   1.180 -2.0493 -1.8033  1.0205
15318TIP3   OH267368   0.479   3.730   4.608  0.4949 -0.0809 -0.1611
15318TIP3    H167369   0.403   3.695   4.655  0.8008 -0.5503 -0.0135
15318TIP3    H267370   0.476   3.688   4.522  0.1579  0.4813 -0.4297
15319TIP3   OH267371   1.365   4.882   2.247 -0.1978 -0.4803 -0.6083
15319TIP3    H167372   1.403   4.871   2.160 -0.6310  0.8655 -1.0013
15319TIP3    H267373   1.440   4.896   2.305  0.1540 -2.2714 -0.5794
15320TIP3   OH267374   4.518   2.713   1.750 -0.4971 -0.3140  0.0568
15320TIP3    H167375   4.595   2.751   1.708  0.3343 -0.2064  1.6093
15320TIP3    H267376   4.500   2.634   1.699  0.5936 -0.3017 -0.3816
15321TIP3   OH267377   2.857   6.095   3.720  0.0302  0.3284  0.1720
15321TIP3    H167378   2.795   6.052   3.779 -0.6177  1.0504  0.0205
15321TIP3    H267379   2.937   6.104   3.773 -0.7762  1.6763  1.2493
15322TIP3   OH267380   1.319   6.017   1.557  0.2916  0.5469  0.1723
15322TIP3    H167381   1.334   5.997   1.465  0.8996  0.1106  0.3576
15322TIP3    H267382   1.232   6.058   1.559 -0.5730 -1.1688 -0.3593
15323TIP3   OH267383   5.903   0.589  16.049 -0.0606 -0.5921  1.0493
15323TIP3    H167384   5.933   0.592  15.959 -0.0797  0.4781  1.0681
15323TIP3    H267385   5.850   0.509  16.054 -0.1337 -0.6150  0.0933
15324TIP3   OH267386   6.232   6.775   4.222  0.1454  0.1829 -0.4618
15324TIP3    H167387   6.207   6.867   4.215 -0.2548  0.3320  2.1210
15324TIP3    H267388   6.317   6.776   4.265 -0.9321 -0.6633  1.8105
15325TIP3   OH267389   5.098   4.016   2.383 -0.2158  0.5450  0.4266
15325TIP3    H167390   5.132   4.106   2.378  1.7707 -0.2100 -2.0970
15325TIP3    H267391   5.167   3.967   2.427 -0.7319  0.0250  0.6635
15326TIP3   OH267392   1.355   0.101   0.613 -0.0292 -0.1469  0.1435
15326TIP3    H167393   1.384   0.072   0.699  0.3826  0.0902  0.0892
15326TIP3    H267394   1.299   0.030   0.581  0.9221 -0.8598  0.0294
15327TIP3   OH267395   5.746   2.293   4.739 -0.5201 -0.1191  0.0329
15327TIP3    H167396   5.717   2.317   4.827  1.2343 -0.0682  0.6551
15327TIP3    H267397   5.713   2.363   4.683 -0.2109  0.7843  0.9353
15328TIP3   OH267398   2.523   4.282  13.328 -0.3551  0.4356  0.3524
15328TIP3    H167399   2.459   4.213  13.350 -0.5949  1.0107  1.5878
15328TIP3    H267400   2.581   4.241  13.264  0.8385 -1.7172  2.5829
15329TIP3   OH267401   5.027   4.275  15.836 -0.2763  0.0316 -0.2785
15329TIP3    H167402   5.041   4.359  15.879  0.0341  0.1702 -0.6411
15329TIP3    H267403   5.115   4.240  15.824 -0.4598 -1.2774  1.6578
15330TIP3   OH267404   6.534   3.221   1.689 -0.1899 -0.1473  0.4094
15330TIP3    H167405   6.475   3.256   1.622  0.5322 -0.7765 -0.5823
15330TIP3    H267406   6.621   3.252   1.662  0.0549 -0.0085  1.3350
15331TIP3   OH267407   3.178   0.647  11.862  0.0629 -0.8844 -0.2363
15331TIP3    H167408   3.248   0.583  11.852  0.4688 -0.5517  0.4108
15331TIP3    H267409   3.166   0.683  11.774  0.8655 -0.7825 -0.3103
15332TIP3   OH267410   0.854   1.938   3.921  0.3112 -0.0531  0.0253
15332TIP3    H167411   0.932   1.924   3.975  0.5583 -2.4366 -0.8434
15332TIP3    H267412   0.789   1.973   3.981  0.7197 -2.1444  1.8149
15333TIP3   OH267413   0.441   3.087   5.228 -0.3237  0.4827 -0.4293
15333TIP3    H167414   0.438   3.157   5.163 -1.3935  0.4018 -0.4836
15333TIP3    H267415   0.356   3.092   5.273  0.1393  0.1165  0.5152
15334TIP3   OH267416   1.504   6.631  16.044  0.0242 -0.6291  0.1745
15334TIP3    H167417   1.420   6.588  16.028 -0.2682 -0.0986  0.2928
15334TIP3    H267418   1.501   6.656  16.136 -0.4278  0.9936 -0.2505
15335TIP3   OH267419   1.459   5.822  15.902 -0.3574 -0.3848 -0.3104
15335TIP3    H167420   1.420   5.890  15.956  0.6828 -0.8082  1.0179
15335TIP3    H267421   1.385   5.766  15.876 -0.9478  0.1560  0.1867
15336TIP3   OH267422   0.812   1.501  11.844 -0.0691 -0.3651  0.4008
15336TIP3    H167423   0.822   1.582  11.793 -1.3872 -0.1614  0.4356
15336TIP3    H267424   0.900   1.482  11.877  0.7529 -0.3264 -1.6700
15337TIP3   OH267425   3.489   1.107  11.799 -0.1797  0.0786  0.1292
15337TIP3    H167426   3.426   1.155  11.746 -0.2719 -0.3859 -0.1932
15337TIP3    H267427   3.544   1.061  11.735 -0.4419 -0.6774  0.4313
15338TIP3   OH267428   2.963   3.600   0.120  0.3336 -0.2345 -0.0166
15338TIP3    H167429   2.984   3.645   0.202 -0.5742  0.4696 -0.1460
15338TIP3    H267430   2.934   3.670   0.061  0.6002 -0.7815 -0.8088
15339TIP3   OH267431   0.830   5.376   4.524 -0.9372  0.2454 -0.0088
15339TIP3    H167432   0.844   5.368   4.618  1.3878 -0.9671 -0.3790
15339TIP3    H267433   0.857   5.292   4.489 -2.5964  0.3633 -1.7226
15340TIP3   OH267434   0.787   0.350   4.740  0.0652  0.4214 -0.5820
15340TIP3    H167435   0.860   0.394   4.697  2.2231 -1.7104  0.6493
15340TIP3    H267436   0.799   0.257   4.718 -3.3802  0.1227 -1.8214
15341TIP3   OH267437   6.783   4.566  11.540 -0.4476 -0.0809 -0.4139
15341TIP3    H167438   6.809   4.475  11.547 -1.5176 -0.4886 -1.3707
15341TIP3    H267439   6.858   4.610  11.501 -0.3471 -0.7947 -1.0385
15342TIP3   OH267440   2.436   1.041  12.092  0.0396  0.0351  0.5419
15342TIP3    H167441   2.473   0.961  12.129  0.4049  0.9089  2.1398
15342TIP3    H267442   2.356   1.056  12.141 -0.5401  0.1297 -0.4215
15343TIP3   OH267443   5.937   1.602   1.926  0.0660 -0.2030  0.5957
15343TIP3    H167444   6.023   1.562   1.916  0.2171  0.0772  0.7575
15343TIP3    H267445   5.891   1.544   1.987 -0.7750 -1.7769 -1.4052
15344TIP3   OH267446   3.796   6.023  15.160 -0.3973 -0.4161  0.0958
15344TIP3    H167447   3.786   6.061  15.247  2.5396 -0.6611  0.6699
15344TIP3    H267448   3.880   5.976  15.164 -0.4081 -0.8907 -2.7078
15345TIP3   OH267449   5.383   0.729  16.217  0.8130 -0.1579  0.2044
15345TIP3    H167450   5.469   0.689  16.224  1.3824  0.6209 -1.5160
15345TIP3    H267451   5.352   0.703  16.130 -0.3178  0.2785  0.4576
15346TIP3   OH267452   4.330   2.556   3.075 -0.0933 -0.1314 -0.0535
15346TIP3    H167453   4.302   2.636   3.118  0.7473  0.7024 -1.0087
15346TIP3    H267454   4.274   2.548   2.998 -1.2906 -1.3811  0.8893
15347TIP3   OH267455   2.563   1.815   4.867 -0.0318  0.1261 -0.3215
15347TIP3    H167456   2.568   1.835   4.961  0.6884  0.7305 -0.4760
15347TIP3    H267457   2.469   1.817   4.847 -0.2718 -0.8879  0.5541
15348TIP3   OH267458   3.874   0.314   3.934 -0.1129 -0.3417  0.0860
15348TIP3    H167459   3.854   0.238   3.879 -2.0102 -1.8203  2.5713
15348TIP3    H267460   3.966   0.305   3.956 -0.4210 -2.3393  0.7848
15349TIP3   OH267461   4.108   1.106   0.052  0.0207  0.1031 -0.2563
15349TIP3    H167462   4.045   1.171   0.020 -1.1538 -1.1483 -0.6155
15349TIP3    H267463   4.107   1.117   0.147  0.9032  1.5205 -0.3844
15350TIP3   OH267464   2.614   1.775  13.022  0.3952  0.7482 -0.4223
15350TIP3    H167465   2.605   1.758  13.115 -0.7456  0.0755 -0.6397
15350TIP3    H267466   2.590   1.867  13.011 -1.7809  0.2469 -0.3298
15351TIP3   OH267467   5.389   2.175   1.264  0.0092  0.5468 -0.0155
15351TIP3    H167468   5.372   2.081   1.260 -0.5874  0.6907 -1.0871
15351TIP3    H267469   5.357   2.210   1.181 -0.4412  1.8045  0.6463
15352TIP3   OH267470   2.196   6.291  12.741  0.4693 -0.0246  0.7624
15352TIP3    H167471   2.204   6.367  12.683  1.6122 -0.3506  0.4645
15352TIP3    H267472   2.126   6.314  12.802 -0.3826  0.5485 -0.4059
15353TIP3   OH267473   2.636   3.924   2.915 -0.1405  0.1363 -0.4153
15353TIP3    H167474   2.694   3.952   2.844  1.2983  0.3845  0.7928
15353TIP3    H267475   2.556   3.974   2.902  0.0859  0.1490 -1.8704
15354TIP3   OH267476   3.620   0.694  13.008  0.2627  1.3069 -0.6798
15354TIP3    H167477   3.706   0.672  13.044  0.8137  0.6961 -2.2551
15354TIP3    H267478   3.599   0.779  13.045  0.5652  0.5355  1.3911
15355TIP3   OH267479   4.664   0.315   0.552 -0.2792  0.3519  0.1336
15355TIP3    H167480   4.713   0.394   0.578 -0.5104  0.6017 -0.1846
15355TIP3    H267481   4.730   0.247   0.546 -0.2179  0.2750  1.4166
15356TIP3   OH267482   1.347   3.051  12.314 -0.3305 -0.0941 -0.1008
15356TIP3    H167483   1.398   3.013  12.242 -2.3276  0.7047 -2.0508
15356TIP3    H267484   1.259   3.016  12.302 -1.1404  1.5228  0.8241
15357TIP3   OH267485   1.978   0.042   2.985 -0.5871 -0.0339 -0.4943
15357TIP3    H167486   1.925  -0.037   2.976 -2.0851  1.0453 -1.5300
15357TIP3    H267487   1.946   0.101   2.917  0.5437  1.4521  0.2018
15358TIP3   OH267488   3.354   2.333  16.820  0.2250  0.1326  0.4468
15358TIP3    H167489   3.420   2.265  16.807  1.2707  0.9279  1.4054
15358TIP3    H267490   3.329   2.360  16.732  1.5959  0.1860  0.0567
15359TIP3   OH267491   4.926   6.580  10.784 -0.1642 -0.1001  0.2582
15359TIP3    H167492   4.956   6.627  10.706  0.5840  0.2502  0.7382
15359TIP3    H267493   4.918   6.489  10.756 -2.1488  0.3623 -0.8272
15360TIP3   OH267494   1.754   2.555   2.404 -0.1613 -0.6827  0.3922
15360TIP3    H167495   1.730   2.478   2.457  0.7471 -0.3559  1.3054
15360TIP3    H267496   1.834   2.588   2.444 -0.9798  1.2573  0.5798
15361TIP3   OH267497   5.623   4.222  12.387  0.3483 -0.1105 -0.2417
15361TIP3    H167498   5.700   4.169  12.403  0.4792  0.6030  1.7056
15361TIP3    H267499   5.644   4.272  12.308  1.4512 -0.6671 -0.3160
15362TIP3   OH267500   2.742   4.123  11.547  0.0116 -0.0653  0.2210
15362TIP3    H167501   2.762   4.196  11.489  0.0342 -0.8143 -0.7416
15362TIP3    H267502   2.675   4.073  11.500  0.1752 -0.7951  0.7517
15363TIP3   OH267503   2.451   3.748  12.304 -0.1171  0.6625  0.4397
15363TIP3    H167504   2.368   3.708  12.278  0.3217 -0.5550  0.8950
15363TIP3    H267505   2.483   3.790  12.223 -0.8033  0.5080  0.0790
15364TIP3   OH267506   4.771   1.058  15.405  0.1390  0.3155 -0.1167
15364TIP3    H167507   4.839   1.040  15.341  1.4842 -0.3017  1.4160
15364TIP3    H267508   4.726   1.135  15.371 -0.0951 -0.7883 -2.4532
15365TIP3   OH267509   0.819   3.286   0.748 -0.6464 -0.0349  0.2978
15365TIP3    H167510   0.787   3.312   0.834 -1.0329  1.7933 -0.3551
15365TIP3    H267511   0.750   3.314   0.687  0.1247 -0.2481 -0.7106
15366TIP3   OH267512   4.537   1.529  15.408  0.0577  0.1683  0.1936
15366TIP3    H167513   4.467   1.569  15.459 -0.1469  0.9611 -0.6710
15366TIP3    H267514   4.617   1.550  15.457 -0.4029 -2.5402  2.3292
15367TIP3   OH267515   4.592   2.470   2.683 -0.0935 -0.1278  0.4178
15367TIP3    H167516   4.546   2.552   2.665 -0.1555  0.3919  2.6940
15367TIP3    H267517   4.590   2.422   2.600  0.2251  2.2921 -1.0667
15368TIP3   OH267518   1.926   4.658   1.737  0.1039  0.2426 -0.0300
15368TIP3    H167519   1.839   4.691   1.758 -0.1700 -0.6884  0.3431
15368TIP3    H267520   1.931   4.664   1.641 -0.5437 -0.0959 -0.0953
15369TIP3   OH267521   1.066   6.334  14.941 -0.2474  0.2251  0.6613
15369TIP3    H167522   1.143   6.278  14.941 -0.6206 -0.3650 -1.3256
15369TIP3    H267523   1.088   6.406  14.882 -0.9943  0.3337  0.4962
15370TIP3   OH267524   2.207   5.926  12.566  0.7058  0.1864 -0.3131
15370TIP3    H167525   2.235   5.836  12.554 -0.2233 -0.1226 -0.2576
15370TIP3    H267526   2.288   5.977  12.564  1.1058 -0.4606 -2.0244
15371TIP3   OH267527   2.970   0.448  11.338 -0.5299 -0.8944  0.4820
15371TIP3    H167528   2.927   0.533  11.348 -0.0811 -0.5625 -0.3042
15371TIP3    H267529   2.899   0.388  11.314 -0.3188  0.1871 -3.6624
15372TIP3   OH267530   2.141   0.630  11.298  0.4923 -0.3089 -0.2824
15372TIP3    H167531   2.126   0.613  11.205 -2.7677 -1.6301  0.3574
15372TIP3    H267532   2.116   0.722  11.309  1.9480  0.1819 -0.8448
15373TIP3   OH267533   2.868   5.997   0.680 -0.0895  0.5586  0.4779
15373TIP3    H167534   2.916   6.040   0.608  0.1502  0.5945  0.6590
15373TIP3    H267535   2.824   6.069   0.725 -0.0397  0.5644  0.5177
15374TIP3   OH267536   1.972   3.258   2.282  0.4590 -0.7294 -0.4677
15374TIP3    H167537   2.007   3.286   2.367 -0.7044 -1.1435  0.1681
15374TIP3    H267538   1.909   3.326   2.259  0.1909 -1.0260 -0.6093
15375TIP3   OH267539   5.717   4.536   1.950  0.5401  0.2355  0.5477
15375TIP3    H167540   5.710   4.448   1.989  0.5480  0.2657  0.6161
15375TIP3    H267541   5.811   4.551   1.941  0.5568  0.4708  1.0628
15376TIP3   OH267542   6.698   5.001   4.528  0.3250  0.4643 -0.1896
15376TIP3    H167543   6.765   4.948   4.570 -0.5763  0.2031  0.9872
15376TIP3    H267544   6.669   4.948   4.453  0.7588  0.1456 -0.1329
15377TIP3   OH267545   1.074   6.635  17.190 -0.3767 -0.3840 -0.2063
15377TIP3    H167546   1.064   6.714  17.243  1.6882  0.5876 -1.1636
15377TIP3    H267547   1.016   6.649  17.115 -1.5336 -0.7323  0.5833
15378TIP3   OH267548   5.454   1.588  10.508 -0.3956  0.1039 -0.1787
15378TIP3    H167549   5.528   1.636  10.544 -1.0302  0.5866  0.4986
15378TIP3    H267550   5.420   1.644  10.438  0.3707 -0.4958 -1.0712
15379TIP3   OH267551   1.126   4.009   1.780 -0.2382 -0.1173 -0.5994
15379TIP3    H167552   1.134   4.028   1.687 -0.0013 -2.0628 -1.0333
15379TIP3    H267553   1.037   4.037   1.803 -1.0183 -1.3416 -1.9123
15380TIP3   OH267554   3.928   3.683   2.886 -0.2639 -0.1537  0.0458
15380TIP3    H167555   3.847   3.709   2.842 -0.0184  1.0198  0.2639
15380TIP3    H267556   3.997   3.717   2.830  0.1290 -1.9381 -0.6221
15381TIP3   OH267557   4.046   6.771   3.670 -0.1400  0.4349 -0.3156
15381TIP3    H167558   4.027   6.829   3.744  1.3159  0.8097 -0.2039
15381TIP3    H267559   4.105   6.705   3.707  0.9307  0.8594 -1.2004
15382TIP3   OH267560   5.168   6.458   5.442 -0.1814 -0.6913 -0.0797
15382TIP3    H167561   5.229   6.413   5.501 -0.2338  0.4914  0.9278
15382TIP3    H267562   5.141   6.391   5.380 -0.0374 -1.9790  1.1809
15383TIP3   OH267563   3.441   5.594  11.627 -0.0788 -0.1908  0.1318
15383TIP3    H167564   3.443   5.533  11.701 -0.1351 -0.7852 -0.3473
15383TIP3    H267565   3.384   5.551  11.563  2.2081 -1.0597 -1.4343
15384TIP3   OH267566   2.417   5.478   4.220  0.0461  0.1531 -0.2147
15384TIP3    H167567   2.418   5.560   4.170  1.5363 -0.2214 -0.8293
15384TIP3    H267568   2.363   5.498   4.297  1.5752  2.1794  0.4143
15385TIP3   OH267569   1.989   6.702   6.043  0.1626 -0.2432  0.0216
15385TIP3    H167570   1.986   6.796   6.063 -0.8710 -0.0986 -0.7425
15385TIP3    H267571   1.944   6.661   6.116 -2.3457  0.1689 -1.1853
15386TIP3   OH267572   0.004   2.261   0.257 -0.3073  0.5832  0.2666
15386TIP3    H167573   0.027   2.309   0.178 -2.4632  0.5443 -0.4309
15386TIP3    H267574   0.086   2.220   0.284  0.5418  0.8210 -1.7676
15387TIP3   OH267575   1.461   4.346  17.146  0.6012 -0.3033 -0.2047
15387TIP3    H167576   1.529   4.369  17.083 -0.3567  1.1660 -0.7567
15387TIP3    H267577   1.380   4.349  17.096 -0.2468  1.3867  1.1721
15388TIP3   OH267578   6.707   4.540  16.731  0.5651 -0.3798  0.1963
15388TIP3    H167579   6.662   4.461  16.701 -0.9741  0.4279  0.2866
15388TIP3    H267580   6.775   4.508  16.790  0.7910 -1.7053 -0.7340
15389TIP3   OH267581   5.036   0.435   3.553 -0.7467  0.7139 -0.4973
15389TIP3    H167582   5.109   0.438   3.490  1.1146 -0.9062  1.4394
15389TIP3    H267583   5.033   0.524   3.589  1.6887  0.3586  0.7951
15390TIP3   OH267584   0.333   2.204  13.300  0.1228  0.4465  0.2754
15390TIP3    H167585   0.356   2.163  13.383  1.1341  0.2613 -0.0817
15390TIP3    H267586   0.252   2.251  13.318 -0.2755 -0.5220  1.0659
15391TIP3   OH267587   1.392   1.921  12.923  0.5175  0.1729 -0.0214
15391TIP3    H167588   1.453   1.985  12.958  1.6107 -0.5199 -0.6138
15391TIP3    H267589   1.318   1.973  12.893  0.8112  1.0299  0.6826
15392TIP3   OH267590   3.349   5.750  13.103  0.3651  0.0108  0.2434
15392TIP3    H167591   3.292   5.781  13.173 -0.1024  1.5026 -0.7482
15392TIP3    H267592   3.324   5.658  13.089 -2.2513  0.7539 -0.5447
15393TIP3   OH267593   1.533   1.803  13.279 -0.1707 -0.3693 -0.6161
15393TIP3    H167594   1.504   1.886  13.318 -0.8264 -0.6236 -0.5583
15393TIP3    H267595   1.629   1.806  13.286 -0.1839  0.3913 -0.6287
15394TIP3   OH267596   4.124   4.325  14.348 -0.3919  0.0801 -0.2243
15394TIP3    H167597   4.209   4.302  14.385  0.0030  1.3516 -0.3016
15394TIP3    H267598   4.129   4.299  14.256 -0.8832 -1.8180  0.2374
15395TIP3   OH267599   2.338   3.085  16.193 -0.1006 -0.0310  0.3100
15395TIP3    H167600   2.275   3.149  16.227 -0.3584  0.1519 -0.4850
15395TIP3    H267601   2.338   3.015  16.258  0.1739  0.7579  1.1868
15396TIP3   OH267602   6.175   5.634   2.147  0.0237  0.6237 -0.7350
15396TIP3    H167603   6.097   5.605   2.193  0.0104 -0.8290 -1.5944
15396TIP3    H267604   6.232   5.669   2.215 -1.4988  2.0755 -0.1391
15397TIP3   OH267605   3.712   2.156   4.347  0.2270 -0.1194  0.4833
15397TIP3    H167606   3.620   2.170   4.327  0.1928  0.8734  1.3131
15397TIP3    H267607   3.748   2.243   4.362  1.9485 -0.1690 -2.4648
15398TIP3   OH267608   3.428   2.284  16.478 -0.3470 -0.4237  0.0444
15398TIP3    H167609   3.518   2.256  16.494 -0.5919 -2.5837 -1.9151
15398TIP3    H267610   3.377   2.204  16.485 -1.9549  0.5583 -0.0940
15399TIP3   OH267611   1.698   2.406  11.756 -1.1918  0.3428 -0.2527
15399TIP3    H167612   1.748   2.370  11.829  1.0432 -1.3543 -2.4532
15399TIP3    H267613   1.662   2.488  11.790  2.9704  1.6770  1.6756
15400TIP3   OH267614   1.009   6.197   1.985  0.1637 -0.3479  0.8308
15400TIP3    H167615   0.956   6.118   1.997 -0.5298  0.1577  1.1483
15400TIP3    H267616   1.049   6.212   2.070 -0.1668 -0.0346  0.9350
15401TIP3   OH267617   0.925   0.706   0.294 -0.1161 -0.0316 -0.8335
15401TIP3    H167618   0.915   0.612   0.311  0.9716 -0.2212 -1.1711
15401TIP3    H267619   1.018   0.723   0.308 -0.0881  0.7555 -1.8836
15402TIP3   OH267620   2.217   3.558  13.957 -0.0228  0.4121 -0.1096
15402TIP3    H167621   2.177   3.610  14.027  2.0628  0.3959  1.1678
15402TIP3    H267622   2.163   3.577  13.880 -2.8707 -0.1644  1.5830
15403TIP3   OH267623   6.549   2.240   1.966  0.2152  0.5874  0.0137
15403TIP3    H167624   6.504   2.312   1.921  0.5583  3.0171  3.1958
15403TIP3    H267625   6.484   2.170   1.970 -0.5956  1.1446 -2.0335
15404TIP3   OH267626   6.440   2.037   6.289 -0.0081 -0.3433 -0.2393
15404TIP3    H167627   6.359   2.037   6.340 -0.0018 -0.7562 -0.2309
15404TIP3    H267628   6.452   1.946   6.262  1.3020 -0.6380  1.1366
15405TIP3   OH267629   0.659   5.584  13.797 -0.4872 -0.0122  0.1653
15405TIP3    H167630   0.656   5.638  13.718  0.7303 -0.7479 -0.4215
15405TIP3    H267631   0.589   5.520  13.786 -0.5367  0.0972 -0.1614
15406TIP3   OH267632   6.413   5.656  13.292  0.0858  0.5871 -0.3939
15406TIP3    H167633   6.423   5.746  13.263  0.6445  0.5355 -0.3635
15406TIP3    H267634   6.424   5.660  13.387 -0.1811  0.5277 -0.3586
15407TIP3   OH267635   6.650   5.422   5.211  0.4138  0.0055 -0.1811
15407TIP3    H167636   6.663   5.500   5.265 -0.2046  1.1350 -1.6013
15407TIP3    H267637   6.582   5.372   5.258  1.9316 -0.5280  1.5638
15408TIP3   OH267638   1.504   6.575  12.963  0.4595  0.6998  0.1927
15408TIP3    H167639   1.451   6.638  13.011  0.3137  1.0657 -0.4341
15408TIP3    H267640   1.456   6.562  12.881  0.3709 -0.3920  0.3933
15409TIP3   OH267641   5.047   2.499  13.847  0.6667  0.3158  0.3498
15409TIP3    H167642   4.971   2.554  13.832  0.3546  0.9755  3.7060
15409TIP3    H267643   5.015   2.410  13.832 -0.3783  0.6670  0.4128
15410TIP3   OH267644   3.894   5.721  17.174  0.1109 -0.0155  0.2490
15410TIP3    H167645   3.862   5.736  17.263  0.5292 -1.3985  0.6566
15410TIP3    H267646   3.974   5.773  17.168  0.3470 -0.3005  0.8525
15411TIP3   OH267647   4.859   2.092   2.347 -0.0275  0.1588  0.0057
15411TIP3    H167648   4.832   2.009   2.309  0.3087  0.7793 -1.6625
15411TIP3    H267649   4.859   2.153   2.274  0.1344  1.5400  1.1186
15412TIP3   OH267650   5.870   5.460  13.975 -0.1916 -0.0230  0.0188
15412TIP3    H167651   5.836   5.427  14.058 -0.5293  1.2156  0.3921
15412TIP3    H267652   5.813   5.534  13.953  1.7672  1.6422  0.2768
15413TIP3   OH267653   5.779   6.642   4.943 -0.7380  0.3027  0.4570
15413TIP3    H167654   5.731   6.561   4.956 -0.0063 -0.5515 -1.6972
15413TIP3    H267655   5.871   6.616   4.943 -0.4823  1.1536 -0.1106
15414TIP3   OH267656   4.190   1.469  16.157 -0.5931  0.1716  0.6508
15414TIP3    H167657   4.204   1.483  16.251 -1.2669  0.1608  0.7551
15414TIP3    H267658   4.175   1.375  16.149 -2.4466  0.4126  0.8018
15415TIP3   OH267659   5.612   5.555  15.099 -0.0151  0.6346  0.0029
15415TIP3    H167660   5.701   5.580  15.076  0.2246 -0.4991 -0.3389
15415TIP3    H267661   5.569   5.537  15.015  0.3364 -1.7644  0.2922
15416TIP3   OH267662   4.884   2.254   0.834  0.4725  0.6511  0.0564
15416TIP3    H167663   4.853   2.220   0.751  2.5298 -0.1603 -0.4326
15416TIP3    H267664   4.820   2.322   0.857 -2.1584 -1.5010 -0.3528
15417TIP3   OH267665   2.275   1.790  12.625  0.5550 -0.4952  0.0040
15417TIP3    H167666   2.333   1.818  12.554  0.3989  0.4897  0.2455
15417TIP3    H267667   2.190   1.780  12.583  0.8831 -1.9796 -0.3590
15418TIP3   OH267668   4.249   5.022   4.347 -0.2927 -0.3785 -0.1517
15418TIP3    H167669   4.274   5.111   4.372 -0.5481 -0.0434 -1.0463
15418TIP3    H267670   4.330   4.981   4.320 -0.1814 -0.4130  0.2203
15419TIP3   OH267671   6.423   6.555   4.875  1.0548  0.2917 -0.1288
15419TIP3    H167672   6.411   6.567   4.969 -1.0436 -1.4230 -0.0745
15419TIP3    H267673   6.407   6.461   4.861  2.4256  0.2942 -2.0608
15420TIP3   OH267674   4.082   1.623  11.230  0.7706  0.8806  0.3567
15420TIP3    H167675   4.159   1.679  11.222  2.3160 -0.7312  2.6810
15420TIP3    H267676   4.112   1.547  11.280 -1.8469 -0.8263 -0.4209
15421TIP3   OH267677   5.492   4.282   1.572  0.3229  0.2635  0.1116
15421TIP3    H167678   5.495   4.191   1.601  0.4397 -0.0665 -0.8817
15421TIP3    H267679   5.400   4.298   1.551  0.3383  0.2991  0.0695
15422TIP3   OH267680   0.333   2.590  13.841 -0.4056  0.4908  0.2567
15422TIP3    H167681   0.408   2.556  13.791 -0.3693  0.9607 -0.0116
15422TIP3    H267682   0.326   2.530  13.916  0.9300  1.0576  0.8824
15423TIP3   OH267683   4.787   5.831  14.617  0.1716  0.0569  0.1653
15423TIP3    H167684   4.816   5.890  14.686 -1.7927 -0.2077  1.2993
15423TIP3    H267685   4.795   5.882  14.537  2.3748  0.4195  0.5600
15424TIP3   OH267686   4.816   5.066  11.165  0.0323  0.2177  0.7552
15424TIP3    H167687   4.758   5.066  11.090  0.6153 -0.4996  0.2902
15424TIP3    H267688   4.820   5.157  11.193  1.8685  0.9980 -1.7223
15425TIP3   OH267689   4.341   6.361   4.984  0.3695  0.1741 -0.0760
15425TIP3    H167690   4.428   6.335   4.956  0.1070  0.5421 -1.3252
15425TIP3    H267691   4.306   6.412   4.910 -1.1483 -0.5186  0.1172
15426TIP3   OH267692   5.728   4.813  15.377 -0.0831  0.1237 -0.0026
15426TIP3    H167693   5.790   4.753  15.337 -0.1511 -2.4062  3.2975
15426TIP3    H267694   5.782   4.879  15.419  0.2974 -0.7076  0.8430
15427TIP3   OH267695   3.194   2.877  14.858  0.1744 -0.3440  0.6103
15427TIP3    H167696   3.258   2.839  14.918  2.2288 -0.4768 -1.4981
15427TIP3    H267697   3.243   2.942  14.808 -2.0737  1.6047  0.7749
15428TIP3   OH267698   3.373   0.448   5.331 -0.8240 -0.3564  0.1414
15428TIP3    H167699   3.357   0.466   5.238 -0.4720 -0.7897 -0.0118
15428TIP3    H267700   3.297   0.484   5.376 -0.3241  1.1473 -0.1696
15429TIP3   OH267701   6.640   5.149   3.880  0.2600  0.4648 -0.4544
15429TIP3    H167702   6.552   5.119   3.855 -0.6278  0.8765  1.8372
15429TIP3    H267703   6.623   5.216   3.947  2.3300  0.4367  0.1494
15430TIP3   OH267704   0.671   4.581  12.604 -0.6846  0.1364 -0.0982
15430TIP3    H167705   0.586   4.568  12.646 -0.5015  1.2147  0.6507
15430TIP3    H267706   0.733   4.577  12.677 -0.2036  0.4330 -0.4890
15431TIP3   OH267707   5.640   1.172   2.553  0.1945  0.0654 -0.3934
15431TIP3    H167708   5.697   1.241   2.587 -0.8470  0.2605  1.0583
15431TIP3    H267709   5.695   1.124   2.491  2.0838  0.0363  1.1917
15432TIP3   OH267710   6.004   2.678  12.915  0.1125 -0.1809 -0.0471
15432TIP3    H167711   5.956   2.601  12.944 -0.2621  0.5842  1.4625
15432TIP3    H267712   5.974   2.748  12.972  1.2020  0.8703 -0.7095
15433TIP3   OH267713   3.675   5.923  12.530  0.0601 -0.0961 -0.0949
15433TIP3    H167714   3.669   5.870  12.609 -1.7124 -0.9764 -0.7800
15433TIP3    H267715   3.616   5.997  12.545 -1.5215 -1.0801 -1.1470
15434TIP3   OH267716   4.927   6.364  13.161 -0.7789 -0.4272 -0.2162
15434TIP3    H167717   4.860   6.423  13.197 -0.7484  0.1037 -1.0196
15434TIP3    H267718   4.912   6.364  13.067  0.2243 -0.4755 -0.3867
15435TIP3   OH267719   1.693   0.907  17.224 -0.6641  0.4445  0.1529
15435TIP3    H167720   1.619   0.967  17.211 -1.9756 -1.2622 -0.7216
15435TIP3    H267721   1.700   0.897  17.318 -0.6813  1.6304  0.2974
15436TIP3   OH267722   1.541   0.479   1.179 -0.3463  0.4695 -0.2096
15436TIP3    H167723   1.556   0.568   1.147 -2.0282  0.4287 -1.2487
15436TIP3    H267724   1.453   0.482   1.216 -0.1318 -0.5926  0.4200
15437TIP3   OH267725   3.975   0.454  16.579 -0.3395  0.2612 -0.3752
15437TIP3    H167726   3.992   0.545  16.603 -1.5311  0.5020 -0.3876
15437TIP3    H267727   3.900   0.458  16.520 -0.1089 -0.6915 -0.7528
15438TIP3   OH267728   2.497   5.037  15.520 -1.0231 -0.3372  0.0968
15438TIP3    H167729   2.569   4.983  15.485  0.9771  1.0586  1.8095
15438TIP3    H267730   2.429   4.974  15.541  0.1435 -1.8872 -0.5101
15439TIP3   OH267731   6.150   6.379   0.346  0.0115  1.1919 -0.2081
15439TIP3    H167732   6.161   6.286   0.362 -0.1930  1.2846  0.5310
15439TIP3    H267733   6.101   6.384   0.264 -1.2325  0.5978  0.4651
15440TIP3   OH267734   1.383   1.542  15.026 -0.5299  0.3367 -0.0190
15440TIP3    H167735   1.443   1.592  15.081  1.5713  1.8156 -3.3595
15440TIP3    H267736   1.374   1.458  15.070  0.2205  1.7130  2.9714
15441TIP3   OH267737   4.568   5.427  15.344 -0.2222 -0.5275  0.1736
15441TIP3    H167738   4.578   5.428  15.249  1.8451 -0.9227  0.3408
15441TIP3    H267739   4.611   5.346  15.373 -1.4386 -0.7796  1.4027
15442TIP3   OH267740   6.510   5.629   0.683 -0.1996 -0.3341 -0.0255
15442TIP3    H167741   6.481   5.688   0.753  1.0757  1.2835 -0.8105
15442TIP3    H267742   6.430   5.613   0.632 -0.2851  2.0640 -0.7403
15443TIP3   OH267743   0.621   2.675   4.153  0.6457 -0.4082 -0.1739
15443TIP3    H167744   0.591   2.595   4.197  0.5057 -1.4100 -2.0013
15443TIP3    H267745   0.716   2.664   4.146  0.5133 -0.9536 -1.3728
15444TIP3   OH267746   0.267   3.461  10.581 -0.1647  0.3207  0.2719
15444TIP3    H167747   0.219   3.461  10.499 -0.8265  1.0013  0.6459
15444TIP3    H267748   0.215   3.516  10.640  1.0650  1.0958  0.6877
15445TIP3   OH267749   5.748   1.555  14.434 -0.0037  0.1876  0.1506
15445TIP3    H167750   5.764   1.504  14.354 -0.3804 -1.1318  0.8968
15445TIP3    H267751   5.806   1.631  14.425 -1.7322  1.3366 -2.4785
15446TIP3   OH267752   0.948   1.389  15.870  0.1182  0.1358  0.4826
15446TIP3    H167753   0.862   1.426  15.892 -0.4176 -0.9117  0.2361
15446TIP3    H267754   0.929   1.298  15.846  1.5278 -0.6677  2.2071
15447TIP3   OH267755   5.082   6.188   5.414  0.0938  0.2772  0.0215
15447TIP3    H167756   5.139   6.117   5.386 -0.1765  0.2908 -0.5707
15447TIP3    H267757   5.089   6.188   5.510 -0.1729 -0.7787  0.0568
15448TIP3   OH267758   2.900   5.811   4.209  0.0260 -0.3296  0.2573
15448TIP3    H167759   2.845   5.733   4.219  0.0380 -0.5748 -1.2852
15448TIP3    H267760   2.955   5.791   4.133  0.2541  1.0414  0.0424
15449TIP3   OH267761   3.445   4.369   2.288 -0.1208 -0.3809 -0.0496
15449TIP3    H167762   3.376   4.312   2.254  0.2165 -0.4166 -0.6780
15449TIP3    H267763   3.407   4.407   2.367 -0.3708 -1.4320  0.3509
15450TIP3   OH267764   5.340   6.200   0.326 -0.0084  0.5070  0.3377
15450TIP3    H167765   5.299   6.269   0.273  1.1955 -0.2715 -1.7089
15450TIP3    H267766   5.424   6.238   0.353  0.4572  0.0283 -0.4118
15451TIP3   OH267767   2.046   1.274   4.380  0.6484  0.6899 -0.1643
15451TIP3    H167768   1.981   1.236   4.320  0.4261 -0.4801  0.7703
15451TIP3    H267769   1.999   1.345   4.424 -0.6266 -1.1861  1.7108
15452TIP3   OH267770   3.335   1.415   3.068  0.0682  0.2013  0.5355
15452TIP3    H167771   3.401   1.436   3.135  1.6960  1.9647 -1.4552
15452TIP3    H267772   3.347   1.322   3.050  0.3344 -0.0442  1.9111
15453TIP3   OH267773   2.941   4.748  14.940  0.1074 -0.2869  0.2498
15453TIP3    H167774   2.940   4.810  15.013 -0.2774 -1.1201  0.9639
15453TIP3    H267775   2.861   4.697  14.951 -0.9766  0.8077 -1.8477
15454TIP3   OH267776   2.790   6.046   0.214 -0.6840  0.5926 -0.7977
15454TIP3    H167777   2.844   6.010   0.144 -0.6382  0.8661 -0.9054
15454TIP3    H267778   2.743   5.971   0.249 -2.8740  0.8308 -2.9944
15455TIP3   OH267779   5.557   6.630  14.979 -0.4588 -0.0755 -0.1288
15455TIP3    H167780   5.583   6.560  15.039 -1.1139 -0.7437 -0.6030
15455TIP3    H267781   5.479   6.596  14.935 -0.8154  0.9788 -0.3379
15456TIP3   OH267782   2.206   3.907  14.201  0.2146 -0.2923  0.0945
15456TIP3    H167783   2.148   3.914  14.126  0.2343 -1.1448 -0.0141
15456TIP3    H267784   2.181   3.825  14.244 -0.4191  0.6208  1.5570
15457TIP3   OH267785   0.382   4.840  15.521 -0.1694 -0.2552 -0.3131
15457TIP3    H167786   0.441   4.774  15.486  1.9713  1.8051 -0.8706
15457TIP3    H267787   0.359   4.894  15.446  1.5627  2.0834  0.7118
15458TIP3   OH267788   2.295   2.198   1.777  0.1928  0.0251  0.0486
15458TIP3    H167789   2.376   2.173   1.823  0.8513  3.6305  1.2255
15458TIP3    H267790   2.324   2.263   1.713 -1.7312  1.5039  0.5933
15459TIP3   OH267791   4.973   0.214  14.811  0.1151 -0.4464  0.2790
15459TIP3    H167792   4.921   0.140  14.842 -0.3146  0.3759  1.6183
15459TIP3    H267793   4.914   0.263  14.754  0.5353 -1.3273 -0.9656
15460TIP3   OH267794   3.649   2.859  14.101  0.0711 -0.1683 -0.2569
15460TIP3    H167795   3.588   2.869  14.028  1.9592 -1.1112 -2.0507
15460TIP3    H267796   3.695   2.777  14.084 -0.1772 -1.0480  2.6401
15461TIP3   OH267797   2.357   4.823   0.009 -0.3351  1.1913  0.2219
15461TIP3    H167798   2.412   4.858   0.079  0.3999 -0.1885  0.3816
15461TIP3    H267799   2.408   4.750  -0.027 -2.1235 -0.2706  0.4854
15462TIP3   OH267800   5.001   2.910  17.093  0.4178 -0.6740 -0.0676
15462TIP3    H167801   5.052   2.968  17.036  0.6008  0.5682  1.2965
15462TIP3    H267802   4.914   2.951  17.095  0.6066 -0.3038  1.0689
15463TIP3   OH267803   0.383   6.635   6.504 -0.8532  0.5753  0.3426
15463TIP3    H167804   0.467   6.654   6.546 -1.0939  3.0834 -0.1670
15463TIP3    H267805   0.400   6.558   6.451  1.3715  1.4731 -0.3657
15464TIP3   OH267806   5.472   2.836  13.485  0.3805  0.1710 -0.1483
15464TIP3    H167807   5.512   2.908  13.535  0.7278 -0.3885  0.3950
15464TIP3    H267808   5.406   2.799  13.544  1.3797 -1.0402  0.2610
15465TIP3   OH267809   2.814   5.227  14.198  0.1512 -0.8985 -0.1992
15465TIP3    H167810   2.858   5.280  14.131  0.6815  0.1943  0.9659
15465TIP3    H267811   2.878   5.161  14.223  0.2837 -0.7429 -0.1299
15466TIP3   OH267812   3.739   3.381   3.501 -0.9780  0.3756 -0.0952
15466TIP3    H167813   3.759   3.408   3.591 -0.3784  1.3111 -0.4874
15466TIP3    H267814   3.808   3.422   3.448 -1.1732 -0.3746 -0.9542
15467TIP3   OH267815   2.797   4.498  16.114  0.4184  0.0483  0.1320
15467TIP3    H167816   2.729   4.432  16.126  0.6653 -0.1885  0.2342
15467TIP3    H267817   2.876   4.448  16.093  0.6447  0.2978  0.3816
15468TIP3   OH267818   6.635   4.109  11.044 -0.2497  0.0138 -0.0888
15468TIP3    H167819   6.590   4.160  10.976 -0.5275 -1.1189 -0.7762
15468TIP3    H267820   6.726   4.137  11.039  0.0620 -1.1724 -2.0290
15469TIP3   OH267821   0.785   2.032   5.403  0.2283  0.1129  0.6012
15469TIP3    H167822   0.827   2.086   5.336  0.0132  1.4327  1.4881
15469TIP3    H267823   0.701   2.076   5.419 -0.2434 -0.8766  0.8741
15470TIP3   OH267824   5.380   0.812   0.942  0.4119 -0.1117 -0.2183
15470TIP3    H167825   5.354   0.770   0.860 -0.2546 -0.3216  0.0926
15470TIP3    H267826   5.386   0.741   1.005 -1.8894  0.3274  0.6022
15471TIP3   OH267827   5.751   2.155  13.875 -1.0453  0.2200  0.0623
15471TIP3    H167828   5.739   2.154  13.970 -0.6207  0.6860  0.1271
15471TIP3    H267829   5.664   2.175  13.841 -0.8678  1.7753  0.4441
15472TIP3   OH267830   6.640   2.179  12.893 -0.0800 -0.2885  0.3826
15472TIP3    H167831   6.694   2.248  12.853 -0.4045  1.0587  2.1420
15472TIP3    H267832   6.550   2.210  12.881 -0.3953 -1.6405 -0.9513
15473TIP3   OH267833   2.084   1.794  16.376 -0.2313 -0.1515 -0.1241
15473TIP3    H167834   2.091   1.843  16.294  0.4015  0.3179  0.1957
15473TIP3    H267835   1.992   1.800  16.400 -0.1726  0.9034 -0.0900
15474TIP3   OH267836   5.165   1.160  13.445 -0.5932  0.5177 -0.0198
15474TIP3    H167837   5.133   1.093  13.505 -0.2895 -0.1545 -0.6041
15474TIP3    H267838   5.103   1.233  13.456  0.4615  1.1632  2.4533
15475TIP3   OH267839   0.279   0.904  12.104 -0.1551 -0.2087 -0.4412
15475TIP3    H167840   0.209   0.892  12.169 -0.5011 -0.2473 -0.8225
15475TIP3    H267841   0.234   0.905  12.020  0.2682  0.0952 -0.6678
15476TIP3   OH267842   3.864   5.338   5.103 -0.1850  0.3801  0.9004
15476TIP3    H167843   3.929   5.358   5.170  1.0187 -0.0524 -0.0932
15476TIP3    H267844   3.848   5.244   5.112  0.3543  0.2188  0.2916
15477TIP3   OH267845   0.291   5.950   3.914  0.2363 -0.6622 -0.6696
15477TIP3    H167846   0.337   5.937   3.997 -0.3842  1.0322 -0.0228
15477TIP3    H267847   0.347   6.008   3.864 -1.4478  2.1378  0.4670
15478TIP3   OH267848   5.435   1.249  13.871  0.1672  0.0256 -0.7391
15478TIP3    H167849   5.342   1.225  13.868  0.2644 -0.2753 -1.3658
15478TIP3    H267850   5.477   1.192  13.807  1.0462 -0.9595  0.6607
15479TIP3   OH267851   4.295   5.392  14.731  0.2088 -0.0612 -0.6160
15479TIP3    H167852   4.203   5.405  14.708  1.0578  1.3390 -3.9427
15479TIP3    H267853   4.308   5.444  14.810 -1.6915  0.3110 -0.5085
15480TIP3   OH267854   3.473   0.302   4.919 -0.5027 -0.1021 -0.3906
15480TIP3    H167855   3.455   0.217   4.960 -0.3200 -0.3224 -0.7634
15480TIP3    H267856   3.500   0.280   4.830 -1.7231  0.4095 -0.9127
15481TIP3   OH267857   3.125   1.478   3.524 -0.4117 -0.0477 -0.2184
15481TIP3    H167858   3.050   1.529   3.553 -0.1050  0.2179  0.1153
15481TIP3    H267859   3.141   1.416   3.595  0.1807  0.4320  0.0758
15482TIP3   OH267860   5.961   3.318   4.375  0.1173 -0.5957 -0.7462
15482TIP3    H167861   5.986   3.238   4.328  1.0871  0.1446 -1.5024
15482TIP3    H267862   5.966   3.293   4.467 -0.5649 -1.6927 -0.9797
15483TIP3   OH267863   5.787   0.150   5.377  0.1031 -0.3689 -0.2986
15483TIP3    H167864   5.770   0.101   5.457  2.5336 -1.6016 -0.4492
15483TIP3    H267865   5.768   0.088   5.306 -0.0698  0.0553 -0.6318
15484TIP3   OH267866   1.669   0.398   5.762  0.1993  0.2351 -0.4589
15484TIP3    H167867   1.701   0.443   5.840 -0.8618 -0.7666  0.5953
15484TIP3    H267868   1.575   0.386   5.778  0.2136 -1.1870 -1.2647
15485TIP3   OH267869   3.342   6.744   1.485  0.4100  0.3814  0.4853
15485TIP3    H167870   3.342   6.836   1.511  0.6153  0.6060 -0.2621
15485TIP3    H267871   3.429   6.730   1.447 -0.5966  0.7270 -2.1660
15486TIP3   OH267872   2.078   4.720  12.395  0.0156 -0.6319 -0.0243
15486TIP3    H167873   2.073   4.815  12.392  0.2228 -0.6203 -0.0187
15486TIP3    H267874   2.163   4.701  12.435  0.5292 -0.8261 -1.1798
15487TIP3   OH267875   5.759   4.486  10.839  0.0389  0.2610 -0.5917
15487TIP3    H167876   5.686   4.547  10.827  0.3794  0.9000  0.4698
15487TIP3    H267877   5.793   4.471  10.750 -1.0725  0.3254 -1.0424
15488TIP3   OH267878   3.510   1.300   3.636 -0.1094  0.1154  0.2401
15488TIP3    H167879   3.457   1.345   3.571 -0.5643  0.9664  1.1688
15488TIP3    H267880   3.568   1.244   3.585  1.0674  2.3345 -1.0303
15489TIP3   OH267881   2.993   6.677  16.428 -0.7455  0.3271  0.2487
15489TIP3    H167882   2.946   6.731  16.492 -1.2315 -0.0844  0.2373
15489TIP3    H267883   3.075   6.654  16.473 -1.0954  0.0214  0.7389
15490TIP3   OH267884   4.084   0.004  14.577  0.0657  0.1522 -0.2430
15490TIP3    H167885   4.081   0.011  14.672 -0.4055  1.1432 -0.3187
15490TIP3    H267886   4.029   0.076  14.546  0.7723  0.2609 -1.2795
15491TIP3   OH267887   5.386   1.709   2.548  0.4538 -0.2068  0.1664
15491TIP3    H167888   5.437   1.634   2.578  2.0749  0.3338 -1.0853
15491TIP3    H267889   5.359   1.686   2.459 -0.1091  0.1986  0.2251
15492TIP3   OH267890   2.404   4.478   0.215  0.6294 -0.0143 -0.0070
15492TIP3    H167891   2.395   4.565   0.255  0.3689 -0.1644  0.2636
15492TIP3    H267892   2.368   4.418   0.280 -0.0752 -0.2279 -0.5857
15493TIP3   OH267893   2.507   1.742  16.094 -0.2962 -0.1675  0.2466
15493TIP3    H167894   2.439   1.682  16.062 -0.7526  0.6136 -0.2658
15493TIP3    H267895   2.486   1.826  16.054  1.1783  0.0137 -0.2030
15494TIP3   OH267896   4.771   5.906   3.614 -1.1796 -0.4696 -0.1950
15494TIP3    H167897   4.722   5.827   3.595 -2.4551  0.5790 -1.5080
15494TIP3    H267898   4.720   5.951   3.682 -1.7710  0.3407 -1.1465
15495TIP3   OH267899   5.061   1.279  17.169  0.6768  0.9075  0.3816
15495TIP3    H167900   5.020   1.224  17.236  1.1764  1.2625  0.9926
15495TIP3    H267901   4.996   1.284  17.099  0.4578 -0.1066  0.5018
15496TIP3   OH267902   0.889   5.381  11.240 -0.4757  0.2065 -0.2055
15496TIP3    H167903   0.958   5.436  11.276 -2.3034  1.3080  1.8880
15496TIP3    H267904   0.823   5.377  11.309 -3.2816  0.6669 -2.6379
15497TIP3   OH267905   5.390   0.593  16.579  0.1669 -0.1014  0.3748
15497TIP3    H167906   5.346   0.554  16.504  3.3488 -1.4163 -0.9939
15497TIP3    H267907   5.377   0.530  16.650 -0.7551 -0.0693  0.2482
15498TIP3   OH267908   6.156   2.569   5.522 -0.0655 -0.3258  0.6490
15498TIP3    H167909   6.226   2.634   5.516  1.9960 -2.2985  1.9798
15498TIP3    H267910   6.136   2.547   5.430 -0.0939  1.3826  0.2135
15499TIP3   OH267911   1.030   6.280   5.832 -0.2316  0.4415  0.1270
15499TIP3    H167912   1.033   6.233   5.916 -1.3293  3.6551  2.1555
15499TIP3    H267913   1.114   6.325   5.827 -0.2179  0.3530 -0.4463
15500TIP3   OH267914   3.981   3.991  16.572  0.0620  0.5188 -0.1768
15500TIP3    H167915   3.950   3.931  16.640  0.2551 -2.1815 -2.2800
15500TIP3    H267916   3.910   4.055  16.562 -0.8314 -0.2202  1.1420
15501TIP3   OH267917   5.885   0.635   2.675 -0.1138  0.3336  0.3918
15501TIP3    H167918   5.978   0.624   2.696  0.6086  1.2043 -1.9723
15501TIP3    H267919   5.871   0.730   2.678 -0.8555  0.2215  0.5209
15502TIP3   OH267920   5.117   2.981  16.778 -1.0552 -0.1093 -0.1048
15502TIP3    H167921   5.156   3.036  16.710 -0.7202  0.0106  0.1764
15502TIP3    H267922   5.123   3.034  16.858 -2.3440  0.1430 -0.1637
15503TIP3   OH267923   1.613   6.447  16.676  0.3414  0.3052  0.0115
15503TIP3    H167924   1.666   6.421  16.751  1.1646  1.0527 -0.2961
15503TIP3    H267925   1.588   6.537  16.694 -1.5997 -0.3043  0.5607
15504TIP3   OH267926   2.648   5.453   6.109 -0.5339  0.2009  0.0103
15504TIP3    H167927   2.650   5.374   6.055  0.8659 -0.2180  0.6242
15504TIP3    H267928   2.574   5.440   6.168 -0.0593 -0.8658  0.3900
15505TIP3   OH267929   5.079   1.235   4.069  0.3853  0.2234 -0.7394
15505TIP3    H167930   5.101   1.260   4.158  0.0067  0.4506 -0.7092
15505TIP3    H267931   5.114   1.146   4.060 -0.3087 -0.1268 -0.0923
15506TIP3   OH267932   3.150   2.895   1.858 -0.1777  0.2047 -0.2657
15506TIP3    H167933   3.079   2.912   1.796 -0.8274  1.4793  0.7813
15506TIP3    H267934   3.226   2.938   1.819 -0.4532  0.5451 -0.4335
15507TIP3   OH267935   4.412   4.630  12.837 -0.2431 -0.1647 -0.3156
15507TIP3    H167936   4.382   4.539  12.841 -0.8567  0.0696  2.8957
15507TIP3    H267937   4.470   4.640  12.912  0.6699  1.8601 -1.1962
15508TIP3   OH267938   1.154   4.646  12.167 -0.1030 -0.2086  0.2249
15508TIP3    H167939   1.193   4.583  12.228 -2.8123 -1.1879  1.0812
15508TIP3    H267940   1.130   4.720  12.223 -0.5764 -0.1528 -0.0555
15509TIP3   OH267941   2.110   5.625   1.757  0.6294  0.1450 -0.2399
15509TIP3    H167942   2.050   5.681   1.806  1.0105  0.3170  0.0285
15509TIP3    H267943   2.109   5.661   1.668 -2.0395 -1.6860 -1.0806
15510TIP3   OH267944   5.195   0.954  13.243  0.4394 -0.0397  0.1104
15510TIP3    H167945   5.118   0.908  13.279  1.7306 -2.7234 -0.2678
15510TIP3    H267946   5.223   1.012  13.314 -0.8412 -0.4328  0.9831
15511TIP3   OH267947   1.861   2.141  16.625  0.0273 -0.1591 -0.1713
15511TIP3    H167948   1.814   2.214  16.665  0.0227 -0.0907 -0.2996
15511TIP3    H267949   1.798   2.069  16.624 -0.4202  0.2245 -1.2639
15512TIP3   OH267950   3.968   6.501  14.101  0.2468 -0.1260  0.2168
15512TIP3    H167951   3.954   6.538  14.013 -1.7562  0.6601  0.8175
15512TIP3    H267952   4.053   6.534  14.127  0.0952  1.0983 -0.7426
15513TIP3   OH267953   1.014   4.609  12.638  0.4198 -0.0526 -0.2487
15513TIP3    H167954   0.983   4.689  12.679  0.4110  0.4628 -1.2248
15513TIP3    H267955   1.107   4.625  12.621  0.5259 -0.4291 -0.0317
15514TIP3   OH267956   5.869   3.391   3.770  0.1017 -0.0754 -0.9861
15514TIP3    H167957   5.888   3.467   3.825 -0.5909 -0.6204  0.0488
15514TIP3    H267958   5.883   3.316   3.827  2.4386 -0.8692 -2.4649
15515TIP3   OH267959   4.499   4.942  13.423  0.8709 -0.0072 -0.4335
15515TIP3    H167960   4.534   4.937  13.512 -0.6558 -0.1562  0.1927
15515TIP3    H267961   4.513   5.033  13.396 -0.3370  0.5428  0.7095
15516TIP3   OH267962   0.036   1.975   4.915 -0.3889 -0.2867  0.5489
15516TIP3    H167963  -0.033   2.032   4.951  1.0570  1.5650  0.5250
15516TIP3    H267964   0.108   1.983   4.978  0.6571 -0.3213 -0.6213
15517TIP3   OH267965   2.469   3.999   0.267 -0.2192 -0.1268  0.2907
15517TIP3    H167966   2.564   3.991   0.272 -0.3394 -1.7304  0.7879
15517TIP3    H267967   2.444   4.038   0.351  0.0234  0.8361 -0.0707
15518TIP3   OH267968   4.310   0.637  13.676 -0.1940 -0.2392 -0.4545
15518TIP3    H167969   4.310   0.581  13.754  3.1877  0.6189  0.3088
15518TIP3    H267970   4.325   0.576  13.603 -0.4909 -0.7408 -0.1069
15519TIP3   OH267971   4.273   2.998   4.770  0.0487 -0.4789 -0.5720
15519TIP3    H167972   4.341   3.046   4.818 -0.5836  0.0430 -0.1828
15519TIP3    H267973   4.214   2.965   4.838  0.1168 -1.2555 -0.8819
15520TIP3   OH267974   0.821   1.918  11.480  0.0478  0.1818  0.0457
15520TIP3    H167975   0.772   1.999  11.490 -0.6645 -0.2364  0.0184
15520TIP3    H267976   0.879   1.933  11.405 -1.2870  0.0862 -1.0416
15521TIP3   OH267977   2.414   4.552   2.437 -0.2438  0.5961  0.2450
15521TIP3    H167978   2.486   4.594   2.485  0.4950 -0.7589  0.3950
15521TIP3    H267979   2.434   4.458   2.443 -3.1720 -0.0296  2.1766
15522TIP3   OH267980   3.768   4.642  14.662  0.5521 -0.5123 -0.6819
15522TIP3    H167981   3.709   4.588  14.714 -1.2980 -0.3705 -2.4970
15522TIP3    H267982   3.783   4.591  14.583  0.8927  0.5088 -1.2859
15523TIP3   OH267983   3.293   0.962   3.967  0.0215  0.2172  0.1552
15523TIP3    H167984   3.386   0.968   3.947  0.0229  1.6933  0.5073
15523TIP3    H267985   3.255   1.043   3.932 -0.9725  0.0624  0.8279
15524TIP3   OH267986   6.789   1.878   5.916 -0.1834 -0.2614 -0.0396
15524TIP3    H167987   6.791   1.973   5.924 -0.1056 -0.4002  2.1370
15524TIP3    H267988   6.786   1.846   6.006  1.0752 -2.3548 -0.6561
15525TIP3   OH267989   2.660   2.856  15.649  0.1961 -0.0448  0.2467
15525TIP3    H167990   2.691   2.811  15.727 -0.0271  1.0179  0.9652
15525TIP3    H267991   2.576   2.893  15.674 -0.2224 -0.2929 -0.7273
15526TIP3   OH267992   4.850   0.393  14.625 -0.1033  0.3233  0.3467
15526TIP3    H167993   4.810   0.479  14.637 -1.5025 -0.5259  2.3277
15526TIP3    H267994   4.939   0.411  14.597 -0.5181  2.3848  0.2298
15527TIP3   OH267995   6.277   3.024  16.179 -0.0265  0.4963  0.6080
15527TIP3    H167996   6.276   2.938  16.223 -4.1184 -1.0748 -1.9919
15527TIP3    H267997   6.211   3.075  16.225  0.2701  1.1833  0.2822
15528TIP3   OH267998   5.593   5.551   0.741  0.0550 -0.4896  0.3908
15528TIP3    H167999   5.591   5.462   0.706  3.5617 -0.6686  0.2627
15528TIP3    H268000   5.657   5.596   0.686 -1.1193  1.9454  0.8903
15529TIP3   OH268001   5.332   1.602  12.064  0.3436  0.0567 -0.3313
15529TIP3    H168002   5.275   1.588  11.989 -1.7130  2.5007  0.6331
15529TIP3    H268003   5.310   1.533  12.126 -0.8956  0.3698 -0.3987
15530TIP3   OH268004   3.752   4.296  16.397 -0.2502  0.0709  0.1856
15530TIP3    H168005   3.844   4.315  16.409 -0.4701  1.4805 -0.2163
15530TIP3    H268006   3.739   4.297  16.302 -0.5690 -0.7269  0.2077
15531TIP3   OH268007   4.329   0.910  10.300  0.3880 -0.3533  0.4259
15531TIP3    H168008   4.384   0.927  10.224  2.1895  0.9329  1.9269
15531TIP3    H268009   4.381   0.849  10.353 -1.5008 -2.4773  0.0049
15532TIP3   OH268010   3.802   5.361  14.183  0.1307 -0.4215  0.0696
15532TIP3    H168011   3.821   5.443  14.229 -1.4408 -0.4294  0.7978
15532TIP3    H268012   3.768   5.388  14.098  0.7473 -0.3525 -0.1583
15533TIP3   OH268013   2.608   1.750   3.093 -0.5125 -0.1708 -0.1521
15533TIP3    H168014   2.557   1.762   3.173  0.7363  0.2908  0.6060
15533TIP3    H268015   2.556   1.691   3.039 -1.2505 -0.7065  1.1228
15534TIP3   OH268016   3.524   6.678  12.567  0.2767 -0.3677 -0.0439
15534TIP3    H168017   3.588   6.738  12.605 -1.4738 -0.5234  3.5381
15534TIP3    H268018   3.448   6.733  12.548 -0.4180 -1.0141  0.8286
15535TIP3   OH268019   5.672   2.858  16.158 -0.3533  0.4975 -0.4579
15535TIP3    H168020   5.587   2.857  16.113 -0.1964  3.6407 -1.0231
15535TIP3    H268021   5.669   2.781  16.216 -2.7348 -0.6221 -1.9048
15536TIP3   OH268022   0.612   2.851  13.433  0.1434  0.4414  0.0012
15536TIP3    H168023   0.619   2.946  13.424  0.1040  0.5343  0.8286
15536TIP3    H268024   0.521   2.836  13.459 -1.4599 -0.2624 -4.8855
15537TIP3   OH268025   1.069   1.438  11.937  0.8617 -0.4012 -0.2690
15537TIP3    H168026   1.041   1.405  12.023 -0.2855  1.6499  0.2172
15537TIP3    H268027   1.107   1.362  11.893 -0.7853 -2.1125  1.0959
15538TIP3   OH268028   4.621   3.866   3.488 -0.1017  0.8422  0.2150
15538TIP3    H168029   4.636   3.827   3.403 -0.5238 -1.4437  1.1231
15538TIP3    H268030   4.684   3.938   3.493 -1.3937  2.3248 -2.7433
15539TIP3   OH268031   6.444   5.005   3.722 -0.1340  0.0165 -0.4485
15539TIP3    H168032   6.385   5.078   3.701  0.2550  0.5568  0.2811
15539TIP3    H268033   6.465   4.966   3.638 -0.8155  0.3852 -0.7983
15540TIP3   OH268034   0.920   5.999   0.554  0.0216 -0.3788  0.9599
15540TIP3    H168035   0.983   6.030   0.489 -1.7573 -0.0652 -0.7191
15540TIP3    H268036   0.892   6.079   0.601 -1.1981 -0.0396 -0.2705
15541TIP3   OH268037   0.034   6.476   1.706 -0.4030  0.1219 -0.1822
15541TIP3    H168038   0.074   6.492   1.620  0.4044  0.9089  0.3276
15541TIP3    H268039  -0.027   6.549   1.718 -0.6364 -0.0746 -0.1383
15542TIP3   OH268040   1.186   1.272  11.756  0.5078 -0.3465  0.2796
15542TIP3    H168041   1.122   1.202  11.769 -1.4118  1.2006 -0.4822
15542TIP3    H268042   1.197   1.279  11.661 -1.3913  2.0807  0.1477
15543TIP3   OH268043   1.212   3.356   3.251 -0.2278 -0.0932  0.2112
15543TIP3    H168044   1.124   3.393   3.261 -0.8942 -1.8349  1.2015
15543TIP3    H268045   1.229   3.312   3.334  1.9298  0.8650  0.3379
15544TIP3   OH268046   0.529   6.318  16.859 -0.7921  0.1514 -0.6197
15544TIP3    H168047   0.479   6.355  16.931 -2.9935 -0.2525 -1.8324
15544TIP3    H268048   0.606   6.373  16.852 -0.6301  0.3420  1.8329
15545TIP3   OH268049   4.389   6.683  12.119  0.4940  0.0071  0.2267
15545TIP3    H168050   4.318   6.696  12.181 -0.3975 -0.1454 -0.7273
15545TIP3    H268051   4.360   6.728  12.039  0.9030 -1.0942 -0.5690
15546TIP3   OH268052   6.706   2.418   6.486 -0.0622 -0.0877  0.5083
15546TIP3    H168053   6.638   2.351   6.496 -0.5337  0.5871  2.1804
15546TIP3    H268054   6.660   2.491   6.443  0.1612 -0.4074 -0.2839
15547TIP3   OH268055   3.189   0.986  11.225 -0.2872  0.0462 -0.5221
15547TIP3    H168056   3.119   1.013  11.284 -0.5151 -1.5346 -0.0178
15547TIP3    H268057   3.265   1.038  11.252 -1.0469  1.1744 -0.5309
15548TIP3   OH268058   1.165   5.026  14.076 -0.5607 -0.3959  0.1786
15548TIP3    H168059   1.219   5.105  14.076 -0.7074 -0.2896  0.5799
15548TIP3    H268060   1.169   4.995  14.167 -0.2938 -0.9947 -0.0318
15549TIP3   OH268061   2.621   4.066  12.496 -0.3950 -0.7106 -0.1197
15549TIP3    H168062   2.545   4.069  12.555 -0.9135 -1.4337 -0.7313
15549TIP3    H268063   2.640   4.157  12.475 -2.5337 -0.5785 -1.7663
15550TIP3   OH268064   3.366   1.414   3.907  0.1395  0.1082  0.6348
15550TIP3    H168065   3.438   1.416   3.844 -1.2628 -0.9925 -1.1094
15550TIP3    H268066   3.396   1.353   3.975  0.6120 -0.8630 -0.4032
15551TIP3   OH268067   0.693   4.057  13.416 -0.5080 -0.3797  0.6305
15551TIP3    H168068   0.604   4.040  13.384 -0.1640 -1.0092 -0.0391
15551TIP3    H268069   0.690   4.147  13.449 -1.1745 -0.0743 -0.2008
15552TIP3   OH268070   1.550   5.741   5.480 -0.1730  0.6404 -0.1027
15552TIP3    H168071   1.609   5.752   5.554 -0.5879 -0.8288  0.4889
15552TIP3    H268072   1.557   5.648   5.458 -2.7094  0.2676  0.3788
15553TIP3   OH268073   2.827   3.478  11.354  0.6104  0.5987 -0.1801
15553TIP3    H168074   2.807   3.384  11.349 -0.1889  0.7181  0.5173
15553TIP3    H268075   2.900   3.484  11.416  0.3633  0.4769  0.1228
15554TIP3   OH268076   0.699   0.261  11.921  0.4853  0.0151  0.3670
15554TIP3    H168077   0.692   0.188  11.982 -1.1504  1.0394  1.4952
15554TIP3    H268078   0.611   0.298  11.917  0.7936  0.6944 -1.7640
15555TIP3   OH268079   5.030   4.926   0.087 -0.3589  0.3262 -0.4681
15555TIP3    H168080   4.986   4.951   0.169 -0.1071 -1.0912  0.1319
15555TIP3    H268081   5.121   4.910   0.112 -0.1948  0.2355 -1.1053
15556TIP3   OH268082   5.352   1.103  16.673 -0.1530  0.2511 -0.1148
15556TIP3    H168083   5.441   1.093  16.638  0.2167  2.0502  0.1929
15556TIP3    H268084   5.301   1.134  16.598  0.0384  1.5055  0.2493
15557TIP3   OH268085   1.245   6.558   4.993 -0.1649  0.0806 -0.4513
15557TIP3    H168086   1.226   6.483   5.050  1.7238  0.1603  0.3729
15557TIP3    H268087   1.207   6.535   4.909  2.2962 -2.9138 -0.9213
15558TIP3   OH268088   0.822   1.406   0.731  0.3042 -0.3382 -0.0893
15558TIP3    H168089   0.766   1.341   0.689 -0.2699  1.0657 -1.5991
15558TIP3    H268090   0.778   1.489   0.714  1.5757  0.5645  0.8685
15559TIP3   OH268091   3.135   4.236   1.462  0.2921  0.4207 -0.0011
15559TIP3    H168092   3.082   4.272   1.533 -0.2389  0.6674 -0.5151
15559TIP3    H268093   3.130   4.301   1.393 -0.6050 -0.5758 -0.9096
15560TIP3   OH268094   5.555   4.765   0.595 -1.2493  0.1596 -0.0655
15560TIP3    H168095   5.548   4.675   0.626  1.9438 -0.3042 -0.4106
15560TIP3    H268096   5.520   4.763   0.506  1.7334 -1.6060 -1.3393
15561TIP3   OH268097   6.222   4.356  12.218 -0.2916  0.1734 -0.2335
15561TIP3    H168098   6.133   4.391  12.219 -0.2756  0.2094 -0.0838
15561TIP3    H268099   6.264   4.400  12.144  0.1136  1.4180  0.7095
15562TIP3   OH268100   5.392   0.611   1.162  0.5768 -0.3468 -0.1610
15562TIP3    H168101   5.391   0.595   1.256  0.8026 -3.2037 -0.5549
15562TIP3    H268102   5.346   0.536   1.125 -0.9741  1.5085 -2.2884
15563TIP3   OH268103   1.078   5.449   4.350  0.0186  0.1545 -0.0671
15563TIP3    H168104   1.099   5.419   4.261  0.5606  0.0881  0.0788
15563TIP3    H268105   1.040   5.536   4.338  0.9598  0.5428 -0.2992
15564TIP3   OH268106   5.389   1.671  14.080  0.7386  0.2999  0.0406
15564TIP3    H168107   5.475   1.700  14.111  0.5020  0.5840  0.4281
15564TIP3    H268108   5.409   1.614  14.005  1.2904 -0.0821  0.4739
15565TIP3   OH268109   0.164   4.108   2.655  0.4113 -0.6169  0.2026
15565TIP3    H168110   0.212   4.041   2.606  0.6516  0.0318 -0.4688
15565TIP3    H268111   0.190   4.191   2.615 -2.0905 -0.2877 -0.9260
15566TIP3   OH268112   5.253   2.558  15.360  0.1354  0.1437 -0.0336
15566TIP3    H168113   5.320   2.576  15.294 -0.8259 -0.8303 -1.3401
15566TIP3    H268114   5.300   2.558  15.443  1.4278  1.1918 -0.7333
15567TIP3   OH268115   6.714   1.101  12.187  0.3337 -0.2400 -0.6496
15567TIP3    H168116   6.756   1.119  12.103 -1.0087 -1.1781 -1.5527
15567TIP3    H268117   6.714   1.006  12.195 -1.3130 -0.2567 -0.5398
15568TIP3   OH268118   4.316   3.165  11.290  0.5957 -0.2789 -0.1472
15568TIP3    H168119   4.294   3.163  11.382 -0.0224 -1.3543 -0.3007
15568TIP3    H268120   4.283   3.249  11.258  1.8632  0.6229  0.8423
15569TIP3   OH268121   2.452   2.522  10.863  0.4073 -0.2292 -0.6110
15569TIP3    H168122   2.468   2.590  10.929 -0.7581 -0.6645  0.1491
15569TIP3    H268123   2.539   2.490  10.840  0.8173 -1.7513  2.5462
15570TIP3   OH268124   1.260   5.258   3.510 -0.2596  0.0258  0.4148
15570TIP3    H168125   1.330   5.296   3.563 -1.2906  0.9630  1.1368
15570TIP3    H268126   1.185   5.315   3.525 -1.4723 -1.5168  0.4428
15571TIP3   OH268127   1.399   3.898   2.511  0.1586  0.8786 -0.1073
15571TIP3    H168128   1.345   3.859   2.443  0.1056  2.9296 -1.3207
15571TIP3    H268129   1.365   3.861   2.593 -0.0008 -1.3544 -1.1387
15572TIP3   OH268130   6.632   3.796  10.491 -0.6381  0.6408 -0.5309
15572TIP3    H168131   6.583   3.873  10.521 -1.3150 -0.3633  1.0860
15572TIP3    H268132   6.569   3.724  10.497  0.4380 -0.3200 -0.4988
15573TIP3   OH268133   1.231   5.487   0.265  0.9995  0.2377 -0.1652
15573TIP3    H168134   1.179   5.544   0.208 -0.0730 -0.2845  0.2730
15573TIP3    H268135   1.281   5.432   0.204 -1.0894 -1.2059 -0.6871
15574TIP3   OH268136   5.912   1.606  13.011  0.5804 -0.3914 -0.1839
15574TIP3    H168137   5.923   1.541  12.942  1.8506 -1.2222  0.7518
15574TIP3    H268138   5.922   1.556  13.092 -1.6339  0.4072  0.6656
15575TIP3   OH268139   1.538   1.265   4.446  0.1368 -0.3533 -0.1629
15575TIP3    H168140   1.469   1.199   4.437 -0.6333  0.3412  0.4327
15575TIP3    H268141   1.552   1.298   4.358  0.0688 -0.8621 -0.3664
15576TIP3   OH268142   3.615   2.652   4.360  0.1265  0.2351  0.1253
15576TIP3    H168143   3.586   2.712   4.429  0.9631  0.0926  0.6113
15576TIP3    H268144   3.536   2.603   4.337  0.1930 -1.1045  2.4010
15577TIP3   OH268145   3.191   0.309  15.537  0.5741 -0.3876  0.7613
15577TIP3    H168146   3.134   0.370  15.489  0.4687 -1.2495 -0.2494
15577TIP3    H268147   3.279   0.332  15.509  0.5747 -0.3228  0.8181
15578TIP3   OH268148   1.165   0.238   2.569  0.2729  0.4207 -0.2491
15578TIP3    H168149   1.253   0.199   2.568 -0.3601 -1.0781 -0.8353
15578TIP3    H268150   1.179   0.330   2.548  1.6574  0.0819 -0.9190
15579TIP3   OH268151   4.139   3.783  16.802 -0.2793  0.3107 -0.1403
15579TIP3    H168152   4.150   3.690  16.779 -1.3153  0.0234  0.4692
15579TIP3    H268153   4.044   3.795  16.807 -0.1345  1.1447  0.8464
15580TIP3   OH268154   4.786   3.773   2.615  0.4767 -0.2618 -0.6614
15580TIP3    H168155   4.868   3.741   2.577  1.4721 -1.1307  1.9405
15580TIP3    H268156   4.814   3.840   2.678 -0.1812 -3.2998  3.2474
15581TIP3   OH268157   2.093   1.766  12.973  0.1176 -0.1121  0.1253
15581TIP3    H168158   2.052   1.682  12.996 -1.5235  0.5460 -0.3090
15581TIP3    H268159   2.028   1.811  12.920  0.7029  1.7331  0.8957
15582TIP3   OH268160   6.344   5.429   4.365  0.3463 -0.1902  0.5808
15582TIP3    H168161   6.311   5.358   4.419 -0.6541 -0.4627 -0.3455
15582TIP3    H268162   6.435   5.406   4.348  0.3389 -0.6853  1.1840
15583TIP3   OH268163   4.176   2.574  12.335  0.1509 -0.3204 -0.7161
15583TIP3    H168164   4.121   2.534  12.268 -1.6727  0.3094  0.3309
15583TIP3    H268165   4.114   2.613  12.397  1.7985  1.5098 -0.1147
15584TIP3   OH268166   5.226   2.548   0.496  0.2688 -0.7643  0.2096
15584TIP3    H168167   5.314   2.512   0.487  0.8884  1.0870 -2.0417
15584TIP3    H268168   5.170   2.484   0.452  0.8706 -0.7148 -0.6624
15585TIP3   OH268169   1.696   2.634   5.107 -0.2516 -0.2770  0.2414
15585TIP3    H168170   1.674   2.716   5.151 -1.2434 -0.2989 -0.1822
15585TIP3    H268171   1.730   2.578   5.176  0.1807  0.3913  0.5845
15586TIP3   OH268172   1.567   5.616   5.109  0.0287  0.7380 -0.0269
15586TIP3    H168173   1.482   5.636   5.068  0.2509  2.8888  0.4306
15586TIP3    H268174   1.544   5.564   5.186 -0.5740 -1.3886 -1.5470
15587TIP3   OH268175   1.470   3.208   0.862  0.3762  0.3373  0.0311
15587TIP3    H168176   1.545   3.150   0.852  1.7863  1.7994  1.5151
15587TIP3    H268177   1.507   3.296   0.857 -1.3718  1.1069  0.0604
15588TIP3   OH268178   4.459   3.580  15.188 -0.0852 -0.0742 -0.7250
15588TIP3    H168179   4.499   3.590  15.274  1.2436  0.0169 -1.3182
15588TIP3    H268180   4.509   3.639  15.131 -1.2560  0.2391 -1.4715
15589TIP3   OH268181   5.704   0.169   2.208  0.0723 -0.6021  0.1793
15589TIP3    H168182   5.675   0.241   2.152  1.2962  0.1728  0.5118
15589TIP3    H268183   5.702   0.092   2.152 -1.1470 -0.3046 -0.2115
15590TIP3   OH268184   5.640   4.733  13.979  0.7238 -0.1643 -0.7057
15590TIP3    H168185   5.556   4.713  14.020  1.1088  0.9736  0.7503
15590TIP3    H268186   5.623   4.812  13.927  1.4430  1.8411  1.9040
15591TIP3   OH268187   6.377   5.501   1.014 -0.2201  0.1715  1.0474
15591TIP3    H168188   6.461   5.478   1.053 -0.9848 -0.1562  2.5478
15591TIP3    H268189   6.356   5.428   0.956  0.2257 -0.0498  1.1665
15592TIP3   OH268190   5.858   2.395  14.478  0.3131 -0.0765  0.7159
15592TIP3    H168191   5.857   2.470  14.537  0.8111 -0.0246  0.6619
15592TIP3    H268192   5.797   2.419  14.408 -0.4086 -0.2101  1.2863
15593TIP3   OH268193   2.943   5.201   6.642 -0.0852 -0.9483 -0.0988
15593TIP3    H168194   3.029   5.159   6.647  1.3735  1.8149 -0.1360
15593TIP3    H268195   2.884   5.141   6.687  2.1400 -2.2344  1.2760
15594TIP3   OH268196   1.447   1.284  15.633  0.0662  0.3431 -0.1018
15594TIP3    H168197   1.518   1.231  15.597  1.4922  1.5746  0.7826
15594TIP3    H268198   1.445   1.262  15.726  0.8627  1.9702  0.3364
15595TIP3   OH268199   5.121   0.489   1.889  0.8068 -0.0962 -0.2125
15595TIP3    H168200   5.053   0.476   1.823 -0.6912 -1.2496  1.4724
15595TIP3    H268201   5.165   0.404   1.896  1.1463  0.0994  0.0968
15596TIP3   OH268202   1.518   4.753   3.258  0.2609  0.2364  0.2847
15596TIP3    H168203   1.597   4.715   3.220 -1.2197 -3.1797  0.3255
15596TIP3    H268204   1.498   4.829   3.202  0.6336 -1.9570 -3.1065
15597TIP3   OH268205   2.018   3.940   4.787 -0.0430 -0.5869 -0.3460
15597TIP3    H168206   1.963   3.989   4.849  0.9905  0.2837 -0.0836
15597TIP3    H268207   1.971   3.946   4.704 -0.5017 -0.1224 -0.0616
15598TIP3   OH268208   4.017   0.135   3.189  0.5303  0.8325  0.7166
15598TIP3    H168209   3.940   0.144   3.132 -1.2578  0.9971  2.9864
15598TIP3    H268210   4.090   0.120   3.129 -1.4848 -0.8089 -1.5222
15599TIP3   OH268211   0.020   4.834  12.728  1.0935  0.0858 -0.5046
15599TIP3    H168212   0.041   4.926  12.741  0.2411  0.1676  0.4118
15599TIP3    H268213   0.091   4.787  12.771 -0.2577  0.3618  2.2569
15600TIP3   OH268214   1.590   1.468  12.236  0.0428  0.3061  0.1328
15600TIP3    H168215   1.651   1.457  12.163  0.9821 -1.0907  1.0763
15600TIP3    H268216   1.507   1.493  12.194  0.2831 -1.4211 -1.5373
15601TIP3   OH268217   2.668   0.504  15.863 -0.3209 -0.2668 -0.2525
15601TIP3    H168218   2.628   0.591  15.866  1.4309  0.5599  0.3587
15601TIP3    H268219   2.662   0.471  15.953  0.1848 -0.2035 -0.1892
15602TIP3   OH268220   2.850   3.211  13.787 -0.0418  0.0319  0.2937
15602TIP3    H168221   2.936   3.226  13.827 -0.3248 -0.8402  1.2965
15602TIP3    H268222   2.847   3.116  13.772  0.5710  0.4084 -3.1103
15603TIP3   OH268223   4.366   0.348   4.381  0.2734 -0.3665 -0.6263
15603TIP3    H168224   4.327   0.422   4.427  1.5567 -0.5134  0.7922
15603TIP3    H268225   4.388   0.382   4.295  1.2135  1.0688  0.1367
15604TIP3   OH268226   4.763   4.734   3.437  0.2878 -0.0475 -0.0083
15604TIP3    H168227   4.808   4.710   3.518 -0.8189  1.3456  1.0614
15604TIP3    H268228   4.690   4.673   3.431 -0.8865  1.1482  1.2350
15605TIP3   OH268229   1.155   0.570   4.301  0.0124  0.5187 -0.3763
15605TIP3    H168230   1.241   0.558   4.259 -0.3584  1.9192 -1.6184
15605TIP3    H268231   1.104   0.494   4.273  0.3408  0.5089 -0.9757
15606TIP3   OH268232   5.790   3.301  15.176 -0.6271  0.0107 -0.2196
15606TIP3    H168233   5.886   3.299  15.175 -0.6315 -0.0235 -1.1373
15606TIP3    H268234   5.764   3.274  15.088 -1.4562  1.3087 -0.4016
15607TIP3   OH268235   0.116   2.291   2.451 -0.2607 -0.0742  0.1670
15607TIP3    H168236   0.043   2.229   2.450 -1.3765  1.1657  0.9607
15607TIP3    H268237   0.077   2.373   2.482  1.8168  0.1946  2.3152
15608TIP3   OH268238   2.319   2.631  14.254 -0.0569 -0.5443  0.1330
15608TIP3    H168239   2.411   2.625  14.281  0.2738  0.4574 -0.7433
15608TIP3    H268240   2.312   2.715  14.210 -1.8001  0.1858  1.6657
15609TIP3   OH268241   3.271   5.783   1.722  0.1020  0.4301 -0.1117
15609TIP3    H168242   3.286   5.708   1.780 -0.1740  0.2083 -0.3231
15609TIP3    H268243   3.351   5.836   1.730  0.8932 -0.5859 -1.0068
15610TIP3   OH268244   1.445   2.807  13.303 -0.5776  0.0110  0.0094
15610TIP3    H168245   1.464   2.734  13.244 -3.2363 -0.1779 -0.7314
15610TIP3    H268246   1.389   2.865  13.253  0.0740  1.7457  1.1833
15611TIP3   OH268247   2.272   1.390  16.012  0.0899  0.6483 -0.8151
15611TIP3    H168248   2.236   1.477  16.024  1.7418  1.2656 -0.1127
15611TIP3    H268249   2.349   1.403  15.956  0.3182 -0.3718 -0.7678
15612TIP3   OH268250   3.504   0.203   0.450 -0.5629  0.4899 -0.5690
15612TIP3    H168251   3.589   0.180   0.488 -0.4806 -0.7299 -1.4083
15612TIP3    H268252   3.457   0.119   0.446 -1.1470  0.8487 -1.6768
15613TIP3   OH268253   5.642   2.007  14.844  0.5474 -0.6347 -0.2308
15613TIP3    H168254   5.622   1.938  14.907  2.0532 -1.0133 -0.1225
15613TIP3    H268255   5.712   2.057  14.886  0.9857 -0.3850 -1.2475
15614TIP3   OH268256   2.512   2.323   1.513  0.0218 -0.4046 -0.1372
15614TIP3    H168257   2.451   2.288   1.447 -1.5902  1.3745  0.3217
15614TIP3    H268258   2.535   2.410   1.481  1.4968 -0.6292  0.2566
15615TIP3   OH268259   5.665   6.454  16.857 -0.3189  0.9835  0.6756
15615TIP3    H168260   5.627   6.366  16.864 -0.3077  1.0690  1.9346
15615TIP3    H268261   5.758   6.439  16.844 -0.4749  0.8055 -0.3276
15616TIP3   OH268262   2.190   0.165  11.825 -0.5635  0.2354  0.1398
15616TIP3    H168263   2.210   0.258  11.810 -1.2029  0.1390 -1.5084
15616TIP3    H268264   2.216   0.150  11.916  1.5030  1.5029 -0.1657
15617TIP3   OH268265   3.629   4.893   0.886 -0.1327 -0.6497 -0.4886
15617TIP3    H168266   3.638   4.969   0.943  0.6809 -0.4718 -0.8422
15617TIP3    H268267   3.702   4.900   0.825 -0.5044 -1.2949 -1.0190
15618TIP3   OH268268   0.873   0.108  15.725 -0.3949 -0.2775 -0.2511
15618TIP3    H168269   0.842   0.155  15.803 -1.0196  1.8399 -1.6781
15618TIP3    H268270   0.965   0.133  15.718 -0.6717  0.5983 -0.8904
15619TIP3   OH268271   4.576   1.004  11.335 -0.0366 -0.2146  0.0164
15619TIP3    H168272   4.660   1.047  11.352  0.9356 -1.5707 -1.0110
15619TIP3    H268273   4.558   1.024  11.243 -1.4507  0.9953  0.5234
15620TIP3   OH268274   5.876   5.825   4.298 -0.6373  0.3239  0.3888
15620TIP3    H168275   5.785   5.857   4.294 -1.3384 -1.5149  0.6207
15620TIP3    H268276   5.888   5.779   4.214  0.6614  1.9396 -0.3530
15621TIP3   OH268277   4.551   3.141  13.200  0.0440  0.1762  0.0157
15621TIP3    H168278   4.591   3.064  13.158 -1.6807 -1.2637  0.8954
15621TIP3    H268279   4.573   3.214  13.141  0.9976 -1.1152 -1.3106
15622TIP3   OH268280   6.350   5.978  16.261 -0.4435  0.0475 -0.3354
15622TIP3    H168281   6.322   6.059  16.305 -1.8997 -0.6513  0.1129
15622TIP3    H268282   6.411   5.938  16.323  0.0839  0.6782 -0.4415
15623TIP3   OH268283   6.149   3.982  12.469 -0.1394  0.5035 -0.0401
15623TIP3    H168284   6.091   3.928  12.415  0.2065 -0.8073  0.8517
15623TIP3    H268285   6.116   3.970  12.559  0.3382  1.2738  0.2477
15624TIP3   OH268286   3.323   2.146   4.559  0.1323 -0.2375 -0.2409
15624TIP3    H168287   3.417   2.153   4.577  0.1297 -0.5705 -0.1003
15624TIP3    H268288   3.302   2.228   4.513  0.2733  0.3080  0.6472
15625TIP3   OH268289   1.096   1.236   2.213  0.0532  0.4380  0.0960
15625TIP3    H168290   1.133   1.320   2.186 -0.0966  0.2463 -0.7236
15625TIP3    H268291   1.015   1.228   2.162 -0.8390  0.5827  1.4362
15626TIP3   OH268292   4.852   5.861  13.083  0.0586  0.0644 -0.0481
15626TIP3    H168293   4.799   5.786  13.112 -0.8900  1.5998  2.4989
15626TIP3    H268294   4.795   5.909  13.024 -0.1856 -0.0121  0.1218
15627TIP3   OH268295   3.958   2.203   5.412  0.0545  0.1965  0.0180
15627TIP3    H168296   3.955   2.215   5.317 -0.9732 -2.1878 -0.3357
15627TIP3    H268297   3.868   2.181   5.436  0.5777 -0.6717  1.3004
15628TIP3   OH268298   3.550   0.610   1.642 -0.3150  0.0889  0.0336
15628TIP3    H168299   3.605   0.538   1.674  1.1057 -0.1079 -2.5845
15628TIP3    H268300   3.601   0.689   1.664  0.2007  0.0087 -0.8259
15629TIP3   OH268301   3.361   3.886  17.161 -0.3722  0.2749 -0.2341
15629TIP3    H168302   3.329   3.832  17.089 -0.0795  1.7356 -1.5228
15629TIP3    H268303   3.376   3.972  17.122  1.6177  0.6322  1.1316
15630TIP3   OH268304   3.618   6.323   1.387  0.3066 -0.0523  0.1496
15630TIP3    H168305   3.695   6.353   1.339 -0.8195  1.4099 -0.8162
15630TIP3    H268306   3.580   6.403   1.425 -0.6233 -0.7734  0.7960
15631TIP3   OH268307   5.643   4.212  13.472 -0.6929 -0.5295  0.3605
15631TIP3    H168308   5.645   4.263  13.553 -1.2225  0.0392  0.0332
15631TIP3    H268309   5.615   4.125  13.499 -0.5726 -0.4273  0.8307
15632TIP3   OH268310   2.439   4.119  16.788 -0.3199 -0.4210  0.0439
15632TIP3    H168311   2.402   4.088  16.871  0.9108  0.4294  0.9581
15632TIP3    H268312   2.379   4.188  16.760 -0.0389  0.2204  0.9552
15633TIP3   OH268313   4.993   0.981   3.282  0.3725 -0.0087  0.2604
15633TIP3    H168314   5.060   1.043   3.257 -0.8026  1.6147  0.9280
15633TIP3    H268315   4.990   0.986   3.378  0.3070 -1.1673  0.3377
15634TIP3   OH268316   5.553   6.731   4.796  0.6225 -0.5743 -0.2894
15634TIP3    H168317   5.596   6.720   4.711 -1.5968 -0.7414 -1.4630
15634TIP3    H268318   5.625   6.735   4.859  2.5710  2.6227 -2.4143
15635TIP3   OH268319   3.349   0.128  16.251 -0.0686 -0.4766  0.0387
15635TIP3    H168320   3.359   0.128  16.155  0.7988 -0.0124  0.1184
15635TIP3    H268321   3.306   0.211  16.270  1.4297  0.2909  0.1910
15636TIP3   OH268322   3.383   0.618  14.126  0.0953  0.6084  0.3916
15636TIP3    H168323   3.343   0.666  14.053 -0.6758 -0.8154 -0.1464
15636TIP3    H268324   3.460   0.670  14.148 -1.6921  3.1628  1.1152
15637TIP3   OH268325   5.649   0.978   0.999  0.7478  0.1540  0.5116
15637TIP3    H168326   5.565   1.007   0.962  0.4814  0.7624  1.5422
15637TIP3    H268327   5.689   1.059   1.032  0.8629 -0.3927  1.7485
15638TIP3   OH268328   3.748   3.098  16.782 -0.1463  0.7849 -0.2547
15638TIP3    H168329   3.705   3.037  16.842  1.8349  0.4645  0.9283
15638TIP3    H268330   3.703   3.085  16.698 -0.4047 -1.6342  0.1851
15639TIP3   OH268331   6.300   1.800  11.867  0.3462  0.6234  0.1955
15639TIP3    H168332   6.370   1.848  11.823 -0.1919 -0.6954 -2.2789
15639TIP3    H268333   6.283   1.725  11.810 -1.9176 -0.0267  1.6006
15640TIP3   OH268334   5.497   5.262   3.244 -0.3778  0.7615  0.1439
15640TIP3    H168335   5.508   5.325   3.172 -0.6624 -0.5801 -1.1181
15640TIP3    H268336   5.567   5.198   3.230 -2.1531 -1.0939 -0.6654
15641TIP3   OH268337   2.794   1.688   3.298 -0.1616 -0.1470  0.2770
15641TIP3    H168338   2.743   1.690   3.217  0.0072 -0.6739  0.1503
15641TIP3    H268339   2.748   1.748   3.357 -1.7129 -1.5766  0.6087
15642TIP3   OH268340   1.419   1.220   5.572 -0.1948 -0.3828 -0.2329
15642TIP3    H168341   1.468   1.302   5.581 -1.4609  0.3831 -0.1534
15642TIP3    H268342   1.390   1.219   5.481 -0.3765 -0.6253 -0.1734
15643TIP3   OH268343   0.028   3.779   5.431  0.4581 -0.6960 -0.1980
15643TIP3    H168344  -0.005   3.835   5.501 -0.8977 -1.4051 -0.2324
15643TIP3    H268345   0.112   3.817   5.407  0.5468  0.0624  1.2255
15644TIP3   OH268346   5.767   4.039  11.144  0.3303  0.7064 -0.1771
15644TIP3    H168347   5.797   4.121  11.106 -1.8345  1.0204 -1.3617
15644TIP3    H268348   5.705   4.004  11.080 -2.3132  0.4634  2.3056
15645TIP3   OH268349   1.919   4.654   1.248  0.4135  0.4680 -0.6341
15645TIP3    H168350   1.873   4.729   1.211 -0.4770 -0.5036 -1.5463
15645TIP3    H268351   1.974   4.622   1.177 -0.4970 -0.7606 -0.8074
15646TIP3   OH268352   0.460   3.157   0.100 -0.3088 -0.0302  0.5194
15646TIP3    H168353   0.534   3.215   0.116 -1.0133  1.3545 -0.8886
15646TIP3    H268354   0.460   3.144   0.005 -2.3378  0.7272  0.3557
15647TIP3   OH268355   6.715   2.929   0.687 -0.1155  0.3008 -0.2777
15647TIP3    H168356   6.641   2.984   0.713  0.3182  0.4878  0.5749
15647TIP3    H268357   6.696   2.906   0.596  0.0217  2.4204 -0.8860
15648TIP3   OH268358   0.684   3.367   0.164 -0.2339  0.4332  0.3056
15648TIP3    H168359   0.771   3.334   0.140  0.3862  0.7708  1.9809
15648TIP3    H268360   0.662   3.428   0.094 -0.0054 -1.0638 -1.1630
15649TIP3   OH268361   3.687   0.115  12.640 -0.1485  0.3275 -0.6625
15649TIP3    H168362   3.611   0.172  12.632 -1.5777 -1.5820 -1.5242
15649TIP3    H268363   3.751   0.167  12.689 -1.0808  2.8791 -1.9428
15650TIP3   OH268364   5.754   5.506  15.318 -0.0327 -0.4044  0.3837
15650TIP3    H168365   5.713   5.554  15.389  0.0207 -0.3554  0.3811
15650TIP3    H268366   5.693   5.516  15.244 -0.2142 -0.6707  0.4948
15651TIP3   OH268367   1.674   2.898  15.306  0.7836  0.0146  0.3287
15651TIP3    H168368   1.650   2.890  15.398 -2.3684 -1.3703 -0.4957
15651TIP3    H268369   1.768   2.881  15.305  0.7286 -1.0475  3.1533
15652TIP3   OH268370   1.464   4.046  17.120  0.3136 -0.2348 -0.3825
15652TIP3    H168371   1.489   4.138  17.108  2.5947 -0.7597 -0.1827
15652TIP3    H268372   1.488   4.027  17.211  1.1430 -1.3561 -0.8109
15653TIP3   OH268373   2.973   5.370   4.875 -0.0576  0.2918 -0.3855
15653TIP3    H168374   2.919   5.419   4.813  0.1311  0.7953 -0.1610
15653TIP3    H268375   2.921   5.368   4.955  0.3525  1.0038 -0.0883
15654TIP3   OH268376   4.761   1.477   1.551  0.1144 -0.6663 -0.4286
15654TIP3    H168377   4.833   1.533   1.579 -0.7625  1.8080 -2.6272
15654TIP3    H268378   4.801   1.412   1.494  0.9719 -1.4266  0.9903
15655TIP3   OH268379   4.201   6.163  15.008 -0.1668  1.0349 -0.0132
15655TIP3    H168380   4.108   6.183  15.002 -0.3161  0.6093  0.7738
15655TIP3    H268381   4.242   6.246  15.031 -0.4709  1.0170  0.6083
15656TIP3   OH268382   5.617   2.224   5.244 -0.3532  0.2881  0.1302
15656TIP3    H168383   5.699   2.187   5.276  0.9400  2.5706 -0.3374
15656TIP3    H268384   5.559   2.222   5.320  0.0184 -1.5154  0.4200
15657TIP3   OH268385   1.608   6.682  15.006  0.0800 -0.3603 -0.8391
15657TIP3    H168386   1.527   6.638  14.979 -0.0931  0.2721 -1.3820
15657TIP3    H268387   1.630   6.643  15.090 -1.1935 -0.0403 -0.3361
15658TIP3   OH268388   4.242   3.079  16.784  0.4370  0.1961 -0.1800
15658TIP3    H168389   4.250   2.986  16.805  0.3616  0.5640  1.5979
15658TIP3    H268390   4.319   3.097  16.729  0.9502 -0.7184  0.2086
15659TIP3   OH268391   1.692   1.835  12.744  0.3870 -0.0963 -0.1070
15659TIP3    H168392   1.612   1.790  12.719  0.2700  0.8173 -1.5157
15659TIP3    H268393   1.723   1.876  12.663  1.4399  0.8515  0.7326
15660TIP3   OH268394   3.679   5.145  11.594 -0.0483 -0.0798 -0.0692
15660TIP3    H168395   3.700   5.091  11.518 -0.1498  1.4084 -1.1889
15660TIP3    H268396   3.635   5.222  11.558 -0.9252  0.2437  1.5861
15661TIP3   OH268397   2.213   3.691   4.328 -0.0979  0.6561  0.0282
15661TIP3    H168398   2.256   3.610   4.301 -0.3113 -0.2984  2.3738
15661TIP3    H268399   2.282   3.743   4.370 -0.6279  0.2507  1.4500
15662TIP3   OH268400   2.855   2.859  12.021  0.3432  0.0702 -0.4379
15662TIP3    H168401   2.874   2.876  11.929 -0.9217  1.3727 -0.4932
15662TIP3    H268402   2.783   2.797  12.021  1.6982 -1.5851 -0.2638
15663TIP3   OH268403   6.702   3.864   5.708  0.2028 -0.0034  0.2710
15663TIP3    H168404   6.680   3.773   5.690 -0.2489 -0.0937  1.2533
15663TIP3    H268405   6.723   3.866   5.801  0.0166  0.9247  0.3006
15664TIP3   OH268406   4.637   0.566  13.953  0.4062 -0.0400  0.0115
15664TIP3    H168407   4.644   0.649  14.002  0.8176 -0.0435 -0.0418
15664TIP3    H268408   4.545   0.543  13.961  0.6932 -0.7522  1.9658
15665TIP3   OH268409   1.283   3.519  16.554 -0.3503 -0.3301  0.0192
15665TIP3    H168410   1.351   3.586  16.556 -1.1577  0.5148 -0.3184
15665TIP3    H268411   1.285   3.486  16.464 -1.9811  1.3962 -0.6982
15666TIP3   OH268412   2.177   5.652  15.634 -0.2102 -0.0014  0.1555
15666TIP3    H168413   2.108   5.674  15.697 -2.1894 -0.1423 -1.8275
15666TIP3    H268414   2.188   5.731  15.582 -1.1674 -0.9002 -1.5098
15667TIP3   OH268415   2.848   2.655   2.201 -0.0928  0.2979  0.0331
15667TIP3    H168416   2.769   2.624   2.155 -0.5694 -0.5826  1.3581
15667TIP3    H268417   2.916   2.592   2.175 -0.8625 -1.5088  2.0700
15668TIP3   OH268418   2.763   2.717  16.655 -0.1140  0.0900 -0.1531
15668TIP3    H168419   2.707   2.744  16.581 -1.4911 -0.2051  0.7412
15668TIP3    H268420   2.727   2.764  16.730 -0.2498 -1.3964  0.7596
15669TIP3   OH268421   0.702   0.816   4.225 -0.0471 -0.4329  0.2384
15669TIP3    H168422   0.795   0.797   4.212 -0.1916 -1.6170  0.7986
15669TIP3    H268423   0.670   0.743   4.279 -1.1959  0.2035  0.4460
15670TIP3   OH268424   5.018   2.860  14.093  0.1506 -0.1393  0.0374
15670TIP3    H168425   5.085   2.909  14.140 -0.4221  0.6415  0.0443
15670TIP3    H268426   4.947   2.922  14.080  0.1175 -0.4692 -1.4826
15671TIP3   OH268427   1.014   1.448   1.608 -0.0539  0.3095  0.0046
15671TIP3    H168428   1.087   1.432   1.548  1.4174  0.5296  1.6433
15671TIP3    H268429   0.958   1.511   1.563  1.3265  0.9438 -0.8874
15672TIP3   OH268430   3.447   0.506  15.748  0.1161 -0.3781 -0.0965
15672TIP3    H168431   3.364   0.543  15.720  0.4925  0.8857  0.4083
15672TIP3    H268432   3.435   0.489  15.842  0.6441  0.4812  0.1398
15673TIP3   OH268433   5.840   1.939  13.331  0.2804  0.3540  0.4992
15673TIP3    H168434   5.880   2.019  13.298  1.2684 -0.3100  0.0268
15673TIP3    H268435   5.810   1.893  13.252 -2.3091  1.2406  0.8655
15674TIP3   OH268436   1.346   5.450   1.521  1.0845  0.7461  0.3320
15674TIP3    H168437   1.399   5.433   1.443 -0.2238 -0.5817 -0.3120
15674TIP3    H268438   1.404   5.433   1.595  2.2454  1.6959 -0.3298
15675TIP3   OH268439   1.852   2.539  16.459  0.2396  0.0032 -0.2157
15675TIP3    H168440   1.917   2.503  16.399 -0.2399 -0.6449 -0.3601
15675TIP3    H268441   1.776   2.481  16.451 -0.0162  0.1894  0.6474
15676TIP3   OH268442   2.272   2.035  17.193  0.2029 -0.0176 -0.4456
15676TIP3    H168443   2.289   2.018  17.100  1.4552  0.5922 -0.3508
15676TIP3    H268444   2.273   2.130  17.201  0.2116 -0.0677  0.2137
15677TIP3   OH268445   1.151   6.760  15.810 -0.3555 -0.0916 -0.3010
15677TIP3    H168446   1.128   6.826  15.875 -3.3558 -0.7715 -0.5521
15677TIP3    H268447   1.078   6.698  15.811  0.2935 -1.0543 -3.1261
15678TIP3   OH268448   4.241   2.421   3.583 -1.0112  0.6718  0.1175
15678TIP3    H168449   4.268   2.382   3.500 -0.4017 -0.1617  0.6924
15678TIP3    H268450   4.259   2.515   3.573  3.8070  0.0783  0.9957
15679TIP3   OH268451   1.058   4.929   0.048 -0.8198  0.2161 -0.2945
15679TIP3    H168452   0.968   4.954   0.029 -0.4783  0.6866 -1.3547
15679TIP3    H268453   1.111   4.994   0.003  0.0613  0.3551  0.8788
15680TIP3   OH268454   2.774   5.673   3.434 -0.6270 -0.3847  0.1477
15680TIP3    H168455   2.830   5.603   3.468  0.1143 -0.8295 -1.8232
15680TIP3    H268456   2.819   5.753   3.460  0.9415 -0.7353 -1.3017
15681TIP3   OH268457   5.863   1.235   3.082 -1.0846  0.4356 -0.4804
15681TIP3    H168458   5.848   1.308   3.022 -1.4187  0.2185 -0.6676
15681TIP3    H268459   5.957   1.232   3.095 -0.7974 -0.6588 -2.4620
15682TIP3   OH268460   0.007   3.747  11.672  0.8170 -0.4453  0.1666
15682TIP3    H168461   0.039   3.835  11.693  0.1460  0.1469 -1.1796
15682TIP3    H268462  -0.088   3.756  11.669  0.5628 -1.7207  2.0831
15683TIP3   OH268463   3.091   1.193  14.884 -0.1692 -0.1857  0.6485
15683TIP3    H168464   3.061   1.118  14.934 -1.3461 -0.5169 -0.5069
15683TIP3    H268465   3.112   1.157  14.797 -1.7065  0.9422 -0.2421
15684TIP3   OH268466   0.566   0.025  16.832  0.2692 -0.2304  0.0992
15684TIP3    H168467   0.545   0.088  16.901 -2.9552 -2.6548  1.6122
15684TIP3    H268468   0.635  -0.030  16.869 -1.5113 -1.5815  1.6191
15685TIP3   OH268469   2.103   0.003   1.366 -0.6105  0.2509 -0.0697
15685TIP3    H168470   2.134  -0.007   1.276  2.6273  1.2046  0.7746
15685TIP3    H268471   2.088   0.096   1.377 -0.4818  0.2098  0.5096
15686TIP3   OH268472   5.432   4.152  11.036 -0.0098 -0.5225  0.0005
15686TIP3    H168473   5.407   4.212  10.967 -0.2550 -0.0194  0.5198
15686TIP3    H268474   5.525   4.134  11.020  0.1475  0.2425  0.0248
15687TIP3   OH268475   5.038   2.267   3.786 -0.0910 -0.3939 -0.2802
15687TIP3    H168476   4.942   2.264   3.784 -0.1715  0.1911  1.2877
15687TIP3    H268477   5.062   2.207   3.857  0.6306  0.4271  0.1880
15688TIP3   OH268478   3.746   3.948  11.827 -0.2579 -0.3434  0.1819
15688TIP3    H168479   3.692   3.876  11.859  1.2363 -0.9967  1.3266
15688TIP3    H268480   3.683   4.010  11.791 -1.5627 -2.3496 -1.1927
15689TIP3   OH268481   3.861   2.044   5.687 -0.1668  0.0206 -0.4267
15689TIP3    H168482   3.795   2.112   5.701 -0.2643 -0.2756  0.6424
15689TIP3    H268483   3.942   2.082   5.722  0.1496  0.1932 -1.2970
15690TIP3   OH268484   2.377   1.785   0.785  0.0424  0.3913  0.4153
15690TIP3    H168485   2.358   1.854   0.722 -1.4416 -0.7645 -0.4752
15690TIP3    H268486   2.424   1.719   0.734  1.6336  0.7760  1.3034
15691TIP3   OH268487   6.334   3.763  12.648  0.1565 -0.6712  0.1888
15691TIP3    H168488   6.298   3.684  12.606 -1.5519  0.6492 -0.9554
15691TIP3    H268489   6.391   3.801  12.582 -2.4943  1.3827 -1.1429
15692TIP3   OH268490   5.506   5.387   5.457 -0.0781  0.3195  0.1922
15692TIP3    H168491   5.511   5.387   5.361 -0.5464 -0.1979  0.1627
15692TIP3    H268492   5.422   5.428   5.477 -0.8521 -1.2275  0.3060
15693TIP3   OH268493   3.040   0.372   0.896 -0.3821  0.9278 -0.4361
15693TIP3    H168494   2.956   0.337   0.868 -0.3251  0.7507 -0.3824
15693TIP3    H268495   3.082   0.301   0.944 -1.3966  1.8913  2.0310
15694TIP3   OH268496   5.951   6.386  11.051 -0.0371  0.1099  0.9758
15694TIP3    H168497   5.901   6.467  11.035 -0.7417 -0.5329 -0.2056
15694TIP3    H268498   6.023   6.391  10.988  0.5636  0.3451  1.6797
15695TIP3   OH268499   1.625   5.216  14.643 -0.2987  0.2272  0.3580
15695TIP3    H168500   1.666   5.129  14.644 -1.9977 -0.6230  1.1017
15695TIP3    H268501   1.678   5.266  14.581  1.8893 -0.7326  1.3251
15696TIP3   OH268502   3.880   6.169  12.216 -0.0172 -0.3783  0.0459
15696TIP3    H168503   3.900   6.176  12.123 -0.1543  0.4194  0.0672
15696TIP3    H268504   3.881   6.260  12.248 -0.6047 -0.5865  0.6872
15697TIP3   OH268505   3.047   2.212   5.160  0.0889 -0.5740  0.1402
15697TIP3    H168506   2.997   2.173   5.088 -1.1355 -0.4223  0.8773
15697TIP3    H268507   3.044   2.147   5.229  0.1454 -0.1802  0.5160
15698TIP3   OH268508   4.718   5.222   4.045 -0.1484 -0.4239  0.4827
15698TIP3    H168509   4.657   5.290   4.074 -0.4827 -0.8611  0.8211
15698TIP3    H268510   4.661   5.149   4.020  0.2088 -0.5772  0.1225
15699TIP3   OH268511   6.152   1.081  16.074 -0.4233  0.1763  0.4286
15699TIP3    H168512   6.109   1.114  16.153 -0.8060  1.9736 -0.4789
15699TIP3    H268513   6.243   1.108  16.082  0.1483 -1.8782  1.4079
15700TIP3   OH268514   1.625   2.685   3.505  0.7431  0.0272 -0.0821
15700TIP3    H168515   1.683   2.612   3.484  0.6270  0.1752 -0.9795
15700TIP3    H268516   1.553   2.646   3.554  1.7762 -0.1004  1.3856
15701TIP3   OH268517   3.121   4.713   3.804  0.2522  0.1855  0.1535
15701TIP3    H168518   3.168   4.702   3.887  0.3847  1.2870  0.2387
15701TIP3    H268519   3.185   4.753   3.745  0.7296 -2.1879 -1.0742
15702TIP3   OH268520   6.419   4.290  16.212  0.6010  0.1778  0.3007
15702TIP3    H168521   6.338   4.248  16.183 -0.3116  1.7013  0.4954
15702TIP3    H268522   6.463   4.315  16.131  0.9196 -0.7261  0.1926
15703TIP3   OH268523   4.049   1.737  14.324  0.7866 -0.5435  0.3115
15703TIP3    H168524   4.143   1.719  14.318  1.2446  1.7439 -0.3023
15703TIP3    H268525   4.043   1.832  14.321 -1.6103 -0.6647 -0.2448
15704TIP3   OH268526   4.839   4.578   5.557 -0.7195 -0.0687 -0.7368
15704TIP3    H168527   4.746   4.600   5.549 -0.6997 -0.1015 -1.0978
15704TIP3    H268528   4.853   4.561   5.650 -1.2235 -0.7361 -0.7816
15705TIP3   OH268529   4.541   4.096  14.862 -0.3563  0.4653  0.7858
15705TIP3    H168530   4.534   4.169  14.801 -1.1036  1.7919  2.3573
15705TIP3    H268531   4.453   4.087  14.898 -0.6453 -2.1942 -0.3705
15706TIP3   OH268532   5.986   1.169  16.920  0.1553 -0.0147 -0.5847
15706TIP3    H168533   5.912   1.147  16.863 -0.6157  1.1912 -0.0735
15706TIP3    H268534   6.049   1.213  16.862  0.9157 -1.8091 -1.2138
15707TIP3   OH268535   2.102   0.454   1.304 -0.1518 -0.1836  0.2368
15707TIP3    H168536   2.155   0.422   1.377  0.3379 -0.5009 -0.2511
15707TIP3    H268537   2.024   0.400   1.305  0.6048 -1.3242 -0.4930
15708TIP3   OH268538   2.832   6.397   1.227 -0.7998 -0.0333 -0.3063
15708TIP3    H168539   2.754   6.422   1.277 -0.1319  1.7435 -0.0770
15708TIP3    H268540   2.903   6.396   1.292 -0.0066  1.8728 -1.0571
15709TIP3   OH268541   0.645   5.884  12.209  1.1515  0.2813 -0.0374
15709TIP3    H168542   0.654   5.941  12.133  0.8322  1.0107  0.4580
15709TIP3    H268543   0.562   5.839  12.195 -0.5967  2.7883  1.3647
15710TIP3   OH268544   4.411   6.749   0.237  0.0193  0.7142 -0.5955
15710TIP3    H168545   4.456   6.743   0.153  1.1138  0.7339 -0.0162
15710TIP3    H268546   4.454   6.686   0.294 -0.4986  0.9278  0.0592
15711TIP3   OH268547   0.795   5.594   1.083 -0.9344  0.5039 -0.0107
15711TIP3    H168548   0.840   5.658   1.028  0.1129  0.2260  0.4819
15711TIP3    H268549   0.843   5.597   1.166 -1.2875 -0.4352  0.2400
15712TIP3   OH268550   2.950   5.744   1.590  0.3570  0.3975 -0.7210
15712TIP3    H168551   2.984   5.681   1.653 -1.0845  0.8073  0.5184
15712TIP3    H268552   2.976   5.829   1.624  0.0417  0.5998 -0.9834
15713TIP3   OH268553   2.206   5.162   1.678  1.0814  0.4182  0.1593
15713TIP3    H168554   2.207   5.247   1.633 -2.0778  0.2669 -0.4141
15713TIP3    H268555   2.125   5.163   1.729  1.1305 -2.1641  0.4036
15714TIP3   OH268556   0.488   3.164  14.707 -0.3392  0.2710  0.3901
15714TIP3    H168557   0.536   3.207  14.635  0.2769  0.0120  0.6405
15714TIP3    H268558   0.551   3.101  14.743 -0.7402  0.2037  0.9772
15715TIP3   OH268559   3.183   2.979   1.176  0.7097 -0.5144  0.3853
15715TIP3    H168560   3.264   2.970   1.126 -0.3918 -0.2543 -1.5519
15715TIP3    H268561   3.137   2.896   1.162  0.0738 -0.1669  0.3701
15716TIP3   OH268562   6.323   2.867   5.210 -0.4003  0.0637  1.0036
15716TIP3    H168563   6.287   2.781   5.231  1.3580 -0.9871 -0.0393
15716TIP3    H268564   6.248   2.918   5.180 -1.5254 -0.9954  1.9182
15717TIP3   OH268565   5.827   0.003  11.545  0.2564  0.0537  0.8027
15717TIP3    H168566   5.868  -0.075  11.508  0.9942  0.7218  0.1678
15717TIP3    H268567   5.818  -0.016  11.639 -0.8034 -1.3030  0.4467
15718TIP3   OH268568   3.466   1.122  12.597 -0.2533 -0.2318  0.0603
15718TIP3    H168569   3.467   1.042  12.544 -0.9977 -0.2490  0.0608
15718TIP3    H268570   3.551   1.163  12.581 -0.0542 -0.7846 -0.3086
15719TIP3   OH268571   4.893   3.670   2.075  0.4140  0.0578  0.1013
15719TIP3    H168572   4.927   3.598   2.128 -0.3483 -0.1752  0.2891
15719TIP3    H268573   4.930   3.749   2.114 -0.7752 -0.0454  1.5088
15720TIP3   OH268574   1.937   4.220  17.108 -0.0064  0.4945  0.5398
15720TIP3    H168575   1.880   4.277  17.158 -0.4334  0.3810  0.1911
15720TIP3    H268576   1.880   4.182  17.041  1.0321  2.6744 -1.7408
15721TIP3   OH268577   4.051   6.268  14.246 -0.3675 -0.6869 -0.1734
15721TIP3    H168578   4.039   6.187  14.196  1.1186 -0.8764 -0.2682
15721TIP3    H268579   4.006   6.335  14.194 -1.1901 -1.3597 -0.3409
15722TIP3   OH268580   1.434   1.987  16.126 -0.0398 -0.1371  0.4431
15722TIP3    H168581   1.381   1.966  16.049 -1.2581  0.5357  1.0789
15722TIP3    H268582   1.492   2.056  16.096  0.5473 -0.9146 -0.2730
15723TIP3   OH268583   2.509   2.754   3.105  0.0900 -0.4500  0.4553
15723TIP3    H168584   2.418   2.728   3.118 -0.4850  1.5534  0.7551
15723TIP3    H268585   2.541   2.697   3.035 -1.5231 -0.8736  0.0316
15724TIP3   OH268586   0.445   2.536  15.262  0.1107 -0.3763 -0.1401
15724TIP3    H168587   0.350   2.537  15.269  0.1443 -0.8727  0.4770
15724TIP3    H268588   0.475   2.496  15.344  0.8827  0.4593  0.0012
15725TIP3   OH268589   3.269   0.105  15.718  0.5358  0.7609  0.5905
15725TIP3    H168590   3.259   0.185  15.667  1.9144  1.4934  1.4208
15725TIP3    H268591   3.318   0.046  15.660 -0.0343  0.6971  0.1696
15726TIP3   OH268592   2.042   0.444   4.263  0.2995  0.1931  0.0651
15726TIP3    H168593   2.023   0.497   4.341 -2.2620  1.5816 -1.3919
15726TIP3    H268594   2.123   0.398   4.285  0.1262  1.1598  3.2121
15727TIP3   OH268595   1.839   5.127   2.763  0.6495 -0.3633  0.2193
15727TIP3    H168596   1.795   5.172   2.691 -0.4958 -0.3840  0.8852
15727TIP3    H268597   1.782   5.140   2.838  1.3094 -1.2266  0.8917
15728TIP3   OH268598   5.195   3.744   2.800  0.0246  0.5717  0.3246
15728TIP3    H168599   5.103   3.723   2.813 -0.3359 -0.1955 -2.6993
15728TIP3    H268600   5.195   3.834   2.769  0.5174  1.2618  2.2497
15729TIP3   OH268601   1.273   2.861   2.894 -0.1259  0.0077 -0.2090
15729TIP3    H168602   1.267   2.777   2.849 -2.6102 -0.7394  1.2943
15729TIP3    H268603   1.361   2.893   2.874 -0.0794 -1.5775 -3.1313
15730TIP3   OH268604   4.310   4.086  15.005 -0.0272 -0.2124 -0.8044
15730TIP3    H168605   4.315   4.034  15.086  1.7219 -1.1105 -1.4411
15730TIP3    H268606   4.276   4.171  15.034 -1.3509 -1.1352  0.5274
15731TIP3   OH268607   2.185   1.088   0.182  0.0263 -0.3265  0.2255
15731TIP3    H168608   2.093   1.114   0.178  0.3196  0.7606  0.1066
15731TIP3    H268609   2.208   1.067   0.091  0.0406 -0.0267  0.1570
15732TIP3   OH268610   2.985   5.154  12.292 -0.1137  1.0997  0.3278
15732TIP3    H168611   3.063   5.101  12.279 -0.1734  0.8499  0.9743
15732TIP3    H268612   2.958   5.178  12.203 -2.2578 -3.0810 -0.4316
15733TIP3   OH268613   0.231   3.958  13.586  0.1642  0.8713  0.1250
15733TIP3    H168614   0.189   3.969  13.501  0.4006 -2.3236 -0.4987
15733TIP3    H268615   0.310   4.012  13.581 -0.0818  1.1308 -1.4922
15734TIP3   OH268616   5.388   2.364   4.446 -0.1801  0.6840 -0.0554
15734TIP3    H168617   5.370   2.352   4.353  0.7717  1.2835 -0.3239
15734TIP3    H268618   5.371   2.279   4.485 -0.1599  0.3124 -0.8502
15735TIP3   OH268619   2.163   6.719   5.803  0.0449  0.2837 -0.0754
15735TIP3    H168620   2.232   6.659   5.829  0.6707  0.4317 -1.3072
15735TIP3    H268621   2.102   6.721   5.877  0.9092 -0.5194  0.6652
15736TIP3   OH268622   3.139   2.667  16.716  0.2605 -0.1286 -0.5992
15736TIP3    H168623   3.174   2.637  16.800 -1.2688 -1.2087 -0.3272
15736TIP3    H268624   3.179   2.609  16.651 -0.8458 -1.2352 -0.3096
15737TIP3   OH268625   3.443   4.536   5.459 -0.1029  0.0692  0.0985
15737TIP3    H168626   3.492   4.555   5.378  0.7871  2.6055  1.1059
15737TIP3    H268627   3.436   4.441   5.462 -1.0525 -0.1077 -3.4431
15738TIP3   OH268628   3.499   6.172   2.362 -0.0543  0.4118 -0.4313
15738TIP3    H168629   3.474   6.261   2.387 -1.1891  0.2218 -0.8098
15738TIP3    H268630   3.418   6.121   2.369  0.6196 -0.6503 -0.0081
15739TIP3   OH268631   4.420   3.372  15.824 -1.1254 -0.1056 -0.2732
15739TIP3    H168632   4.502   3.322  15.824  1.2677  3.3619  2.2449
15739TIP3    H268633   4.426   3.429  15.748 -0.6723  0.7995  0.4184
15740TIP3   OH268634   2.605   3.078   4.907 -0.3987  0.5344 -0.1576
15740TIP3    H168635   2.595   3.089   4.812  1.2282  1.0788 -0.2865
15740TIP3    H268636   2.699   3.073   4.921 -0.6477 -0.4468  1.3546
15741TIP3   OH268637   4.562   1.826  10.973 -0.8276 -0.7079  0.3050
15741TIP3    H168638   4.605   1.880  10.907 -1.6347  0.0196  0.3688
15741TIP3    H268639   4.477   1.867  10.987 -1.4594 -1.9801  0.3737
15742TIP3   OH268640   3.589   2.240   2.285  0.1044 -0.2694  0.5097
15742TIP3    H168641   3.502   2.267   2.317  0.5309  0.2889  1.2255
15742TIP3    H268642   3.589   2.264   2.193  0.0620  1.2209  0.8716
15743TIP3   OH268643   2.424   4.085  15.764 -0.0570 -0.1723 -0.0048
15743TIP3    H168644   2.447   4.098  15.856 -2.3705 -0.1952  0.6284
15743TIP3    H268645   2.476   4.010  15.737  1.8046  0.7590  0.8102
15744TIP3   OH268646   2.149   4.161   5.475  0.1031  0.3905 -0.0458
15744TIP3    H168647   2.201   4.216   5.415 -1.0640  1.9422  0.2896
15744TIP3    H268648   2.137   4.216   5.552 -2.6464  0.4393 -0.4095
15745TIP3   OH268649   0.084   6.530  13.857 -0.1667 -0.2025  0.0753
15745TIP3    H168650   0.081   6.603  13.919  1.3756  0.1421 -0.2156
15745TIP3    H268651  -0.004   6.493  13.860 -0.8466  1.3521  0.6039
15746TIP3   OH268652   4.374   4.143   2.650 -0.2184 -0.0885  0.1772
15746TIP3    H168653   4.282   4.116   2.647  0.6617 -3.4126 -0.0386
15746TIP3    H268654   4.421   4.075   2.603  2.3118  2.0901 -0.6839
15747TIP3   OH268655   1.825   3.512  13.615  0.1802  0.4461 -0.1146
15747TIP3    H168656   1.734   3.540  13.612  0.4819  1.5714  0.4326
15747TIP3    H268657   1.821   3.417  13.621 -0.9565  0.4804 -0.1476
15748TIP3   OH268658   1.647   0.275  14.712 -0.2017  0.1736  0.3089
15748TIP3    H168659   1.559   0.256  14.679  1.0358 -0.0603 -3.3173
15748TIP3    H268660   1.685   0.189  14.729 -0.4757  0.2585  1.4290
15749TIP3   OH268661   0.120   1.043  13.268 -0.2899  0.3437  0.2754
15749TIP3    H168662   0.056   1.000  13.324  0.2836  0.9224  1.3900
15749TIP3    H268663   0.127   0.986  13.191 -1.2745 -0.3183  0.6647
15750TIP3   OH268664   3.558   0.810  15.838  0.5523 -0.1867  0.2983
15750TIP3    H168665   3.565   0.876  15.769 -1.7950 -0.9813 -0.7963
15750TIP3    H268666   3.523   0.857  15.913  1.3995  0.3237  0.3829
15751TIP3   OH268667   5.736   6.531   3.085  0.0797  0.3687 -0.0769
15751TIP3    H168668   5.704   6.608   3.037  0.1086  1.0155  0.9213
15751TIP3    H268669   5.731   6.459   3.021  1.8526  1.5458 -1.6636
15752TIP3   OH268670   6.672   6.583   2.256 -0.1386  0.2906 -0.0153
15752TIP3    H168671   6.610   6.610   2.188  0.6131 -0.0054 -0.8320
15752TIP3    H268672   6.731   6.522   2.213  0.7778  0.6202  0.7170
15753TIP3   OH268673   1.877   4.664  15.931 -0.3565 -0.2039 -0.2249
15753TIP3    H168674   1.917   4.748  15.908 -0.5081 -0.0700 -0.0135
15753TIP3    H268675   1.867   4.618  15.848 -1.1725  0.3890 -0.4730
15754TIP3   OH268676   4.558   3.983  12.403 -0.1982 -0.3033  0.2815
15754TIP3    H168677   4.520   3.897  12.383 -0.1407 -0.2505 -0.0547
15754TIP3    H268678   4.651   3.973  12.383 -0.1646 -0.2069  0.3906
15755TIP3   OH268679   0.648   5.821  15.047  0.2302  0.5254  0.2234
15755TIP3    H168680   0.583   5.868  15.099 -1.3492 -1.7433  0.4418
15755TIP3    H268681   0.626   5.842  14.956 -0.3734  0.3315  0.3217
15756TIP3   OH268682   1.054   2.983  16.559  0.6836  0.0501 -0.0372
15756TIP3    H168683   1.104   3.032  16.624 -0.0755  1.7486 -0.6498
15756TIP3    H268684   1.007   3.051  16.510 -2.6607 -1.4143  0.8386
15757TIP3   OH268685   5.159   0.455   1.185  0.5337  0.2229 -0.4006
15757TIP3    H168686   5.093   0.500   1.238  0.4508 -1.1672  0.7656
15757TIP3    H268687   5.222   0.423   1.249  0.9025 -0.7596 -1.2289
15758TIP3   OH268688   2.009   2.940  14.417 -0.1759  0.2030  0.3022
15758TIP3    H168689   2.081   2.885  14.449 -0.3034 -0.4316 -0.4730
15758TIP3    H268690   2.047   3.028  14.412 -0.1183  0.3074  2.0440
15759TIP3   OH268691   4.990   4.705  14.497  0.0551  0.1560  0.0114
15759TIP3    H168692   5.010   4.611  14.493 -0.1524  0.1140 -0.0871
15759TIP3    H268693   4.964   4.727  14.407  1.7402  0.6824 -0.3761
15760TIP3   OH268694   3.075   1.674   1.685  0.1166 -0.0241  0.1808
15760TIP3    H168695   3.152   1.641   1.732  1.0583 -1.1316 -2.0127
15760TIP3    H268696   3.107   1.695   1.598 -1.7574  1.1063 -0.2803
15761TIP3   OH268697   1.621   4.580   3.952 -0.0417 -0.5464  0.5859
15761TIP3    H168698   1.709   4.584   3.990  1.7770 -3.3528 -2.7234
15761TIP3    H268699   1.573   4.520   4.010  0.8938 -0.5823  1.3485
15762TIP3   OH268700   0.078   2.053   5.408 -0.1150 -0.0181  0.4285
15762TIP3    H168701   0.022   2.116   5.454 -0.4353 -0.3530  0.5026
15762TIP3    H268702   0.149   2.036   5.470 -0.1584  0.0825  0.5082
15763TIP3   OH268703   5.621   0.716  11.286  0.2892 -0.0329  0.1945
15763TIP3    H168704   5.682   0.653  11.248 -2.0157 -1.7628 -0.8606
15763TIP3    H268705   5.544   0.712  11.230 -0.4592  2.8622  0.8336
15764TIP3   OH268706   6.439   0.208  11.304 -0.2848  0.0127 -0.3196
15764TIP3    H168707   6.533   0.191  11.307 -0.4994 -1.3106 -0.7003
15764TIP3    H268708   6.411   0.175  11.218 -1.1187  0.2640 -0.1530
15765TIP3   OH268709   6.291   6.200  17.246  0.1545  0.2724 -0.4831
15765TIP3    H168710   6.378   6.238  17.232  0.4551 -1.1018 -3.2061
15765TIP3    H268711   6.302   6.107  17.225 -1.7403 -0.1659  0.2409
15766TIP3   OH268712   4.271   2.350   3.314 -0.0544 -0.1474  0.3729
15766TIP3    H168713   4.361   2.370   3.290  0.1172  0.0900  1.1923
15766TIP3    H268714   4.270   2.255   3.326 -0.2227 -0.3167 -0.8597
15767TIP3   OH268715   5.848   3.226   5.192  0.0875  0.2060  0.3757
15767TIP3    H168716   5.901   3.306   5.200 -0.4378  1.0080 -2.7877
15767TIP3    H268717   5.870   3.191   5.106 -2.9799 -0.5468 -0.2208
15768TIP3   OH268718   5.917   4.545  16.186 -0.2396  0.0897  0.2277
15768TIP3    H168719   5.884   4.634  16.197  1.7480  0.8454  0.5061
15768TIP3    H268720   5.992   4.554  16.128 -0.9631 -1.6614 -1.0490
15769TIP3   OH268721   5.671   1.410  16.423  0.1367  0.0403 -0.1509
15769TIP3    H168722   5.749   1.396  16.370  0.8616  1.4646  0.4845
15769TIP3    H268723   5.698   1.474  16.489 -0.6553 -1.8231  2.1129
15770TIP3   OH268724   2.361   4.623  15.440 -0.1401  0.5018 -0.5458
15770TIP3    H168725   2.330   4.540  15.404 -2.6065  1.1114  0.0182
15770TIP3    H268726   2.395   4.600  15.526  0.3714 -0.0877 -0.8941
15771TIP3   OH268727   0.764   4.999  16.722  0.4180 -0.2040  0.0592
15771TIP3    H168728   0.702   5.031  16.787 -0.1035  1.6763 -1.2498
15771TIP3    H268729   0.844   5.050  16.737  0.8651 -0.9545  0.2759
15772TIP3   OH268730   5.794   4.739   2.956 -0.2402  0.3971  0.5591
15772TIP3    H168731   5.873   4.758   2.905 -0.9827  0.2445 -0.6944
15772TIP3    H268732   5.827   4.699   3.037  0.9104 -1.1392 -0.5983
15773TIP3   OH268733   1.685   5.003   1.291  0.3085 -0.3572 -0.2467
15773TIP3    H168734   1.624   4.930   1.305  0.6773 -0.8545 -1.1384
15773TIP3    H268735   1.667   5.063   1.363 -0.7978 -0.7882 -0.1380
15774TIP3   OH268736   1.029   2.435  12.340 -0.9784  0.0778 -0.5630
15774TIP3    H168737   0.988   2.421  12.426  1.1119  0.4580  0.5929
15774TIP3    H268738   1.095   2.366  12.335  0.3604  1.3212 -0.8660
15775TIP3   OH268739   2.233   1.388   0.032 -0.9364 -0.8048 -0.1232
15775TIP3    H168740   2.200   1.453  -0.031  1.6682 -0.0019 -0.7852
15775TIP3    H268741   2.253   1.312  -0.021  1.4008 -0.0781 -0.3785
15776TIP3   OH268742   3.039   6.558  15.762  0.2178 -0.2608  0.2271
15776TIP3    H168743   3.022   6.504  15.839  1.0144 -0.6999  0.1037
15776TIP3    H268744   3.125   6.530  15.731 -0.9714 -1.6687 -2.1205
15777TIP3   OH268745   5.435   3.087  13.090 -0.3416 -0.3668  0.0319
15777TIP3    H168746   5.360   3.097  13.031 -0.0360 -1.8879 -0.6378
15777TIP3    H268747   5.409   3.018  13.151 -0.1515  0.3189  0.9246
15778TIP3   OH268748   2.399   4.285   4.953 -0.4174  0.0469  0.0168
15778TIP3    H168749   2.327   4.242   4.907 -0.2831 -0.5013  0.2988
15778TIP3    H268750   2.393   4.251   5.043  0.4425 -0.3454 -0.0595
15779TIP3   OH268751   3.192   3.374  16.868  0.1842  0.1145 -0.2126
15779TIP3    H168752   3.102   3.361  16.899  0.3880 -0.7530  0.0378
15779TIP3    H268753   3.231   3.287  16.871  0.3400  0.0341 -2.5351
15780TIP3   OH268754   1.651   4.077   2.183  0.0262 -0.5626 -0.1903
15780TIP3    H168755   1.578   4.136   2.165  0.2781 -0.7476 -2.0122
15780TIP3    H268756   1.716   4.131   2.227 -0.3476  0.1369 -0.4953
15781TIP3   OH268757   6.748   1.498   2.112  0.3615  0.2307 -0.3579
15781TIP3    H168758   6.772   1.406   2.102 -0.0060  0.0481  0.4197
15781TIP3    H268759   6.831   1.543   2.132  0.6874  0.2174 -1.5626
15782TIP3   OH268760   1.525   1.585   1.810 -0.3046  0.5601  0.0694
15782TIP3    H168761   1.618   1.604   1.816 -0.5782  1.5576  1.6715
15782TIP3    H268762   1.498   1.627   1.728  0.2653  2.1797  0.6642
15783TIP3   OH268763   4.511   2.229  11.824  0.5053  0.4327 -0.4353
15783TIP3    H168764   4.550   2.314  11.842  1.6546 -0.6255  2.9210
15783TIP3    H268765   4.584   2.167  11.835 -0.3098 -1.0580 -2.6784
15784TIP3   OH268766   0.775   1.555   3.632 -0.5155  0.2479  0.1801
15784TIP3    H168767   0.688   1.550   3.672 -1.8076  3.8349 -1.7061
15784TIP3    H268768   0.827   1.604   3.696 -1.2107  1.8713 -0.4516
15785TIP3   OH268769   4.363   2.878  12.737  0.3565 -0.1237  0.3439
15785TIP3    H168770   4.319   2.906  12.817 -0.6673 -1.3943  0.2535
15785TIP3    H268771   4.366   2.956  12.682 -2.5063 -0.1323  0.0455
15786TIP3   OH268772   5.698   4.314   0.741 -0.4927 -0.6962 -0.3916
15786TIP3    H168773   5.663   4.269   0.664  2.3037 -1.3664 -1.3888
15786TIP3    H268774   5.764   4.254   0.776 -1.4537 -0.2610  2.3940
15787TIP3   OH268775   5.709   5.316  15.507  0.2767  0.2924 -0.4545
15787TIP3    H168776   5.679   5.377  15.575  1.6985 -0.9138  1.3499
15787TIP3    H268777   5.714   5.370  15.428 -0.3287  2.0587  0.6330
15788TIP3   OH268778   2.036   6.348   4.356 -0.1386  0.3155  0.2426
15788TIP3    H168779   1.965   6.405   4.328  1.1050  1.8553  0.0686
15788TIP3    H268780   2.114   6.382   4.312  0.5048 -2.2798 -0.8451
15789TIP3   OH268781   4.064   2.638  13.745 -0.0909 -0.0612 -0.0293
15789TIP3    H168782   4.080   2.593  13.829 -0.4203  1.2295  0.7458
15789TIP3    H268783   4.102   2.579  13.680 -0.0983 -1.2522  0.9855
15790TIP3   OH268784   4.414   5.338  15.912 -0.0195 -0.0309  0.0191
15790TIP3    H168785   4.438   5.393  15.837 -1.8627 -0.1896 -0.7328
15790TIP3    H268786   4.335   5.378  15.947  1.0517  0.3107  2.2385
15791TIP3   OH268787   2.827   1.355  14.093  0.0864 -0.4385 -0.5416
15791TIP3    H168788   2.815   1.450  14.100  2.3652 -0.1485  0.7878
15791TIP3    H268789   2.824   1.337  14.000 -0.3254  0.9676 -0.8271
15792TIP3   OH268790   1.719   4.166   0.434  0.3501 -0.4287  0.1370
15792TIP3    H168791   1.763   4.178   0.519 -0.2656 -0.6730  0.5003
15792TIP3    H268792   1.791   4.161   0.371  0.8568 -0.8342  0.7201
15793TIP3   OH268793   1.658   4.828  14.074  0.2169  0.1342 -0.1923
15793TIP3    H168794   1.598   4.892  14.034  0.7620  0.0462 -1.1824
15793TIP3    H268795   1.621   4.743  14.050  0.1698  0.0785  0.0762
15794TIP3   OH268796   2.308   3.364  11.913  0.5302  0.2128  0.0943
15794TIP3    H168797   2.387   3.356  11.965  0.0563  0.1845  0.8181
15794TIP3    H268798   2.339   3.390  11.826  1.3285  0.1845  0.3657
15795TIP3   OH268799   1.645   5.615   1.350  0.0945 -0.0923 -0.2756
15795TIP3    H168800   1.702   5.683   1.314  0.7565  0.0213  0.9577
15795TIP3    H268801   1.623   5.646   1.438 -0.3223 -1.0459 -0.0376
15796TIP3   OH268802   3.728   2.393   5.007  0.4776  0.2281 -0.0712
15796TIP3    H168803   3.808   2.355   5.041 -0.0144 -4.3038 -3.0670
15796TIP3    H268804   3.658   2.357   5.061  0.1894 -0.8434 -1.1028
15797TIP3   OH268805   0.986   5.946  12.059  0.5222  0.5833  0.0250
15797TIP3    H168806   1.059   5.988  12.104  0.7616  1.5373 -1.2027
15797TIP3    H268807   0.943   6.017  12.011  0.4164 -0.4255 -1.4215
15798TIP3   OH268808   6.776   0.568  12.150  0.2685 -0.0618  0.5832
15798TIP3    H168809   6.769   0.504  12.221  0.8498 -0.0358  0.6690
15798TIP3    H268810   6.755   0.519  12.071  0.9149 -0.4059  0.6261
15799TIP3   OH268811   6.558   0.573   1.896 -0.3537 -0.5717 -0.2311
15799TIP3    H168812   6.580   0.562   1.804 -0.7324 -1.1789 -0.2518
15799TIP3    H268813   6.496   0.503   1.915 -2.1208  0.9626 -0.1267
15800TIP3   OH268814   1.201   1.988   3.677 -0.1872  0.3829  0.5569
15800TIP3    H168815   1.264   1.933   3.632  0.4086  0.4543  1.2812
15800TIP3    H268816   1.198   2.068   3.625 -2.3397 -0.9055 -1.4931
15801TIP3   OH268817   0.047   1.400   3.092  0.1418 -0.0271 -0.0908
15801TIP3    H168818   0.036   1.493   3.075  1.9296  0.3487  0.5482
15801TIP3    H268819   0.075   1.363   3.008  2.5368  0.6433  0.3239
15802TIP3   OH268820   3.311   5.888  14.568  0.1625  0.4355  0.0842
15802TIP3    H168821   3.299   5.973  14.527  0.7226  0.7904  0.6505
15802TIP3    H268822   3.384   5.848  14.519 -0.0244  0.3242 -0.1061
15803TIP3   OH268823   2.735   6.208  10.756  0.1356 -0.6254 -0.8679
15803TIP3    H168824   2.641   6.212  10.739 -0.2094 -2.0350  0.4996
15803TIP3    H268825   2.757   6.115  10.749  1.1824 -0.4694  0.0146
15804TIP3   OH268826   4.479   1.448  12.573  0.7285  0.0412  0.0578
15804TIP3    H168827   4.421   1.461  12.649  2.2789  0.8606  1.1619
15804TIP3    H268828   4.541   1.382  12.602  2.1913  1.3617  0.0466
15805TIP3   OH268829   3.426   3.697   3.093 -0.2281  0.1506  0.1899
15805TIP3    H168830   3.422   3.642   3.015 -0.0678  0.1216  0.2016
15805TIP3    H268831   3.341   3.683   3.136  0.3962 -1.3497  1.0276
15806TIP3   OH268832   2.614   0.815  17.175 -0.2732  1.0106  0.2681
15806TIP3    H168833   2.690   0.756  17.183 -0.6052  0.5644  0.1412
15806TIP3    H268834   2.545   0.771  17.225 -0.1712  1.9010  1.2221
15807TIP3   OH268835   4.598   1.018   2.754 -0.2988 -0.7826 -0.0909
15807TIP3    H168836   4.569   1.085   2.692  1.1151 -1.1859 -1.2346
15807TIP3    H268837   4.559   1.045   2.838  0.4369  1.6151 -0.4456
15808TIP3   OH268838   6.732   5.664   0.443  0.1154  0.1876 -0.0241
15808TIP3    H168839   6.777   5.588   0.406  2.4639  0.6538  1.6641
15808TIP3    H268840   6.692   5.633   0.523  0.5762  0.5758  0.3654
15809TIP3   OH268841   2.817   6.721   5.669  0.0315  0.0195 -0.2121
15809TIP3    H168842   2.730   6.682   5.666  0.3513 -0.7911  0.5938
15809TIP3    H268843   2.858   6.683   5.746  1.6784 -0.8445 -1.4501
15810TIP3   OH268844   1.257   5.656   5.744  0.0515  0.2277 -0.3961
15810TIP3    H168845   1.234   5.591   5.810  0.1628 -0.7206 -1.2567
15810TIP3    H268846   1.346   5.683   5.766 -0.4335  1.0343  0.6850
15811TIP3   OH268847   2.465   1.825   3.307 -1.0046 -0.5349 -0.0875
15811TIP3    H168848   2.529   1.828   3.378  0.3235  2.0655 -1.2273
15811TIP3    H268849   2.391   1.776   3.342  0.9245 -2.2403  1.8655
15812TIP3   OH268850   1.503   5.119   5.833  0.0295 -0.4878 -0.0830
15812TIP3    H168851   1.550   5.143   5.754 -0.6347  0.7718 -0.1198
15812TIP3    H268852   1.518   5.192   5.894 -1.5617 -0.1972  0.0176
15813TIP3   OH268853   2.565   4.982  13.660 -0.5323  0.2678 -0.0873
15813TIP3    H168854   2.552   4.916  13.729 -0.1071  2.1365  1.8793
15813TIP3    H268855   2.476   5.007  13.634 -0.7018 -1.2020 -1.0352
15814TIP3   OH268856   4.886   1.149   0.491 -0.3369 -0.4263 -0.5263
15814TIP3    H168857   4.917   1.077   0.436 -0.7086  0.9237 -2.6116
15814TIP3    H268858   4.960   1.170   0.547  0.3235 -1.3626 -1.0098
15815TIP3   OH268859   0.016   1.299   3.340 -0.4037 -0.3107  0.3892
15815TIP3    H168860   0.021   1.330   3.250  2.6579 -2.8010 -0.4940
15815TIP3    H268861   0.080   1.353   3.387 -0.8334 -0.0745  0.7071
15816TIP3   OH268862   0.715   1.930   0.323  0.3680 -0.4282  0.0897
15816TIP3    H168863   0.662   1.971   0.392  0.5123 -1.2594  0.7036
15816TIP3    H268864   0.727   2.000   0.258 -0.5100  0.1094  0.4803
15817TIP3   OH268865   3.915   4.731   3.156  0.0294 -0.4180  0.0741
15817TIP3    H168866   3.984   4.707   3.094 -1.0468 -0.6273 -1.0846
15817TIP3    H268867   3.904   4.825   3.146 -0.8999 -0.6074 -0.9033
15818TIP3   OH268868   5.875   2.721   2.039 -0.0235 -0.4213 -0.0635
15818TIP3    H168869   5.962   2.693   2.013 -0.2476 -1.5045  0.3047
15818TIP3    H268870   5.838   2.646   2.086 -1.1322  0.0276 -0.1746
15819TIP3   OH268871   4.293   1.876   2.806  0.7700 -0.1686  0.2083
15819TIP3    H168872   4.217   1.833   2.846  0.7939  0.0603  0.5065
15819TIP3    H268873   4.316   1.821   2.731 -0.7228  0.6267 -0.8973
15820TIP3   OH268874   6.758   4.866  11.339  0.8243 -0.0014 -0.1157
15820TIP3    H168875   6.836   4.921  11.331  0.0134  0.9066 -2.5144
15820TIP3    H268876   6.775   4.791  11.282  1.0383 -1.2565  1.5142
15821TIP3   OH268877   1.047   2.093  15.829 -0.0511  0.1007 -0.4523
15821TIP3    H168878   1.114   2.101  15.761 -0.4945 -1.3980 -1.1109
15821TIP3    H268879   0.965   2.080  15.780 -0.4098 -0.7737  0.3485
15822TIP3   OH268880   3.102   2.765  11.790 -0.0651 -0.2484 -0.5934
15822TIP3    H168881   3.117   2.702  11.861 -1.5956 -0.8960 -0.8130
15822TIP3    H268882   3.007   2.765  11.777  0.0598  0.9183 -1.6928
15823TIP3   OH268883   0.868   5.369   5.315  0.6224 -0.2031 -0.3758
15823TIP3    H168884   0.862   5.376   5.220 -1.3090 -1.5620 -0.4078
15823TIP3    H268885   0.779   5.386   5.346  1.4409  1.3468  1.3082
15824TIP3   OH268886   1.854   4.574   4.926  0.4678 -0.4966  0.0573
15824TIP3    H168887   1.859   4.497   4.870  0.6185 -1.8371  1.8247
15824TIP3    H268888   1.931   4.626   4.902  1.1571 -1.5965 -0.1944
15825TIP3   OH268889   1.082   5.083  10.617 -0.2458  0.2265 -0.7807
15825TIP3    H168890   1.031   5.132  10.683 -0.9486  0.8630 -1.7715
15825TIP3    H268891   1.083   4.993  10.650  1.7584  0.9675  1.5140
15826TIP3   OH268892   2.716   4.555   3.977  0.4231 -0.0419 -0.4293
15826TIP3    H168893   2.807   4.537   3.953  1.1556  1.5588  0.9504
15826TIP3    H268894   2.701   4.501   4.055  0.4455  0.2833 -0.2000
15827TIP3   OH268895   2.101   3.586  14.231  0.1034 -0.3542  0.1202
15827TIP3    H168896   2.043   3.509  14.231  0.5234 -0.7297 -1.8251
15827TIP3    H268897   2.048   3.656  14.267 -0.7696 -1.2351  0.5946
15828TIP3   OH268898   6.782   4.932   5.488  0.4228 -0.2062 -0.0623
15828TIP3    H168899   6.779   4.995   5.560  0.5612 -1.3681  0.9896
15828TIP3    H268900   6.691   4.904   5.476  0.2699  0.5899 -0.9247
15829TIP3   OH268901   3.037   4.844  16.476 -0.1109 -0.2117 -0.0751
15829TIP3    H168902   3.101   4.805  16.535 -0.5544  1.4861  1.6179
15829TIP3    H268903   3.089   4.901  16.419  0.0455  0.2406  0.5050
15830TIP3   OH268904   5.925   2.042   5.796  0.2919  0.0341  0.4154
15830TIP3    H168905   5.832   2.035   5.816  0.4274 -0.1653  0.9773
15830TIP3    H268906   5.937   2.134   5.771 -0.0642  0.0429  0.2664
15831TIP3   OH268907   1.955   0.327  16.717 -0.3386  0.2376  0.4009
15831TIP3    H168908   2.028   0.326  16.655 -1.5178 -0.9846 -1.0496
15831TIP3    H268909   1.927   0.235  16.723  0.1065  0.1873  3.2742
15832TIP3   OH268910   3.963   1.751   5.713 -0.2381  0.4332  0.0353
15832TIP3    H168911   3.962   1.772   5.620  1.1766  0.0230 -0.0896
15832TIP3    H268912   4.032   1.806   5.750 -0.7309  0.5383  0.8385
15833TIP3   OH268913   1.606   3.276  16.082 -0.4024  0.4773 -0.6954
15833TIP3    H168914   1.637   3.246  16.167 -0.0322 -1.4360 -1.4422
15833TIP3    H268915   1.654   3.358  16.066  0.0875  0.4567  0.5926
15834TIP3   OH268916   0.414   1.149  12.724  0.1071 -0.2357 -0.0428
15834TIP3    H168917   0.490   1.188  12.681 -0.6062  0.0299 -1.1045
15834TIP3    H268918   0.341   1.166  12.664 -0.3128 -2.9138 -0.4312
15835TIP3   OH268919   0.111   5.876  16.932 -0.2065 -0.3359 -0.0436
15835TIP3    H168920   0.089   5.848  16.843 -1.1638 -0.3083  0.1728
15835TIP3    H268921   0.202   5.907  16.926 -0.2664 -0.3191 -1.0101
15836TIP3   OH268922   3.113   4.299  12.601  0.2166 -0.7425  0.1353
15836TIP3    H168923   3.113   4.203  12.599 -0.5795 -0.9165  3.2188
15836TIP3    H268924   3.108   4.321  12.694 -1.4377  2.2861 -0.5372
15837TIP3   OH268925   5.957   0.232  14.254 -0.7784  0.3731  0.0635
15837TIP3    H168926   5.882   0.226  14.314  0.5444 -1.6660  1.6519
15837TIP3    H268927   6.032   0.246  14.311  0.4373 -0.7252 -1.2094
15838TIP3   OH268928   4.267   2.817  16.814 -0.0638  0.5086 -0.6221
15838TIP3    H168929   4.202   2.787  16.877 -0.3237 -1.0555 -1.6039
15838TIP3    H268930   4.351   2.796  16.855 -0.2303 -0.4793 -0.7814
15839TIP3   OH268931   3.544   6.448   4.516  0.4310  0.2992  0.5764
15839TIP3    H168932   3.506   6.472   4.601  0.5186 -3.7230  1.9537
15839TIP3    H268933   3.469   6.419   4.464  0.6718  0.4908  0.1152
15840TIP3   OH268934   5.337   2.413   5.102 -0.0465  0.3873  0.1880
15840TIP3    H168935   5.279   2.388   5.174  0.3346  0.6316  0.5908
15840TIP3    H268936   5.316   2.352   5.031  0.2963 -0.5174  0.8578
15841TIP3   OH268937   0.591   3.585  14.443 -0.4402  0.8770 -0.2090
15841TIP3    H168938   0.676   3.622  14.465 -0.1646  0.3051 -0.2917
15841TIP3    H268939   0.561   3.637  14.368 -1.0131  2.2869  0.9512
15842TIP3   OH268940   5.287   1.883  11.086  0.4421 -0.5327  0.2249
15842TIP3    H168941   5.289   1.945  11.013 -0.0812  0.7283  1.2584
15842TIP3    H268942   5.346   1.812  11.058  1.6488  0.7683 -0.6688
15843TIP3   OH268943   5.613   3.811   5.697  0.3634  0.1442  0.6388
15843TIP3    H168944   5.524   3.776   5.698  0.3404  0.1828  0.1703
15843TIP3    H268945   5.663   3.751   5.752  0.6339 -1.4976 -1.2832
15844TIP3   OH268946   0.636   2.522  14.700 -0.3208  0.1226 -0.0691
15844TIP3    H168947   0.568   2.580  14.733 -0.9492 -0.8868  0.4494
15844TIP3    H268948   0.639   2.450  14.763  0.5921 -0.3040 -0.5805
15845TIP3   OH268949   3.386   1.443  12.829 -0.6238 -0.4215  0.1872
15845TIP3    H168950   3.434   1.510  12.781 -1.7543  1.7618  1.8978
15845TIP3    H268951   3.453   1.385  12.864  0.5552  0.8672  0.1410
15846TIP3   OH268952   0.841   4.926  14.769 -0.6436 -0.1033 -0.1924
15846TIP3    H168953   0.892   4.944  14.848 -0.5534  0.0115 -0.2771
15846TIP3    H268954   0.850   5.005  14.716 -1.5807  0.2523  0.1510
15847TIP3   OH268955   6.127   5.779   3.940 -0.1503 -0.2999  0.0555
15847TIP3    H168956   6.198   5.839   3.962 -1.3982  1.3096 -0.1184
15847TIP3    H268957   6.071   5.779   4.017  0.3063 -2.0442  0.4354
15848TIP3   OH268958   3.395   5.033   6.515 -0.0788 -0.1154  0.0185
15848TIP3    H168959   3.427   4.953   6.558 -0.4849  0.2301  1.0104
15848TIP3    H268960   3.449   5.103   6.552  0.5747  0.0304 -1.1782
15849TIP3   OH268961   2.702   4.165  15.452  0.4353  0.0504  0.4643
15849TIP3    H168962   2.609   4.186  15.439  0.2163 -0.6679  0.7919
15849TIP3    H268963   2.710   4.074  15.423  1.2638  0.4219 -0.5450
15850TIP3   OH268964   3.146   0.818   1.663 -0.0238 -0.5153  0.6019
15850TIP3    H168965   3.072   0.816   1.603  1.4326 -1.0173 -1.2686
15850TIP3    H268966   3.172   0.726   1.673  1.5265 -0.2314 -0.3855
15851TIP3   OH268967   6.784   3.103  14.542 -0.0828  0.0826  0.2019
15851TIP3    H168968   6.784   3.057  14.458  0.0265  1.4560 -0.5761
15851TIP3    H268969   6.858   3.164  14.536  1.4605 -1.4241  2.2393
15852TIP3   OH268970   0.024   4.532   5.363  0.5748 -0.7420  0.0224
15852TIP3    H168971   0.024   4.437   5.346  0.2898 -0.3276 -2.9362
15852TIP3    H268972   0.100   4.565   5.315 -0.3857  0.7207 -0.5687
15853TIP3   OH268973   2.098   2.217  16.688  0.6999 -0.3198  0.3382
15853TIP3    H168974   2.018   2.168  16.669 -0.6920  1.4462  1.2956
15853TIP3    H268975   2.169   2.154  16.677 -0.8881 -2.1819  0.3381
15854TIP3   OH268976   3.685   5.832   1.976  0.5586 -0.0618 -0.4675
15854TIP3    H168977   3.693   5.892   2.049 -0.2788  1.0945 -1.2851
15854TIP3    H268978   3.600   5.790   1.988 -0.6869  1.8308 -1.9193
15855TIP3   OH268979   6.644   2.441  14.335 -0.0303  0.4625 -0.1072
15855TIP3    H168980   6.642   2.510  14.270 -1.8237 -0.8359 -1.5493
15855TIP3    H268981   6.577   2.379  14.306  1.5553 -1.9510  1.0089
15856TIP3   OH268982   5.474   3.036  11.713  0.1713 -0.2291 -0.4478
15856TIP3    H168983   5.552   3.022  11.766 -0.8649  1.1921  1.5961
15856TIP3    H268984   5.499   3.007  11.625  2.6264 -0.7835  0.3526
15857TIP3   OH268985   1.222   2.460  14.548 -0.4483  0.6887  0.3089
15857TIP3    H168986   1.270   2.406  14.484  2.5573  1.8770  1.3525
15857TIP3    H268987   1.257   2.548  14.536 -1.5916  1.4148  1.9729
15858TIP3   OH268988   5.321   2.684   5.188  0.2434 -0.1711 -0.6900
15858TIP3    H168989   5.317   2.588   5.194 -0.0195 -0.1389 -0.3010
15858TIP3    H268990   5.260   2.706   5.118 -2.6259 -0.0592  1.5949
15859TIP3   OH268991   3.432   5.411   3.878  0.3900  0.5753 -0.4173
15859TIP3    H168992   3.344   5.428   3.912  0.7068 -0.5332  1.0511
15859TIP3    H268993   3.490   5.431   3.951  1.3671  1.1238 -1.3161
15860TIP3   OH268994   3.902   2.524  16.601  0.1970 -0.5711  0.1954
15860TIP3    H168995   3.982   2.475  16.589  0.7914  0.4354 -0.1045
15860TIP3    H268996   3.912   2.567  16.686 -0.0062 -0.4036  0.1376
15861TIP3   OH268997   5.316   0.067   1.263 -0.3624  0.0843 -0.2786
15861TIP3    H168998   5.316   0.029   1.351 -1.5765 -0.6867 -0.5817
15861TIP3    H268999   5.363   0.003   1.210  0.1415  0.4236 -0.2444
15862TIP3   OH269000   6.675   0.457  11.548 -0.3633 -0.3994 -0.4947
15862TIP3    H169001   6.622   0.500  11.480 -0.4316 -1.4240 -1.1120
15862TIP3    H269002   6.655   0.364  11.539 -0.2340 -0.5760  0.8297
15863TIP3   OH269003   0.613   3.049  15.068  0.5370  0.3192 -0.1092
15863TIP3    H169004   0.607   3.012  14.980  1.2003  0.1113 -0.0744
15863TIP3    H269005   0.527   3.089  15.084 -0.3814 -1.6333  0.0611
15864TIP3   OH269006   3.011   1.493   5.894 -0.3511 -0.1148  0.0031
15864TIP3    H169007   3.048   1.437   5.963  0.0685 -0.8393 -0.7949
15864TIP3    H269008   3.086   1.539   5.857 -0.7480  1.4030  0.9806
15865TIP3   OH269009   1.104   0.157   4.569 -0.0647  0.2369  0.7321
15865TIP3    H169010   1.191   0.174   4.603  0.4295 -0.8703  0.1017
15865TIP3    H269011   1.105   0.192   4.480 -0.1426 -0.0797  0.6035
15866TIP3   OH269012   3.725   5.449   2.397 -0.0972  0.6918  0.3295
15866TIP3    H169013   3.796   5.385   2.403  1.2289  2.1783  0.9201
15866TIP3    H269014   3.761   5.530   2.432 -1.5739  1.9464 -0.8884
15867TIP3   OH269015   3.471   0.062  13.288 -0.3291  0.8659  0.0839
15867TIP3    H169016   3.529   0.134  13.265 -0.4087  0.4122 -1.6929
15867TIP3    H269017   3.529  -0.007  13.321  0.1082  0.6080 -1.1813
15868TIP3   OH269018   5.686   0.337   4.756 -0.7889  0.6170 -0.1608
15868TIP3    H169019   5.728   0.378   4.680  0.4062 -0.9076 -0.3761
15868TIP3    H269020   5.626   0.273   4.718  0.4654 -0.7849  0.1346
15869TIP3   OH269021   2.533   6.348  16.522 -0.4556  0.4716  0.6383
15869TIP3    H169022   2.494   6.269  16.558  2.1362 -0.1896  2.2460
15869TIP3    H269023   2.538   6.332  16.428 -0.5292 -0.9963  0.8635
15870TIP3   OH269024   2.667   0.307   2.810  0.0730 -0.4858  0.4401
15870TIP3    H169025   2.689   0.276   2.722 -2.6304 -3.5790  0.6567
15870TIP3    H269026   2.720   0.253   2.868 -0.3533 -0.5712  0.7537
15871TIP3   OH269027   3.330   1.635   0.013 -0.0910 -0.2032  0.1634
15871TIP3    H169028   3.238   1.608   0.022  0.2469 -1.6641 -0.4590
15871TIP3    H269029   3.379   1.555   0.027  1.0589  0.3782 -0.4558
15872TIP3   OH269030   2.345   5.345   3.397  0.1142  0.0398 -0.5965
15872TIP3    H169031   2.282   5.412   3.372 -0.9542 -1.1952 -1.3374
15872TIP3    H269032   2.292   5.270   3.422  1.2515 -0.1873  1.3523
15873TIP3   OH269033   3.967   1.797   4.559 -0.0197 -0.5993  0.4228
15873TIP3    H169034   4.005   1.833   4.479  0.5509 -0.4324  0.7647
15873TIP3    H269035   3.873   1.802   4.545  0.0769 -1.3771 -0.5961
15874TIP3   OH269036   6.777   4.640  15.149  0.0051 -0.8178  0.9054
15874TIP3    H169037   6.816   4.553  15.139  0.5108 -0.7257  1.9681
15874TIP3    H269038   6.850   4.700  15.139 -0.0598 -0.5905  1.7709
15875TIP3   OH269039   3.859   2.480  15.855  0.2886 -0.3136  0.2807
15875TIP3    H169040   3.824   2.411  15.912  0.7785 -0.2710  0.6356
15875TIP3    H269041   3.946   2.499  15.890  0.0933  0.5990  0.2805
15876TIP3   OH269042   4.918   0.808   1.493  0.4164 -0.1365  0.2143
15876TIP3    H169043   4.928   0.893   1.451  2.6950 -0.4636 -0.0009
15876TIP3    H269044   4.852   0.822   1.560 -1.4630  1.0171 -1.7532
15877TIP3   OH269045   2.072   1.079   6.326  0.4926 -0.1858 -0.7983
15877TIP3    H169046   2.057   0.990   6.295 -0.6462 -0.1299 -0.4463
15877TIP3    H269047   2.026   1.084   6.410  0.1903  0.8488 -1.0050
15878TIP3   OH269048   5.297   3.960  11.555 -0.4935 -0.2736 -0.0192
15878TIP3    H169049   5.232   3.890  11.563  0.9724 -2.0203 -2.2526
15878TIP3    H269050   5.381   3.914  11.558  0.6952  1.8360  1.9377
15879TIP3   OH269051   4.397   5.551   5.825 -0.6609  0.5049  0.5690
15879TIP3    H169052   4.367   5.631   5.868 -2.0711  0.1208  0.3702
15879TIP3    H269053   4.449   5.581   5.751 -1.1433  1.2498  0.5205
15880TIP3   OH269054   3.519   3.125   2.885  0.1699 -0.2674  0.3320
15880TIP3    H169055   3.558   3.105   2.970  1.2079  0.9638  0.1782
15880TIP3    H269056   3.448   3.061   2.875  0.1266 -0.5290  2.0494
15881TIP3   OH269057   0.692   4.763   2.926 -0.3594  0.0838 -0.1433
15881TIP3    H169058   0.666   4.714   2.848  0.3341  0.9085 -0.9055
15881TIP3    H269059   0.745   4.701   2.976 -0.7279 -0.4162 -0.3622
15882TIP3   OH269060   6.544   6.730   5.305 -0.1061 -0.3292  0.2390
15882TIP3    H169061   6.607   6.661   5.283 -0.4666 -0.6370  0.1515
15882TIP3    H269062   6.464   6.703   5.260  0.0122  0.6544 -0.5958
15883TIP3   OH269063   1.158   6.397  16.957 -0.0093 -0.0187 -0.5619
15883TIP3    H169064   1.236   6.452  16.954  0.6258 -0.8471  0.1342
15883TIP3    H269065   1.121   6.403  16.870  1.1765 -0.0804 -1.0878
15884TIP3   OH269066   4.917   3.673  11.525  1.2585 -0.1028  0.4749
15884TIP3    H169067   4.854   3.662  11.596  0.8681 -0.1971  0.1207
15884TIP3    H269068   4.876   3.736  11.466  0.9092 -1.1089 -0.3953
15885TIP3   OH269069   0.317   3.577   0.129  0.6520  0.0782 -0.3582
15885TIP3    H169070   0.339   3.508   0.191  2.1707 -0.4602 -1.4245
15885TIP3    H269071   0.343   3.658   0.174  0.2669 -0.1613  0.3081
15886TIP3   OH269072   4.747   3.394  12.542 -0.4560  0.3499  0.8066
15886TIP3    H169073   4.669   3.338  12.545 -0.3917  0.0898 -1.1714
15886TIP3    H269074   4.821   3.334  12.547 -0.3731  0.5009  1.4800
15887TIP3   OH269075   0.253   1.150  11.670  0.2293  0.3548  0.1432
15887TIP3    H169076   0.189   1.158  11.741  1.5033  0.7616  1.2910
15887TIP3    H269077   0.249   1.234  11.624 -1.5892 -0.3999 -1.1881
15888TIP3   OH269078   5.726   0.262  13.629 -0.5297 -0.1993 -0.1515
15888TIP3    H169079   5.780   0.260  13.550 -0.8409  2.3153 -0.4992
15888TIP3    H269080   5.638   0.239  13.598 -0.3481 -0.8484 -0.2097
15889TIP3   OH269081   6.280   6.617   0.312 -0.0468  0.1784 -0.0541
15889TIP3    H169082   6.275   6.525   0.339 -0.8014  0.4026  0.6361
15889TIP3    H269083   6.285   6.615   0.217 -1.7527 -0.5553 -0.1678
15890TIP3   OH269084   3.162   1.220   3.330  0.0420 -0.0988  0.2607
15890TIP3    H169085   3.078   1.232   3.374 -0.8679 -0.4255 -1.3191
15890TIP3    H269086   3.145   1.245   3.239  1.1323 -2.0261 -0.5200
15891TIP3   OH269087   4.902   0.065   0.942  0.6045 -0.1659 -0.0354
15891TIP3    H169088   4.894   0.084   1.035  1.4446  2.2384 -0.3627
15891TIP3    H269089   4.989   0.028   0.932  0.2897 -0.9832  0.1896
15892TIP3   OH269090   3.780   1.586  15.856  0.3358 -0.5301 -0.0596
15892TIP3    H169091   3.754   1.513  15.800  0.3653 -2.5735  2.4205
15892TIP3    H269092   3.875   1.591  15.845  0.1926  0.0229 -1.1996
15893TIP3   OH269093   0.872   6.664  12.140  0.0708  0.0268 -0.6463
15893TIP3    H169094   0.797   6.630  12.091 -0.3157  0.3978 -0.3248
15893TIP3    H269095   0.947   6.648  12.084 -0.3844  0.5686 -1.4348
15894TIP3   OH269096   1.454   4.879   1.952 -0.0225 -0.5076 -0.2148
15894TIP3    H169097   1.536   4.859   1.996 -0.1978  0.4739  0.5835
15894TIP3    H269098   1.465   4.845   1.863  0.7719 -1.4809  0.2467
15895TIP3   OH269099   2.852   3.157  11.946 -0.0629  0.0256  0.4884
15895TIP3    H169100   2.759   3.148  11.964 -0.4764  1.2616 -0.8516
15895TIP3    H269101   2.866   3.111  11.864  0.1419  1.2685 -0.2018
15896TIP3   OH269102   0.104   4.043  13.834 -0.4371 -0.3694 -0.2803
15896TIP3    H169103   0.153   4.005  13.761 -1.2249  0.5374 -1.3108
15896TIP3    H269104   0.019   4.000  13.830 -0.3937 -0.5078  0.2803
15897TIP3   OH269105   1.891   5.445   6.307 -0.5115 -0.4929  0.7716
15897TIP3    H169106   1.912   5.494   6.386  0.8675 -2.3932  1.6805
15897TIP3    H269107   1.811   5.398   6.329 -0.3548 -0.7020  0.9054
15898TIP3   OH269108   1.022   0.540  13.279 -0.1934 -0.0050 -0.1700
15898TIP3    H169109   1.003   0.591  13.358 -0.1168  2.8841 -1.8679
15898TIP3    H269110   0.937   0.508  13.250 -0.4740  0.5471  0.0348
15899TIP3   OH269111   4.998   5.259   4.099  0.2029  0.1591 -0.4459
15899TIP3    H169112   4.909   5.224   4.100  1.2744 -2.9554 -1.4599
15899TIP3    H269113   5.014   5.287   4.189 -1.9429  1.2909 -0.3726
15900TIP3   OH269114   3.087   4.116   4.434 -0.0417 -0.2746  0.1923
15900TIP3    H169115   3.030   4.176   4.482  0.3293 -0.3640  0.7628
15900TIP3    H269116   3.085   4.147   4.344 -0.2988  0.2522  0.3759
15901TIP3   OH269117   3.716   1.922   5.487  0.6457 -0.1938 -0.1675
15901TIP3    H169118   3.769   1.959   5.558 -0.4360 -1.5084  1.4094
15901TIP3    H269119   3.776   1.863   5.442  0.9780 -0.4057  0.5300
15902TIP3   OH269120   4.252   1.599   1.755 -0.3593  0.0711  0.2194
15902TIP3    H169121   4.345   1.597   1.730 -0.4650 -1.0331 -0.1067
15902TIP3    H269122   4.240   1.523   1.811 -1.3250 -0.4750 -0.6970
15903TIP3   OH269123   6.242   3.089   4.470 -0.0090 -0.4671  0.1422
15903TIP3    H169124   6.184   3.092   4.546 -0.6155  2.5717 -0.3408
15903TIP3    H269125   6.329   3.072   4.508 -0.3216  0.8383  1.5542
15904TIP3   OH269126   2.288   2.319  16.477 -0.0497 -0.3798 -0.0142
15904TIP3    H169127   2.286   2.253  16.408  0.8128 -1.1304  0.6555
15904TIP3    H269128   2.219   2.292  16.537 -0.8353  0.3026 -0.5806
15905TIP3   OH269129   1.273   4.147  12.356  0.1657  0.5201 -0.0629
15905TIP3    H169130   1.313   4.086  12.295  0.6932  0.2901  0.4946
15905TIP3    H269131   1.185   4.163  12.321  1.0917  1.8959 -1.9339
15906TIP3   OH269132   4.276   1.212   0.863 -0.2410  0.2793  0.8513
15906TIP3    H169133   4.219   1.286   0.880 -0.2292  0.1923  1.2895
15906TIP3    H269134   4.365   1.249   0.864 -0.2729  0.3689  0.4325
15907TIP3   OH269135   2.538   3.128   1.318  0.2157 -0.1764  0.3587
15907TIP3    H169136   2.593   3.141   1.241 -0.2997 -1.7110 -0.2988
15907TIP3    H269137   2.478   3.203   1.318  0.5509  0.1015 -0.4277
15908TIP3   OH269138   6.102   1.932   2.332 -0.2303  0.6816 -0.2312
15908TIP3    H169139   6.095   1.907   2.240  0.7099 -0.0146 -0.1277
15908TIP3    H269140   6.026   1.988   2.348 -1.2384 -0.4297 -1.0276
15909TIP3   OH269141   2.202   4.469  12.031 -0.3164 -0.0383  0.1742
15909TIP3    H169142   2.125   4.500  12.080  0.0198 -0.2108  0.8257
15909TIP3    H269143   2.232   4.545  11.982 -1.2053 -0.1032 -0.4931
15910TIP3   OH269144   0.328   2.617   5.590  0.2445  0.5120 -0.1991
15910TIP3    H169145   0.417   2.596   5.562  0.2599  2.3309 -1.7276
15910TIP3    H269146   0.277   2.620   5.509 -0.2939  3.4146  0.1325
15911TIP3   OH269147   3.573   4.287  10.677 -0.6787  0.0996 -0.1448
15911TIP3    H169148   3.489   4.331  10.691 -0.2357  1.3424 -1.1915
15911TIP3    H269149   3.550   4.205  10.633 -1.3186  0.7445 -1.0550
15912TIP3   OH269150   3.824   0.181   3.000  0.3386 -0.5449  0.1702
15912TIP3    H169151   3.747   0.132   2.970  0.5222 -0.7302 -0.0040
15912TIP3    H269152   3.861   0.219   2.920  1.0051 -1.2928  0.1033
15913TIP3   OH269153   4.855   0.032   5.003 -0.7022 -0.3940 -0.0538
15913TIP3    H169154   4.838  -0.039   4.941 -1.2837 -0.4437  0.1477
15913TIP3    H269155   4.820   0.110   4.960 -0.6466 -0.3425 -0.0053
15914TIP3   OH269156   3.822   1.315   3.388 -0.2593  0.3651  0.1126
15914TIP3    H169157   3.782   1.391   3.430  1.3745  0.0634  2.3896
15914TIP3    H269158   3.904   1.347   3.351 -0.2318 -0.0209 -0.1712
15915TIP3   OH269159   4.151   1.067  11.036  0.2760  0.0895 -0.0245
15915TIP3    H169160   4.110   1.093  11.118 -0.7675 -2.0946  0.2087
15915TIP3    H269161   4.088   1.091  10.968  1.3731  2.3983 -0.3058
15916TIP3   OH269162   2.328   1.021   3.946  0.3877 -0.0157 -0.1986
15916TIP3    H169163   2.349   0.927   3.939  0.6592  0.1383 -1.6655
15916TIP3    H269164   2.408   1.060   3.982  1.0980 -0.0556 -1.6639
15917TIP3   OH269165   4.928   4.616   2.275  0.1659 -0.1136  0.5856
15917TIP3    H169166   5.000   4.588   2.219  0.3630  1.4552  0.0275
15917TIP3    H269167   4.921   4.547   2.341  1.6135 -0.6944  0.1606
15918TIP3   OH269168   1.011   2.078   5.584 -0.3840  0.5249  0.4035
15918TIP3    H169169   0.943   2.036   5.531 -0.9050  0.2875  1.2484
15918TIP3    H269170   1.023   2.020   5.659 -0.0942  1.1643  0.8650
15919TIP3   OH269171   4.237   1.269  14.482  1.0200  1.0288  0.1118
15919TIP3    H169172   4.169   1.303  14.540  0.7225  0.0348  0.3630
15919TIP3    H269173   4.198   1.271  14.395  0.9475  1.1730  0.1483
15920TIP3   OH269174   3.266   2.320  11.946  0.6970  0.6982  0.2523
15920TIP3    H169175   3.360   2.337  11.939  1.0578 -1.0601  0.5370
15920TIP3    H269176   3.225   2.398  11.909  2.2233  2.3851  1.8860
15921TIP3   OH269177   5.111   4.318   3.780 -0.0023 -0.2247 -0.9497
15921TIP3    H169178   5.032   4.344   3.733 -0.2206  1.3481  0.2128
15921TIP3    H269179   5.081   4.255   3.845 -0.4083  0.7862 -0.1456
15922TIP3   OH269180   5.967   2.650  16.598  0.0388  0.1715 -0.5314
15922TIP3    H169181   6.000   2.738  16.618  1.2143 -0.5772  1.0820
15922TIP3    H269182   5.936   2.617  16.682  3.6693 -2.5559 -0.0429
15923TIP3   OH269183   5.706   0.005  12.738  0.5043 -0.3606 -0.5364
15923TIP3    H169184   5.632   0.006  12.677  0.7828 -1.6039 -0.9376
15923TIP3    H269185   5.677   0.058  12.813  0.9767  3.1334 -2.6166
15924TIP3   OH269186   4.396   5.586   0.853  0.6915 -0.3632 -0.1250
15924TIP3    H169187   4.437   5.524   0.793  0.4040  1.0042 -1.8287
15924TIP3    H269188   4.324   5.623   0.802  0.4314  0.8643  1.0890
15925TIP3   OH269189   1.783   1.769  12.385  0.0742 -0.0995  0.4883
15925TIP3    H169190   1.693   1.738  12.389 -0.0074  0.1324  0.5103
15925TIP3    H269191   1.809   1.758  12.293  0.6436 -1.8527  0.8198
15926TIP3   OH269192   5.290   0.747  13.094  0.0853 -0.1085  0.1709
15926TIP3    H169193   5.277   0.685  13.166 -1.6889  2.4957  2.3206
15926TIP3    H269194   5.264   0.831  13.131 -0.0310  1.5416 -3.3055
15927TIP3   OH269195   4.806   2.605  13.874  0.6195  0.4950 -0.7003
15927TIP3    H169196   4.714   2.592  13.850  1.0468 -2.6329 -1.0767
15927TIP3    H269197   4.814   2.568  13.962  1.2335  2.3297  0.0717
15928TIP3   OH269198   4.379   6.526  17.171  0.2215 -0.4632  0.4177
15928TIP3    H169199   4.296   6.522  17.124 -1.0171  0.3712  2.3761
15928TIP3    H269200   4.402   6.434  17.187 -0.1825 -0.7093 -0.3447
15929TIP3   OH269201   2.093   5.098  16.380 -0.0568  0.2590  0.1604
15929TIP3    H169202   2.171   5.140  16.344 -0.0374  0.1568  0.0827
15929TIP3    H269203   2.097   5.116  16.474 -1.1683  2.3108 -0.1221
15930TIP3   OH269204   0.453   5.381  15.070 -0.0771 -0.2976 -0.7797
15930TIP3    H169205   0.448   5.285  15.071  1.8125 -0.4217  0.0321
15930TIP3    H269206   0.435   5.407  15.161  0.4749  0.0376 -0.7620
15931TIP3   OH269207   4.571   1.686   1.976 -0.0459  0.1572  0.5105
15931TIP3    H169208   4.626   1.754   1.937 -2.6129  1.8210 -0.4874
15931TIP3    H269209   4.576   1.703   2.070  1.0314  0.3150  0.4412
15932TIP3   OH269210   4.373   0.290   3.154 -0.0720  0.1763  0.1873
15932TIP3    H169211   4.352   0.247   3.071 -0.7008 -0.3911  0.6331
15932TIP3    H269212   4.461   0.259   3.175 -0.6389 -1.2109  0.6742
15933TIP3   OH269213   3.217   5.573  17.085 -0.1706 -0.1593  0.1527
15933TIP3    H169214   3.297   5.530  17.055 -0.9639 -1.0010 -0.8681
15933TIP3    H269215   3.239   5.666  17.089  2.4518 -0.6851  5.0478
15934TIP3   OH269216   6.368   0.082   1.721 -0.7620  0.1634 -0.3262
15934TIP3    H169217   6.304   0.027   1.766 -1.0471 -0.1179 -1.0598
15934TIP3    H269218   6.452   0.043   1.742 -0.9615 -0.5831 -0.8510
15935TIP3   OH269219   0.907   3.661   4.070 -0.9781  0.2382  0.2335
15935TIP3    H169220   0.962   3.588   4.097 -2.0722  0.3402  3.0834
15935TIP3    H269221   0.968   3.724   4.031  0.7897 -0.1431  2.1925
15936TIP3   OH269222   5.707   5.969  13.672 -0.0347  0.3489 -0.4340
15936TIP3    H169223   5.773   6.006  13.613  0.8997  0.1458  0.4606
15936TIP3    H269224   5.681   5.887  13.630  2.2955 -0.9510  0.4957
15937TIP3   OH269225   6.283   0.168   0.471 -0.3016  0.2345  0.3503
15937TIP3    H169226   6.362   0.127   0.505  0.0281  0.2928 -0.3280
15937TIP3    H269227   6.235   0.196   0.549  1.3570  2.1564  0.7708
15938TIP3   OH269228   0.054   3.192  16.902  0.2303  0.0398  0.1107
15938TIP3    H169229   0.088   3.210  16.814 -2.1467 -0.1943 -0.9437
15938TIP3    H269230   0.013   3.274  16.929 -3.4591 -1.1309 -1.2564
15939TIP3   OH269231   4.826   2.895   2.404  0.1678 -0.2423  0.0824
15939TIP3    H169232   4.747   2.947   2.421 -0.0806  0.3787 -2.5689
15939TIP3    H269233   4.859   2.928   2.321  2.3304 -1.6122  0.3286
15940TIP3   OH269234   4.906   5.167   1.817 -0.0136  0.0835  0.0601
15940TIP3    H169235   4.989   5.121   1.801 -0.9971 -2.0581  0.6305
15940TIP3    H269236   4.898   5.169   1.912 -0.6978  0.1071  0.0046
15941TIP3   OH269237   0.772   6.452   3.769  0.3412 -0.2420 -0.1416
15941TIP3    H169238   0.807   6.511   3.835 -0.5479  2.6607 -2.0628
15941TIP3    H269239   0.840   6.447   3.702 -0.3747  0.2675 -0.9269
15942TIP3   OH269240   0.537   2.142   2.748  0.6017 -0.0538  0.5918
15942TIP3    H169241   0.523   2.073   2.812  0.1696 -0.4279  0.1014
15942TIP3    H269242   0.449   2.171   2.723  0.7629  0.1464  0.2365
15943TIP3   OH269243   4.535   2.687   5.302 -0.1916  0.0324  0.2579
15943TIP3    H169244   4.477   2.755   5.336 -3.0835 -3.2109  2.5738
15943TIP3    H269245   4.489   2.654   5.224  1.0871  0.5401 -0.7396
15944TIP3   OH269246   0.122   4.238   4.164 -0.5501 -0.2071  0.2878
15944TIP3    H169247   0.031   4.260   4.142 -0.9663 -1.5540  0.5721
15944TIP3    H269248   0.115   4.163   4.223  0.7666 -0.8178 -0.2922
15945TIP3   OH269249   0.739   3.717  12.743 -0.5335 -0.4820  0.0044
15945TIP3    H169250   0.767   3.670  12.664 -0.2056 -0.7160  0.2566
15945TIP3    H269251   0.783   3.671  12.815 -2.1001 -1.2996  0.4944
15946TIP3   OH269252   5.590   1.137  12.619  0.5552  0.4900  0.5874
15946TIP3    H169253   5.635   1.199  12.676 -1.1056  0.8063  1.6365
15946TIP3    H269254   5.504   1.177  12.603  0.2823 -0.5098 -0.5405
15947TIP3   OH269255   1.891   1.532   5.434  0.4778 -0.4025 -0.2080
15947TIP3    H169256   1.822   1.529   5.368 -0.7373  1.5023  0.8811
15947TIP3    H269257   1.937   1.448   5.425 -2.7438 -2.3497 -0.1654
15948TIP3   OH269258   2.739   4.336  13.149  0.1692  0.2083 -0.6714
15948TIP3    H169259   2.733   4.398  13.222  1.1966  1.4393 -1.6095
15948TIP3    H269260   2.824   4.293  13.161  1.1918  1.7319 -2.1290
15949TIP3   OH269261   3.782   0.743   0.844 -0.2859 -0.5539  0.3692
15949TIP3    H169262   3.835   0.690   0.784 -3.1525 -3.7856  0.3691
15949TIP3    H269263   3.841   0.766   0.916  2.3812  0.6774 -2.0253
15950TIP3   OH269264   6.634   5.208   6.163 -0.2789  0.2215  0.0184
15950TIP3    H169265   6.695   5.137   6.181  0.3532  0.6143 -0.5382
15950TIP3    H269266   6.669   5.283   6.211  0.4596  0.8098 -1.3746
15951TIP3   OH269267   3.161   1.397  15.447  0.2706 -0.1524 -0.1054
15951TIP3    H169268   3.201   1.459  15.386 -0.6651  0.0237 -0.5664
15951TIP3    H269269   3.126   1.327  15.391  1.0952 -0.9907  0.3886
15952TIP3   OH269270   3.532   3.285   3.154  0.5194 -0.3977  0.3701
15952TIP3    H169271   3.451   3.324   3.122  1.5426  1.1414 -0.4730
15952TIP3    H269272   3.511   3.256   3.243 -0.6797  0.9464  0.5659
15953TIP3   OH269273   6.517   2.074  12.524  0.1967  0.6013  0.0847
15953TIP3    H169274   6.522   2.011  12.452 -1.2731  0.7212 -0.1485
15953TIP3    H269275   6.569   2.149  12.494  0.1922  0.3630 -0.5412
15954TIP3   OH269276   3.941   4.921   2.364  0.4842 -0.2081  0.1577
15954TIP3    H169277   3.929   4.853   2.297 -1.1296  0.1380  0.0546
15954TIP3    H269278   4.006   4.884   2.423  1.3549 -0.8604 -1.1480
15955TIP3   OH269279   5.400   4.771  15.803  0.2656  0.3387 -0.2128
15955TIP3    H169280   5.483   4.760  15.850  1.1034  0.1162 -1.6695
15955TIP3    H269281   5.420   4.832  15.733 -0.8158  0.2828 -0.5893
15956TIP3   OH269282   2.805   1.454   2.489  0.2510  0.1937  0.1980
15956TIP3    H169283   2.761   1.516   2.430  1.3193 -0.7316 -1.6863
15956TIP3    H269284   2.803   1.371   2.441  0.4960 -0.7914  1.8360
15957TIP3   OH269285   5.498   5.567   0.050  0.4323 -0.4306 -0.0592
15957TIP3    H169286   5.547   5.507  -0.006 -0.0868 -0.7592 -0.1637
15957TIP3    H269287   5.409   5.567   0.014  0.6706  1.2361 -0.7265
15958TIP3   OH269288   3.667   5.127   3.747 -0.8774  0.0439 -0.5676
15958TIP3    H169289   3.667   5.177   3.829 -1.4553 -0.5479 -0.1945
15958TIP3    H269290   3.756   5.092   3.740 -0.9084 -0.1389 -0.0492
15959TIP3   OH269291   1.518   0.718   1.757  0.0637 -0.5517 -0.1168
15959TIP3    H169292   1.569   0.786   1.712  2.0781 -1.2766  0.9083
15959TIP3    H269293   1.460   0.766   1.816 -0.2620  0.3218 -1.1326
15960TIP3   OH269294   6.601   2.292  11.934  0.1350  0.1844  0.0065
15960TIP3    H169295   6.669   2.246  11.884 -1.5268  0.4843 -2.7669
15960TIP3    H269296   6.593   2.377  11.889 -0.4825  1.0943  1.7482
15961TIP3   OH269297   4.294   2.351  12.433 -1.1492  0.0895 -0.2887
15961TIP3    H169298   4.247   2.432  12.416 -0.3752  0.6167  0.0393
15961TIP3    H269299   4.344   2.335  12.353 -0.3439  0.6028  0.1096
15962TIP3   OH269300   1.185   4.982  15.532  0.8684  0.3687 -0.5102
15962TIP3    H169301   1.104   4.962  15.579  1.3236 -0.8776 -0.2155
15962TIP3    H269302   1.192   4.912  15.467  2.4098 -0.3570  0.3967
15963TIP3   OH269303   3.082   1.875   4.454  0.0955 -0.1029 -0.1796
15963TIP3    H169304   3.061   1.944   4.391  0.8659 -0.0511 -0.3844
15963TIP3    H269305   3.063   1.793   4.407  0.0631 -0.0492 -0.2594
15964TIP3   OH269306   2.999   4.509   3.985  0.1991 -0.2029 -0.5562
15964TIP3    H169307   3.086   4.489   4.020  0.6481  1.6941 -0.5084
15964TIP3    H269308   3.016   4.535   3.894 -0.6667 -2.5094 -1.4496
15965TIP3   OH269309   1.557   4.139  15.304  0.3688 -0.0950 -0.0462
15965TIP3    H169310   1.564   4.056  15.351  1.4449  0.8662  1.5938
15965TIP3    H269311   1.466   4.144  15.276  0.4025 -2.0272 -0.5927
15966TIP3   OH269312   6.559   2.751  16.838 -0.0087  0.6431 -0.0012
15966TIP3    H169313   6.496   2.733  16.768 -0.8911 -0.2714  0.9873
15966TIP3    H269314   6.563   2.847  16.842 -1.3099  0.7217 -0.1301
15967TIP3   OH269315   1.024   2.710  14.419  0.6348 -0.0463  1.1839
15967TIP3    H169316   1.055   2.678  14.503 -1.2372 -0.1818  1.8755
15967TIP3    H269317   0.956   2.774  14.441 -0.2635 -0.4688 -0.1984
15968TIP3   OH269318   5.555   2.725  13.811  0.1044  0.2235  0.0041
15968TIP3    H169319   5.469   2.706  13.773 -0.2237  0.4399  0.6192
15968TIP3    H269320   5.580   2.643  13.854  0.6077 -0.1118 -0.9106
15969TIP3   OH269321   2.389   6.663  14.970 -0.1485 -0.2056  0.4984
15969TIP3    H169322   2.404   6.605  14.896 -0.1015 -1.0876  1.1872
15969TIP3    H269323   2.402   6.751  14.934  1.4322 -0.6743 -0.1913
15970TIP3   OH269324   4.894   4.861   1.445 -0.1994 -0.1406  0.1965
15970TIP3    H169325   4.932   4.920   1.510 -1.0856  1.5924 -0.7754
15970TIP3    H269326   4.801   4.861   1.464 -0.3253 -0.4968 -0.3911
15971TIP3   OH269327   0.465   3.050  17.090 -0.0645 -0.0329 -1.2847
15971TIP3    H169328   0.440   2.959  17.074 -0.6536  0.1752 -1.5932
15971TIP3    H269329   0.392   3.101  17.056  0.6162  0.5914 -1.8508
15972TIP3   OH269330   3.478   5.755  14.378  0.7171 -0.1136  0.2422
15972TIP3    H169331   3.475   5.698  14.301 -1.3538 -0.1318  0.2691
15972TIP3    H269332   3.531   5.830  14.350  0.6378 -0.4814 -0.9391
15973TIP3   OH269333   6.260   3.773   3.950 -0.1825  0.0798 -0.1235
15973TIP3    H169334   6.338   3.755   3.898  0.0307  1.8905 -0.4800
15973TIP3    H269335   6.206   3.830   3.894 -0.3515  1.3438  1.2709
15974TIP3   OH269336   6.032   3.911  11.248  0.1669 -0.4630 -0.3771
15974TIP3    H169337   5.942   3.943  11.239  0.7280  1.4610  0.4515
15974TIP3    H269338   6.022   3.823  11.286 -1.3643 -0.5712 -0.9292
15975TIP3   OH269339   4.772   0.722  11.479 -0.4169 -0.3181  0.5698
15975TIP3    H169340   4.858   0.761  11.493 -0.7482  1.7358 -2.1482
15975TIP3    H269341   4.715   0.764  11.543  0.1824  0.0581  0.8564
15976TIP3   OH269342   4.152   1.869   5.890  0.3154 -0.7278 -0.8239
15976TIP3    H169343   4.110   1.898   5.971  0.1636 -1.1532 -0.7445
15976TIP3    H269344   4.187   1.949   5.851  1.8424 -0.7006  0.4847
15977TIP3   OH269345   2.222   3.476   2.840  0.4001 -0.1116  0.2660
15977TIP3    H169346   2.143   3.494   2.790  1.0064  0.0261 -0.6817
15977TIP3    H269347   2.230   3.550   2.900 -1.3354 -1.1871  1.9158
15978TIP3   OH269348   3.799   4.539  16.941  0.2745 -0.2146  0.2373
15978TIP3    H169349   3.798   4.447  16.965  0.4371 -0.5665 -1.0155
15978TIP3    H269350   3.863   4.579  16.999 -0.7888 -0.6083  1.7259
15979TIP3   OH269351   1.063   3.074  15.501  0.1710  0.0848  0.0507
15979TIP3    H169352   1.111   3.133  15.559  1.5710  0.5973 -1.5614
15979TIP3    H269353   1.020   3.132  15.438 -0.5290 -0.5127 -0.0424
15980TIP3   OH269354   6.045   5.215   0.489 -0.1004  0.2067  0.0416
15980TIP3    H169355   6.045   5.287   0.425 -1.3655 -0.3553 -0.6380
15980TIP3    H269356   6.050   5.259   0.574  0.5824  1.0217 -0.4031
15981TIP3   OH269357   2.179   0.625   3.581  0.3038  0.5446  0.0313
15981TIP3    H169358   2.235   0.687   3.535 -1.1566  1.2309 -0.9237
15981TIP3    H269359   2.090   0.650   3.556 -0.4530 -0.4665  1.5055
15982TIP3   OH269360   2.729   0.372   1.474 -0.4466 -0.3245  0.7442
15982TIP3    H169361   2.704   0.451   1.427 -0.2896 -1.0337 -0.5893
15982TIP3    H269362   2.813   0.393   1.515 -1.0756  0.6355  1.5760
15983TIP3   OH269363   1.499   0.695  11.531 -0.6633  0.0194 -0.5095
15983TIP3    H169364   1.555   0.646  11.470  0.3933 -0.2860  0.6644
15983TIP3    H269365   1.431   0.732  11.475  0.1537 -0.4015 -1.8549
15984TIP3   OH269366   6.145   1.651  12.198  0.0196 -0.2017 -0.5004
15984TIP3    H169367   6.058   1.648  12.237  0.3676  2.0177  0.5749
15984TIP3    H269368   6.205   1.636  12.271  0.5877 -1.3974 -1.1758
15985TIP3   OH269369   4.915   1.185   4.903  0.0741  0.6777 -0.2718
15985TIP3    H169370   4.993   1.229   4.938  1.2566 -1.8447  0.5440
15985TIP3    H269371   4.841   1.232   4.941  1.2666  1.3340  1.3305
15986TIP3   OH269372   5.129   5.884   1.737  0.7937 -0.6857  0.0233
15986TIP3    H169373   5.116   5.950   1.805  0.1760 -2.0394  1.2571
15986TIP3    H269374   5.186   5.927   1.673 -0.1026  1.2643  0.4551
15987TIP3   OH269375   1.803   3.028  11.206 -0.1869 -0.2152  0.0952
15987TIP3    H169376   1.887   2.988  11.181  0.4545  0.0349  1.7327
15987TIP3    H269377   1.754   3.033  11.124 -0.1637 -3.9728 -0.3475
15988TIP3   OH269378   1.904   6.216   6.156 -0.4549  0.0310 -0.5587
15988TIP3    H169379   1.831   6.212   6.217 -1.1512  1.8141 -1.2134
15988TIP3    H269380   1.948   6.131   6.165 -0.8846  0.0092  1.9318
15989TIP3   OH269381   5.954   1.823   4.703 -0.1096 -0.4249  0.4413
15989TIP3    H169382   5.886   1.882   4.736 -0.2283 -0.6641  0.6303
15989TIP3    H269383   5.967   1.850   4.612 -0.1121 -0.0637  0.5449
15990TIP3   OH269384   4.258   3.095   2.274  0.1417 -0.0167  0.5744
15990TIP3    H169385   4.280   3.036   2.202  1.2013  1.4288 -0.3448
15990TIP3    H269386   4.273   3.043   2.354  1.5878 -0.8164 -0.1839
15991TIP3   OH269387   6.348   0.647   0.737 -0.1905  0.1977 -1.3194
15991TIP3    H169388   6.402   0.706   0.791 -0.5828 -0.9618  0.4119
15991TIP3    H269389   6.264   0.644   0.781 -1.3652  1.0766 -3.3648
15992TIP3   OH269390   2.777   2.823   1.893  0.3325 -0.0803  0.0597
15992TIP3    H169391   2.834   2.773   1.835  3.0645  4.0172 -1.2910
15992TIP3    H269392   2.718   2.870   1.834  0.1021  0.7224  0.8984
15993TIP3   OH269393   1.214   3.806  16.319  0.6107  0.3403  0.3981
15993TIP3    H169394   1.294   3.854  16.299  0.1463  0.7967 -0.3903
15993TIP3    H269395   1.183   3.774  16.235  0.1375 -0.1270  0.7400
15994TIP3   OH269396   3.349   3.089  14.260 -0.3506 -0.2209 -0.6935
15994TIP3    H169397   3.347   3.000  14.224 -0.4148 -0.5147  0.0312
15994TIP3    H269398   3.289   3.087  14.334 -0.7101  0.5548 -0.9520
15995TIP3   OH269399   4.590   2.916  11.270  0.6473  0.3160 -0.1645
15995TIP3    H169400   4.596   3.008  11.297 -1.2936 -0.1754  2.3348
15995TIP3    H269401   4.531   2.917  11.195  0.8910  1.1076 -0.3615
15996TIP3   OH269402   5.053   2.611   4.546 -0.2864  0.1816 -0.2982
15996TIP3    H169403   5.089   2.691   4.586  1.2197 -0.4263 -0.3961
15996TIP3    H269404   5.081   2.540   4.604  0.5241 -0.5402 -1.5294
15997TIP3   OH269405   0.130   5.774   3.229 -0.0574  0.2934  0.3708
15997TIP3    H169406   0.212   5.809   3.194  0.5520 -2.7734 -1.6660
15997TIP3    H269407   0.157   5.714   3.299 -0.6267  0.0488  0.3893
15998TIP3   OH269408   1.228   5.750  16.254 -0.2909  0.9574 -0.1109
15998TIP3    H169409   1.229   5.692  16.330  1.1213 -0.5974 -1.2549
15998TIP3    H269410   1.168   5.820  16.279 -1.3086 -0.4657  1.7036
15999TIP3   OH269411   0.417   4.171  13.611 -0.7241 -0.5655 -0.4950
15999TIP3    H169412   0.510   4.163  13.629 -0.5715 -0.9514 -1.3890
15999TIP3    H269413   0.412   4.222  13.530 -1.2505 -1.1859 -0.8677
16000TIP3   OH269414   2.734   0.432   5.778 -0.6013 -0.0298 -0.0593
16000TIP3    H169415   2.787   0.478   5.713 -0.8658  0.0592 -0.2120
16000TIP3    H269416   2.768   0.343   5.778  1.1895  0.5692  1.5642
16001TIP3   OH269417   6.041   4.315  14.584 -0.1073  0.3866 -0.1300
16001TIP3    H169418   6.006   4.365  14.511 -0.6626  0.0623 -0.0858
16001TIP3    H269419   6.075   4.382  14.644  1.5179  0.6275 -1.2367
16002TIP3   OH269420   6.167   4.937   3.215 -0.8385 -0.0142 -0.6476
16002TIP3    H169421   6.257   4.952   3.186 -0.5852  2.9059  1.2826
16002TIP3    H269422   6.157   4.841   3.212  1.7046 -0.3383 -2.5357
16003TIP3   OH269423   5.980   5.918   5.730  0.1136  0.0912 -0.4672
16003TIP3    H169424   5.999   5.908   5.636  1.1774 -0.7310 -0.1950
16003TIP3    H269425   5.901   5.866   5.744  0.4598 -0.5367 -0.7643
16004TIP3   OH269426   3.418   4.786  14.794  0.4369  0.1252 -0.0741
16004TIP3    H169427   3.427   4.810  14.702  0.2336  1.4362  0.2274
16004TIP3    H269428   3.377   4.699  14.793 -2.2354  1.3046 -1.2175
16005TIP3   OH269429   1.696   2.815   1.428  0.5908 -0.1219  0.0773
16005TIP3    H169430   1.690   2.904   1.394 -0.1496 -0.7974 -1.6938
16005TIP3    H269431   1.627   2.811   1.495  0.0402  0.3907 -0.4433
16006TIP3   OH269432   1.498   6.771  10.960  0.0392  0.1838 -0.0795
16006TIP3    H169433   1.422   6.807  10.914 -0.0701 -1.0527 -0.9462
16006TIP3    H269434   1.480   6.677  10.964  1.8580 -0.2414 -0.9680
16007TIP3   OH269435   3.086   4.757  13.683  0.4104  0.2784 -0.4147
16007TIP3    H169436   3.067   4.763  13.777 -0.4764  1.3225 -0.6392
16007TIP3    H269437   3.004   4.781  13.640  1.2944  1.6160 -1.4516
16008TIP3   OH269438   5.053   0.065  13.147  0.5425 -0.0964  0.0497
16008TIP3    H169439   4.979   0.114  13.183  1.8071  2.6133 -0.8175
16008TIP3    H269440   5.111   0.052  13.222  0.6105  0.5864  0.1236
16009TIP3   OH269441   3.644   4.654   5.730  0.0690 -0.1607 -0.3112
16009TIP3    H169442   3.643   4.652   5.826 -0.9749  0.9508 -0.2809
16009TIP3    H269443   3.618   4.565   5.704  0.5520 -0.5254  0.4295
16010TIP3   OH269444   2.130   0.094  14.235 -0.4336 -0.3116 -0.4803
16010TIP3    H169445   2.213   0.087  14.187 -0.5912  1.1033 -1.0079
16010TIP3    H269446   2.121   0.010  14.279  1.9650 -0.0455  0.6975
16011TIP3   OH269447   1.045   2.436  16.205 -0.2629  0.1795  0.2142
16011TIP3    H169448   1.050   2.371  16.275  1.6502 -1.6761 -1.5343
16011TIP3    H269449   1.072   2.518  16.247 -0.9754 -0.4746  2.0492
16012TIP3   OH269450   5.378   6.338   5.169  0.8830 -0.3417  0.4008
16012TIP3    H169451   5.358   6.430   5.150  0.6705 -0.0990  1.7034
16012TIP3    H269452   5.395   6.336   5.263  1.5557 -1.5253  0.2775
16013TIP3   OH269453   0.303   3.888   5.677  0.5190  0.2452 -0.7292
16013TIP3    H169454   0.281   3.911   5.586  2.2251  0.4065 -1.1303
16013TIP3    H269455   0.398   3.889   5.679  0.5038  0.0244  1.0289
16014TIP3   OH269456   4.995   0.731  12.474 -0.2304  0.3053 -0.2934
16014TIP3    H169457   5.073   0.676  12.471 -0.9458 -0.8588  1.1710
16014TIP3    H269458   4.995   0.777  12.390  1.0405 -1.0083 -1.0618
16015TIP3   OH269459   5.644   1.325  13.513 -0.1541 -0.1318 -0.1803
16015TIP3    H169460   5.651   1.258  13.446  0.6652  0.0621 -0.3044
16015TIP3    H269461   5.560   1.309  13.555 -0.0801 -1.0713 -0.3787
16016TIP3   OH269462   0.608   3.503  12.048  0.2377  0.5333  0.4365
16016TIP3    H169463   0.684   3.521  12.103 -0.1125  0.1481  1.0641
16016TIP3    H269464   0.611   3.408  12.034 -0.2723  0.4785  0.6851
16017TIP3   OH269465   4.833   2.619  12.354 -0.2905  0.2636  0.4006
16017TIP3    H169466   4.805   2.572  12.276  2.0777  0.2246 -0.5386
16017TIP3    H269467   4.769   2.688  12.365 -0.5921  0.3986 -1.7453
16018TIP3   OH269468   3.821   5.182   0.894 -0.0634  0.1385  0.5109
16018TIP3    H169469   3.742   5.232   0.873 -2.6575 -4.1207 -1.2016
16018TIP3    H269470   3.882   5.204   0.824 -1.2303  0.6511 -0.3812
16019TIP3   OH269471   5.372   3.235   5.742  0.5400 -0.4569  0.5887
16019TIP3    H169472   5.383   3.303   5.676 -1.1393 -0.6008  0.1152
16019TIP3    H269473   5.372   3.282   5.826  0.4636 -0.0009  0.3350
16020TIP3   OH269474   5.622   6.224   0.930  0.3037  0.0174 -0.8659
16020TIP3    H169475   5.660   6.171   0.860 -2.0369  2.6246 -4.4344
16020TIP3    H269476   5.665   6.309   0.921  1.3010 -0.0369  2.2764
16021TIP3   OH269477   5.335   1.780   6.070 -0.4847  0.0746 -0.2368
16021TIP3    H169478   5.290   1.864   6.065 -1.6244 -0.5635 -2.8167
16021TIP3    H269479   5.364   1.763   5.980  0.1066 -2.0615  0.2887
16022TIP3   OH269480   1.947   5.021   1.764 -0.1615 -0.1188  0.1539
16022TIP3    H169481   1.998   4.952   1.806 -2.0281 -0.9460  1.1242
16022TIP3    H269482   1.935   4.991   1.674  2.4208  0.8876 -0.6364
16023TIP3   OH269483   5.509   1.910  13.540  0.2149 -0.0441 -0.6316
16023TIP3    H169484   5.475   1.986  13.492  1.0962 -0.5412 -2.1311
16023TIP3    H269485   5.577   1.946  13.597 -0.5932  0.5103  0.0085
16024TIP3   OH269486   1.657   1.999   3.612 -0.0432 -0.0769  0.5536
16024TIP3    H169487   1.736   2.027   3.565 -0.4496  0.8931  0.4385
16024TIP3    H269488   1.654   1.904   3.598  0.6042 -0.0010 -0.2042
16025TIP3   OH269489   5.512   2.039   3.155 -0.0905 -0.0626 -0.5046
16025TIP3    H169490   5.596   2.030   3.199  0.4264  1.8682 -0.9771
16025TIP3    H269491   5.446   2.030   3.224  0.4050 -2.5538 -0.2784
16026TIP3   OH269492   5.998   2.789   2.690 -0.4269  0.2811 -0.0449
16026TIP3    H169493   6.035   2.713   2.644 -0.9219 -0.4386  0.7169
16026TIP3    H269494   5.923   2.754   2.739 -1.9681  1.6398 -1.2975
16027TIP3   OH269495   4.553   2.003   3.295 -0.2451  0.2100  0.1050
16027TIP3    H169496   4.459   1.985   3.297 -0.1536 -0.5831 -1.6257
16027TIP3    H269497   4.591   1.937   3.353 -0.5495 -0.9822 -1.0302
16028TIP3   OH269498   3.259   5.351   4.800  0.1860  0.7027  0.5448
16028TIP3    H169499   3.305   5.303   4.868  0.1385 -1.5109 -0.8874
16028TIP3    H269500   3.168   5.354   4.830 -0.1018 -1.4247  0.0690
16029TIP3   OH269501   3.751   3.714  16.532 -0.5825 -0.0839  0.9350
16029TIP3    H169502   3.712   3.787  16.484 -0.0940 -0.0900  0.5196
16029TIP3    H269503   3.788   3.657  16.464  1.2898  0.5660  1.3444
16030TIP3   OH269504   2.944   5.471   6.628  0.6134  0.0518  0.0163
16030TIP3    H169505   2.936   5.377   6.639 -0.8822  0.1754  0.2074
16030TIP3    H269506   2.896   5.508   6.702  2.9405  1.0026  1.1557
16031TIP3   OH269507   0.258   2.624  13.390  0.7492  0.2121 -0.3072
16031TIP3    H169508   0.202   2.587  13.321  1.0304  0.3315 -0.6055
16031TIP3    H269509   0.275   2.551  13.449  1.4246 -0.1913 -0.9691
16032TIP3   OH269510   3.429   4.224  13.281  0.0040  0.2734 -0.4816
16032TIP3    H169511   3.489   4.177  13.223  1.0393 -0.9251  1.4397
16032TIP3    H269512   3.347   4.175  13.275 -0.4727  1.2171 -2.2265
16033TIP3   OH269513   3.634   0.796   0.205  0.4362 -0.2313 -0.1444
16033TIP3    H169514   3.707   0.797   0.267 -1.0778  0.2798  1.7359
16033TIP3    H269515   3.663   0.851   0.132  2.0745 -0.3971  0.3477
16034TIP3   OH269516   2.213   5.767  14.927 -0.5020  0.5465  0.3883
16034TIP3    H169517   2.165   5.694  14.967  1.9910 -0.5408  1.6360
16034TIP3    H269518   2.228   5.740  14.837 -0.0052 -0.3244  0.7154
16035TIP3   OH269519   5.896   1.549   1.302  0.7159  0.2711  0.3493
16035TIP3    H169520   5.824   1.602   1.336  0.6273 -0.6401  1.6716
16035TIP3    H269521   5.955   1.538   1.376  1.3916 -0.3665 -0.2612
16036TIP3   OH269522   4.454   2.688   1.254  0.6345  0.2590  0.4846
16036TIP3    H169523   4.484   2.597   1.254  1.5453  0.5056  2.7486
16036TIP3    H269524   4.526   2.737   1.213  0.5753  0.1042  0.1886
16037TIP3   OH269525   2.794   4.182   6.171 -0.4131  0.2504 -0.1407
16037TIP3    H169526   2.749   4.240   6.110  1.1476  0.3813 -1.2367
16037TIP3    H269527   2.806   4.101   6.123 -0.1795 -0.0468  0.4119
16038TIP3   OH269528   2.067   6.526  11.996  0.1335  0.0179 -0.7657
16038TIP3    H169529   1.999   6.480  11.948 -1.4142  1.4251 -0.0433
16038TIP3    H269530   2.046   6.511  12.088 -0.7872  2.5041 -0.4767
16039TIP3   OH269531   5.418   5.329  14.384  0.2037 -0.3056  0.1957
16039TIP3    H169532   5.340   5.315  14.438  0.2558  0.8048  0.5874
16039TIP3    H269533   5.388   5.319  14.294 -0.3145 -0.2400  0.3585
16040TIP3   OH269534   2.786   5.154   6.383  0.5763 -0.4157  0.7221
16040TIP3    H169535   2.696   5.180   6.399  0.7753  1.6656 -1.0512
16040TIP3    H269536   2.830   5.164   6.468 -0.3599  0.8725  1.0819
16041TIP3   OH269537   3.913   6.368   4.950 -0.1276  0.4425  0.6294
16041TIP3    H169538   3.960   6.437   4.997  2.1752 -0.0950 -0.6963
16041TIP3    H269539   3.862   6.414   4.883  0.9094  0.9199  0.1486
16042TIP3   OH269540   6.728   5.895  17.162 -0.1466 -0.4735  0.3600
16042TIP3    H169541   6.755   5.896  17.070  1.7150  1.3160  0.8264
16042TIP3    H269542   6.762   5.813  17.197  2.0154  0.2591  0.1301
16043TIP3   OH269543   0.447   0.580   2.336  0.3454  0.1240  0.2523
16043TIP3    H169544   0.499   0.650   2.376 -2.3951  0.8036  2.9882
16043TIP3    H269545   0.488   0.499   2.368 -0.4934  0.6477  2.8935
16044TIP3   OH269546   6.755   2.499  11.803  0.8678  0.1661 -0.6659
16044TIP3    H169547   6.779   2.467  11.890  0.3064 -0.9952 -0.9138
16044TIP3    H269548   6.769   2.593  11.808 -2.3731  0.7342  1.8272
16045TIP3   OH269549   2.522   1.782   0.297  0.1531 -0.3208  0.1700
16045TIP3    H169550   2.541   1.720   0.227  0.1962  0.5762 -0.6387
16045TIP3    H269551   2.430   1.768   0.318 -0.1577  0.1400 -0.8324
16046TIP3   OH269552   0.629   2.259  17.199  0.5418 -0.5039  0.1336
16046TIP3    H169553   0.700   2.289  17.143  0.0056 -0.1794 -0.3880
16046TIP3    H269554   0.629   2.164  17.189 -0.9940 -0.3450 -2.2638
16047TIP3   OH269555   0.227   5.603  11.707 -0.7387 -0.0861 -0.6660
16047TIP3    H169556   0.317   5.572  11.719 -0.4130  0.8542 -0.6579
16047TIP3    H269557   0.197   5.557  11.628  0.3569  0.9201 -1.7121
16048TIP3   OH269558   4.798   3.945   3.035 -0.3285  0.4561 -0.2292
16048TIP3    H169559   4.882   3.902   3.055 -1.2828 -0.4829  2.1277
16048TIP3    H269560   4.795   4.020   3.094 -1.1584  0.4529 -0.2606
16049TIP3   OH269561   0.562   2.802  15.333 -0.4902 -0.3562  0.0955
16049TIP3    H169562   0.529   2.712  15.324 -1.1479 -0.0317 -0.8556
16049TIP3    H269563   0.636   2.794  15.394  0.0062 -1.6725 -0.6387
16050TIP3   OH269564   0.082   0.424  15.555  0.1435  0.2168 -0.6150
16050TIP3    H169565   0.062   0.353  15.494  0.9232 -1.3358  0.8511
16050TIP3    H269566   0.022   0.411  15.628  0.0511  1.3134 -0.4805
16051TIP3   OH269567   2.615   0.313  14.225 -0.2816 -0.6765  0.6635
16051TIP3    H169568   2.593   0.231  14.270  1.1853 -0.6235  1.5427
16051TIP3    H269569   2.606   0.380  14.292 -1.0631 -0.1598  0.0556
16052TIP3   OH269570   1.278   3.740  11.959  0.7184  0.5414  0.3770
16052TIP3    H169571   1.359   3.766  12.002  0.7746  4.1772 -1.5330
16052TIP3    H269572   1.210   3.788  12.005 -0.2134 -1.2504  0.9485
16053TIP3   OH269573   0.712   2.914  10.734  0.0508 -0.0863  0.9032
16053TIP3    H169574   0.690   3.000  10.770  0.5691  0.5541 -0.2338
16053TIP3    H269575   0.777   2.933  10.666 -0.0338 -1.3523  0.4458
16054TIP3   OH269576   6.011   4.909  15.090 -0.4882  0.2295  0.1287
16054TIP3    H169577   6.035   4.863  15.010  3.1613  0.2357  1.0687
16054TIP3    H269578   5.960   4.985  15.059  0.5679  0.0836 -2.1677
16055TIP3   OH269579   4.147   0.052  16.153  0.0147 -0.3298  0.4099
16055TIP3    H169580   4.123   0.144  16.144 -0.9222 -0.3460  2.3955
16055TIP3    H269581   4.124   0.014  16.068 -0.9372  0.9681  0.0479
16056TIP3   OH269582   2.872   1.594  10.990  0.1455  0.3365  0.2872
16056TIP3    H169583   2.934   1.615  11.060  2.4398 -2.0725 -0.8487
16056TIP3    H269584   2.920   1.534  10.933 -2.3578  0.5176 -2.2165
16057TIP3   OH269585   3.292   2.237   2.081 -0.2088  0.0535  1.0932
16057TIP3    H169586   3.283   2.156   2.131 -0.8411  0.0767  1.0294
16057TIP3    H269587   3.386   2.254   2.078  0.0322 -1.4107 -0.0999
16058TIP3   OH269588   5.704   5.283   2.037  0.2488  0.4134  0.1621
16058TIP3    H169589   5.781   5.235   2.067 -1.7883 -1.6960  2.4766
16058TIP3    H269590   5.662   5.224   1.974 -0.1432  0.9740 -0.1061
16059TIP3   OH269591   1.567   1.458  14.266  0.1502 -0.1315  0.0706
16059TIP3    H169592   1.590   1.415  14.348  0.1663 -0.3972 -0.0709
16059TIP3    H269593   1.619   1.539  14.266 -0.3061  0.1672  0.5961
16060TIP3   OH269594   3.980   4.945  15.873 -0.1154 -0.2154  0.9421
16060TIP3    H169595   4.001   4.958  15.966  0.2428 -0.3921  0.8921
16060TIP3    H269596   4.033   5.010  15.827  0.1388 -0.4972  0.8283
16061TIP3   OH269597   3.761   4.365   0.674 -0.1550  0.4080 -0.0541
16061TIP3    H169598   3.713   4.302   0.728  0.8595 -0.7206 -0.4330
16061TIP3    H269599   3.758   4.447   0.724 -0.5887 -0.1975  0.9421
16062TIP3   OH269600   6.017   1.274   0.926  0.6883 -0.3148  0.0921
16062TIP3    H169601   5.943   1.307   0.978 -0.6616 -1.1285 -1.2399
16062TIP3    H269602   6.081   1.345   0.929 -0.8434  1.1433 -0.1009
16063TIP3   OH269603   0.091   2.307  14.285 -0.2370  0.4733 -0.0911
16063TIP3    H169604   0.058   2.305  14.195  1.6413  1.0610 -0.8500
16063TIP3    H269605   0.020   2.346  14.336 -0.9156  1.1731 -1.5238
16064TIP3   OH269606   1.769   0.936   4.079  0.2565 -0.2067 -0.4289
16064TIP3    H169607   1.726   0.945   3.994 -2.5737 -1.2115  0.7703
16064TIP3    H269608   1.787   0.842   4.088  0.4064 -0.1313  0.1318
16065TIP3   OH269609   3.446   6.525   4.756  0.0902 -0.3225 -0.3583
16065TIP3    H169610   3.440   6.567   4.842 -2.3476 -0.4505 -0.3913
16065TIP3    H269611   3.482   6.438   4.774  1.0963  0.2046  0.2860
16066TIP3   OH269612   3.891   3.012   2.780  0.3080  0.3491  0.0080
16066TIP3    H169613   3.840   2.956   2.723  0.7592 -0.3314  0.2639
16066TIP3    H269614   3.940   3.069   2.720  2.2061 -1.6037 -0.3947
16067TIP3   OH269615   2.889   3.670  14.965 -0.0278  0.1455  0.2518
16067TIP3    H169616   2.807   3.622  14.981 -0.0922 -0.0541 -0.6517
16067TIP3    H269617   2.867   3.733  14.896  0.4393  0.4807  0.4010
16068TIP3   OH269618   0.921   1.712  12.217 -0.1109 -0.4339 -0.1982
16068TIP3    H169619   0.920   1.774  12.145 -0.0635  0.4384  0.5336
16068TIP3    H269620   1.013   1.703  12.241 -0.1600 -0.4031  0.0116
16069TIP3   OH269621   4.346   4.468  15.076  0.2792 -0.2020  0.1971
16069TIP3    H169622   4.286   4.424  15.136  2.1278 -0.5814  1.8746
16069TIP3    H269623   4.305   4.553  15.060 -2.0352 -1.4338 -0.9833
16070TIP3   OH269624   5.722   2.894   1.208  0.3730  0.3851  0.4184
16070TIP3    H169625   5.710   2.806   1.173  1.0367 -0.0849  1.3497
16070TIP3    H269626   5.658   2.901   1.279  0.7128  0.4417  0.7225
16071TIP3   OH269627   5.639   4.147  15.195  0.2103  1.0515  0.3967
16071TIP3    H169628   5.546   4.129  15.185  1.0545 -4.4302 -0.9609
16071TIP3    H269629   5.651   4.163  15.288 -1.7346 -2.1084  1.3209
16072TIP3   OH269630   1.248   6.436  15.386  0.1171 -0.2507  0.2006
16072TIP3    H169631   1.331   6.398  15.355  0.3125  0.1428  0.2440
16072TIP3    H269632   1.232   6.392  15.470  1.0226  0.6942  0.8996
16073TIP3   OH269633   2.978   2.622   5.062 -1.1908  0.1616  0.4083
16073TIP3    H169634   2.940   2.534   5.066 -0.3380 -0.2257  0.2285
16073TIP3    H269635   2.926   2.674   5.124 -2.1097 -0.3041  0.0399
16074TIP3   OH269636   1.178   0.219   5.418  0.0856  0.4655  0.1331
16074TIP3    H169637   1.257   0.168   5.398  0.9265  0.6743  2.4717
16074TIP3    H269638   1.124   0.159   5.469 -2.0473 -0.1565 -2.6470
16075TIP3   OH269639   1.440   1.097  14.443 -0.5506 -0.0549  0.5516
16075TIP3    H169640   1.386   1.162  14.399  1.6039  0.8069 -0.9848
16075TIP3    H269641   1.405   1.092  14.532 -1.0937  2.8757  0.5928
16076TIP3   OH269642   2.543   4.123  11.143  0.0275  0.2198  0.2897
16076TIP3    H169643   2.570   4.213  11.161 -0.7174  0.1256  2.1196
16076TIP3    H269644   2.584   4.102  11.059  2.2707  1.4133  0.9976
16077TIP3   OH269645   0.542   2.102  12.649 -0.2360  0.7798 -0.3260
16077TIP3    H169646   0.464   2.078  12.699 -0.0457  0.3185 -0.2530
16077TIP3    H269647   0.507   2.130  12.564 -0.5417  1.3714 -0.0160
16078TIP3   OH269648   0.825   0.924  15.115  0.3681  0.2790 -0.2367
16078TIP3    H169649   0.768   0.854  15.146  0.3553  0.9809  1.4739
16078TIP3    H269650   0.783   1.005  15.146 -0.3703  1.2316 -3.3453
16079TIP3   OH269651   6.225   4.801  12.285 -0.0926 -0.0869  0.5876
16079TIP3    H169652   6.283   4.727  12.301 -0.4064 -0.3590  0.4754
16079TIP3    H269653   6.252   4.867  12.349 -0.5148 -0.6922  1.4015
16080TIP3   OH269654   3.515   1.646   4.938  0.4422 -0.1606 -0.0247
16080TIP3    H169655   3.509   1.658   5.033  0.4758 -0.2858 -0.0063
16080TIP3    H269656   3.605   1.669   4.917  0.0755  1.1685 -0.2202
16081TIP3   OH269657   0.140   4.652  11.203  0.5119 -0.1449  0.3305
16081TIP3    H169658   0.197   4.615  11.135  0.5447 -0.4889  0.5473
16081TIP3    H269659   0.055   4.661  11.160  1.1236  2.0273 -0.5610
16082TIP3   OH269660   4.495   4.338   5.417  0.0232  0.5086 -0.8648
16082TIP3    H169661   4.543   4.261   5.387 -2.3072 -0.9587 -1.0794
16082TIP3    H269662   4.471   4.318   5.508 -0.9497  0.7585 -1.0508
16083TIP3   OH269663   2.937   5.415   6.208 -0.0206 -0.1565  0.1217
16083TIP3    H169664   2.854   5.392   6.166 -0.4249  0.7546  0.3776
16083TIP3    H269665   2.912   5.448   6.295  0.7582 -1.5233  0.8962
16084TIP3   OH269666   4.534   2.327   2.177  0.0699  0.0090 -0.3282
16084TIP3    H169667   4.544   2.249   2.231  2.0445 -0.1158 -0.8137
16084TIP3    H269668   4.535   2.294   2.087  0.6795  0.5628 -0.5315
16085TIP3   OH269669   4.783   3.570   0.481 -0.5612  0.2462  0.2115
16085TIP3    H169670   4.745   3.546   0.396 -1.9556  0.1488  0.8393
16085TIP3    H269671   4.753   3.502   0.541 -1.6399  1.5786  1.2755
16086TIP3   OH269672   1.065   3.775   0.573  0.6054  0.0076  0.7169
16086TIP3    H169673   1.133   3.744   0.514 -0.4757  0.4458 -0.8217
16086TIP3    H269674   1.011   3.697   0.589  0.5944  0.0076  0.6813
16087TIP3   OH269675   6.635   4.660   2.286  0.0911 -0.1583  0.0322
16087TIP3    H169676   6.650   4.630   2.376  0.6203  0.2920  0.0966
16087TIP3    H269677   6.716   4.636   2.239 -0.0605 -0.1140 -0.2548
16088TIP3   OH269678   6.473   4.382   5.463 -0.3203 -0.4986  0.0105
16088TIP3    H169679   6.525   4.454   5.499 -0.1213 -0.3759 -0.5125
16088TIP3    H269680   6.531   4.341   5.398 -0.5506 -0.9249  0.0742
16089TIP3   OH269681   1.535   4.705  16.378  0.0501 -0.5296 -0.0407
16089TIP3    H169682   1.585   4.689  16.298 -1.3837 -2.6582 -0.5771
16089TIP3    H269683   1.461   4.759  16.350  0.1344 -0.3413  0.0902
16090TIP3   OH269684   3.252   4.991  13.759 -0.0506  0.5248  0.7371
16090TIP3    H169685   3.241   5.037  13.842 -1.9941 -0.9208  1.3560
16090TIP3    H269686   3.189   4.919  13.763  0.7129 -0.3490 -1.4692
16091TIP3   OH269687   0.361   5.060  11.160 -0.3501 -0.3555  0.0181
16091TIP3    H169688   0.453   5.033  11.155 -0.8787 -2.0058 -2.1141
16091TIP3    H269689   0.363   5.154  11.143  0.8739 -0.6179 -1.5597
16092TIP3   OH269690   1.399   0.704   3.188 -0.2648 -0.5316 -0.1811
16092TIP3    H169691   1.317   0.656   3.177  0.9868 -2.9985  0.4244
16092TIP3    H269692   1.465   0.647   3.148  1.3605  0.6024  0.7719
16093TIP3   OH269693   6.321   3.352   3.978  0.6443 -0.0664  0.1334
16093TIP3    H169694   6.372   3.354   4.059  0.6517 -0.6617  0.1470
16093TIP3    H269695   6.386   3.368   3.909  0.6033  0.6569  0.2556
16094TIP3   OH269696   6.093   4.495   0.508 -0.6687 -0.0356  0.6549
16094TIP3    H169697   6.077   4.429   0.575  0.3798  0.6458  1.6201
16094TIP3    H269698   6.098   4.578   0.556  0.6211  0.4061 -0.1773
16095TIP3   OH269699   2.537   1.396  14.011  0.4358  0.7584 -0.0283
16095TIP3    H169700   2.540   1.457  13.937 -0.7259  0.7576 -0.1041
16095TIP3    H269701   2.521   1.310  13.970 -1.1284  0.8832  0.2292
16096TIP3   OH269702   5.604   3.601   0.174  0.6158 -0.1860  0.5409
16096TIP3    H169703   5.603   3.624   0.267  1.8268  1.6015  0.1636
16096TIP3    H269704   5.517   3.623   0.142  1.1591  2.4102  0.6078
16097TIP3   OH269705   5.838   4.545   4.758 -0.1551  0.0256 -0.1235
16097TIP3    H169706   5.823   4.550   4.664  0.1147 -1.3203 -0.2656
16097TIP3    H269707   5.752   4.523   4.794 -0.4248  1.3010  0.0377
16098TIP3   OH269708   1.817   5.962  12.628 -0.2892 -0.1283 -0.0617
16098TIP3    H169709   1.756   6.028  12.596 -0.4451  0.6535  1.7147
16098TIP3    H269710   1.902   6.005  12.628 -0.1836 -0.3349 -0.0273
16099TIP3   OH269711   0.499   0.906   0.119  0.2677 -0.9028 -0.6424
16099TIP3    H169712   0.528   0.920   0.209  0.4002 -1.4106 -0.6071
16099TIP3    H269713   0.539   0.824   0.093  0.1058 -0.8336 -1.1158
16100TIP3   OH269714   0.323   6.413  11.578  0.1448  0.1861  0.6133
16100TIP3    H169715   0.240   6.450  11.608 -1.1649 -1.1011 -1.2374
16100TIP3    H269716   0.354   6.475  11.512  1.3822  1.3398  2.2003
16101TIP3   OH269717   4.864   2.909   2.958 -0.4827  0.7823 -0.3497
16101TIP3    H169718   4.930   2.900   2.889 -0.4887  0.6091 -0.3330
16101TIP3    H269719   4.860   3.003   2.975  1.5932  0.6602  1.4018
16102TIP3   OH269720   3.641   5.679   1.293  0.3301 -0.0389 -0.1478
16102TIP3    H169721   3.612   5.679   1.202 -2.3109  3.6463  0.4840
16102TIP3    H269722   3.690   5.760   1.303  1.3296 -0.7878  1.6018
16103TIP3   OH269723   4.102   2.839   1.881 -0.0648 -0.4541 -0.1531
16103TIP3    H169724   4.150   2.919   1.860 -1.5132  0.2642 -0.9293
16103TIP3    H269725   4.117   2.781   1.806 -0.6310 -0.1045 -0.5490
16104TIP3   OH269726   1.856   5.794   1.255 -0.2423  0.6639  0.1917
16104TIP3    H169727   1.913   5.764   1.184 -1.2941  1.2498 -0.9417
16104TIP3    H269728   1.837   5.885   1.233 -1.2826  0.5968  0.7494
16105TIP3   OH269729   4.470   1.781  17.206 -0.5172  0.1685 -0.1676
16105TIP3    H169730   4.514   1.717  17.261 -0.6498 -0.6166 -0.9547
16105TIP3    H269731   4.379   1.751  17.201 -0.4769  0.1490 -0.9136
16106TIP3   OH269732   2.640   6.440   1.438 -0.0341  0.0750  0.4013
16106TIP3    H169733   2.683   6.522   1.462 -0.0285 -0.1369  1.1212
16106TIP3    H269734   2.636   6.389   1.519  2.4828 -1.8126 -0.5319
16107TIP3   OH269735   0.472   4.278   5.041 -0.0321  0.2541  0.1603
16107TIP3    H169736   0.524   4.248   4.966 -1.2212  1.0518 -1.0423
16107TIP3    H269737   0.518   4.356   5.072 -0.5142  0.9999 -0.9414
16108TIP3   OH269738   1.824   4.312   1.120  0.0332  0.2553  0.1259
16108TIP3    H169739   1.917   4.335   1.112  0.2471 -0.4777  0.3932
16108TIP3    H269740   1.820   4.262   1.202 -0.4103 -0.6541 -0.4460
16109TIP3   OH269741   3.195   4.983   2.546  0.0412 -0.0018 -0.7908
16109TIP3    H169742   3.275   4.991   2.597 -0.1365 -1.0980 -0.3191
16109TIP3    H269743   3.225   4.972   2.455  0.4446 -0.6913 -0.5819
16110TIP3   OH269744   3.061   1.819   5.623  0.3948 -0.8030  0.8661
16110TIP3    H169745   2.969   1.842   5.637  0.3911 -1.5865  2.2684
16110TIP3    H269746   3.107   1.903   5.626 -0.5209  0.0263 -2.8172
16111TIP3   OH269747   2.488   4.570   0.931 -0.2705 -0.2492 -0.4638
16111TIP3    H169748   2.511   4.601   1.019 -0.9165 -1.5108  0.1846
16111TIP3    H269749   2.557   4.604   0.874  0.3750  0.2624  0.5991
16112TIP3   OH269750   2.658   5.359   0.531 -0.3232 -0.0656  0.6698
16112TIP3    H169751   2.599   5.286   0.553 -1.6611  0.6012 -0.5522
16112TIP3    H269752   2.622   5.395   0.450  0.1135  2.1769  1.4119
16113TIP3   OH269753   3.416   4.275   6.550  0.1578 -0.7668 -0.3449
16113TIP3    H169754   3.327   4.279   6.516  0.7862 -0.9462 -2.0845
16113TIP3    H269755   3.442   4.183   6.539  0.5806 -0.7027  0.0861
16114TIP3   OH269756   6.126   2.290   0.755  0.5093 -0.1385 -0.1929
16114TIP3    H169757   6.179   2.225   0.802  1.6429  0.3379 -0.7813
16114TIP3    H269758   6.189   2.358   0.730 -0.6672  1.2597  0.5224
16115TIP3   OH269759   2.807   4.792   3.066 -0.4196 -0.2164  0.7935
16115TIP3    H169760   2.763   4.775   2.983 -2.1165 -2.2753  2.0079
16115TIP3    H269761   2.861   4.715   3.082 -0.0225  0.2015  1.5419
16116TIP3   OH269762   3.532   2.138  17.219  0.1935  0.2549 -0.5959
16116TIP3    H169763   3.488   2.122  17.303 -0.3025 -0.3978 -0.9650
16116TIP3    H269764   3.625   2.125  17.238  0.4966  3.4305  0.6104
16117TIP3   OH269765   5.056   1.287  15.306  0.2537 -0.8046 -0.0033
16117TIP3    H169766   5.112   1.264  15.232 -0.0676 -0.7179 -0.2756
16117TIP3    H269767   5.040   1.204  15.351  0.5732 -0.8339  0.0572
16118TIP3   OH269768   6.618   3.241   4.000 -0.5946 -0.0506  0.1188
16118TIP3    H169769   6.682   3.210   3.936 -0.6184  0.9196 -0.4108
16118TIP3    H269770   6.597   3.330   3.971 -0.8530  0.2966  1.3025
16119TIP3   OH269771   4.125   5.848   5.661  1.0029 -0.7405 -0.4187
16119TIP3    H169772   4.107   5.754   5.664 -0.1949 -0.5113  0.8102
16119TIP3    H269773   4.177   5.865   5.739  2.5239 -0.5961 -1.4328
16120TIP3   OH269774   5.348   5.667   1.912 -0.2696 -0.0333 -0.0341
16120TIP3    H169775   5.349   5.682   1.817 -1.3952  0.0660 -0.0458
16120TIP3    H269776   5.386   5.580   1.923  0.0579  0.0383 -0.5503
16121TIP3   OH269777   0.647   3.440   1.967  0.1664  0.0772 -0.1771
16121TIP3    H169778   0.697   3.431   1.886 -1.5307 -1.8830 -1.0966
16121TIP3    H269779   0.663   3.359   2.015  0.2351  0.7241  0.9252
16122TIP3   OH269780   3.183   5.222  15.618 -0.3661  0.5304  0.4381
16122TIP3    H169781   3.160   5.130  15.632 -0.2684  0.5215  0.5449
16122TIP3    H269782   3.175   5.234  15.523 -0.0241  0.3133  0.3787
16123TIP3   OH269783   0.963   0.958   1.497 -0.0452  0.2722  0.0280
16123TIP3    H169784   1.036   1.019   1.485  0.0131  0.1400 -0.2912
16123TIP3    H269785   0.896   1.010   1.542  0.7215  0.0481  1.5125
16124TIP3   OH269786   0.080   6.164  15.703  0.3117  0.1003 -0.7033
16124TIP3    H169787   0.058   6.079  15.742 -1.2394  1.3287  1.3234
16124TIP3    H269788   0.171   6.179  15.727 -0.1866  0.1702  1.3301
16125TIP3   OH269789   5.891   2.880  14.849  0.1461  0.0330  0.3409
16125TIP3    H169790   5.901   2.973  14.868 -1.6612  0.1399  0.8802
16125TIP3    H269791   5.821   2.875  14.785  1.0677 -0.9019 -0.6524
16126TIP3   OH269792   2.916   4.292   0.141  0.0104 -0.7566  0.1389
16126TIP3    H169793   2.935   4.383   0.159  0.4769 -1.0167  1.0043
16126TIP3    H269794   2.895   4.254   0.226 -1.4909 -1.1599 -0.3735
16127TIP3   OH269795   3.454   3.483   1.553  0.0356 -0.3717  0.7111
16127TIP3    H169796   3.539   3.439   1.554  0.0347 -0.5590 -1.7110
16127TIP3    H269797   3.397   3.426   1.605  0.6504 -1.9305 -0.2655
16128TIP3   OH269798   5.042   1.601   1.537  0.2614 -0.0758 -0.3022
16128TIP3    H169799   5.131   1.597   1.502  0.3366 -0.9194 -0.0368
16128TIP3    H269800   5.045   1.670   1.603  1.7496 -2.5683  2.4649
16129TIP3   OH269801   1.526   4.730  10.917  0.5321  0.2245 -0.0059
16129TIP3    H169802   1.462   4.681  10.969 -0.1138 -0.8304 -1.7091
16129TIP3    H269803   1.474   4.776  10.852  1.4610 -0.7299 -1.4937
16130TIP3   OH269804   1.684   1.831  14.714 -0.1239  0.1177  0.5529
16130TIP3    H169805   1.721   1.744  14.696  1.1743  0.2941  2.0969
16130TIP3    H269806   1.675   1.833  14.810  0.8103  2.0280  0.6513
16131TIP3   OH269807   5.839   0.956   3.629 -0.4894 -0.1838  0.2399
16131TIP3    H169808   5.861   1.013   3.555  1.5276 -0.8352  0.2673
16131TIP3    H269809   5.749   0.980   3.652 -0.2269  1.9259 -0.6826
16132TIP3   OH269810   6.374   1.465  13.278  0.5035  0.4479  0.0523
16132TIP3    H169811   6.405   1.530  13.341  0.1911 -0.3147  1.0095
16132TIP3    H269812   6.452   1.440  13.229  1.1547 -0.4150  1.4888
16133TIP3   OH269813   2.754   6.478  13.957 -0.1580 -0.3253 -0.7615
16133TIP3    H169814   2.759   6.521  13.871  0.5023 -0.5761 -0.8504
16133TIP3    H269815   2.781   6.388  13.940  0.0541 -0.3552 -0.2666
16134TIP3   OH269816   0.821   2.431   1.825 -0.2935  0.2418 -0.1341
16134TIP3    H169817   0.733   2.462   1.848 -1.1975 -0.6458 -2.1433
16134TIP3    H269818   0.824   2.342   1.861 -0.7887 -0.2396 -1.2138
16135TIP3   OH269819   0.073   6.409   4.669 -0.3075  0.0591  0.1151
16135TIP3    H169820   0.143   6.372   4.723 -0.6560 -0.1071  0.4576
16135TIP3    H269821   0.022   6.463   4.729 -1.5448 -1.2547  0.3145
16136TIP3   OH269822   0.549   1.473   3.776  0.0714  0.1109 -0.1717
16136TIP3    H169823   0.537   1.382   3.747 -2.4511 -0.0355  0.9776
16136TIP3    H269824   0.604   1.466   3.854  0.6603 -0.3080 -0.6134
16137TIP3   OH269825   0.762   2.792   4.413  0.1393 -0.0504 -0.0033
16137TIP3    H169826   0.845   2.747   4.401 -0.3906 -1.0720  0.1076
16137TIP3    H269827   0.697   2.723   4.417 -0.7141  0.7313  0.0239
16138TIP3   OH269828   1.829   3.804   3.955  0.3418 -0.0192  0.5203
16138TIP3    H169829   1.757   3.760   3.911  1.3154 -1.0230 -0.1485
16138TIP3    H269830   1.801   3.814   4.046 -0.8876  0.2158  0.1193
16139TIP3   OH269831   0.207   4.389   2.604  0.0045  0.1697  0.0164
16139TIP3    H169832   0.172   4.438   2.678 -0.5810 -1.3370  0.7705
16139TIP3    H269833   0.211   4.453   2.533  0.8984  1.7368  1.4042
16140TIP3   OH269834   2.713   3.938   6.069  0.2541 -0.0267 -0.3143
16140TIP3    H169835   2.749   3.849   6.077  0.2549 -0.3917 -3.2710
16140TIP3    H269836   2.630   3.934   6.117  0.8962 -1.1933  0.7648
16141TIP3   OH269837   3.493   6.669   0.680  0.1290  0.2564 -0.1325
16141TIP3    H169838   3.413   6.616   0.681 -0.2985  0.8291 -1.2913
16141TIP3    H269839   3.555   6.617   0.628  0.5576 -0.2314  0.8469
16142TIP3   OH269840   0.271   2.433  14.081  0.1391  0.1552 -0.0846
16142TIP3    H169841   0.210   2.360  14.077 -0.9574  1.0849 -1.3154
16142TIP3    H269842   0.343   2.402  14.136 -0.3606 -1.7748 -0.4476
16143TIP3   OH269843   0.666   4.207  15.221 -0.0906 -0.5451 -0.2001
16143TIP3    H169844   0.699   4.117  15.227 -0.3091 -0.7378 -1.5305
16143TIP3    H269845   0.663   4.225  15.127  0.9416  1.2443  0.0667
16144TIP3   OH269846   1.371   4.637   2.450 -0.1369  0.0369 -0.2342
16144TIP3    H169847   1.336   4.659   2.536 -0.9665 -0.0138 -0.5534
16144TIP3    H269848   1.409   4.719   2.418  0.5989 -0.0598  0.3718
16145TIP3   OH269849   0.274   6.116   2.667 -0.3858 -0.0877  0.2239
16145TIP3    H169850   0.200   6.175   2.652 -0.0946 -0.5048 -4.2338
16145TIP3    H269851   0.235   6.030   2.678 -0.6359  0.0605  0.4947
16146TIP3   OH269852   2.157   1.183  11.951  0.1704 -0.2854 -0.4843
16146TIP3    H169853   2.149   1.184  12.046 -0.3350  0.7112 -0.5272
16146TIP3    H269854   2.247   1.211  11.934  0.5499 -1.3512 -0.2850
16147TIP3   OH269855   2.738   3.970   2.622  0.2769 -0.1184 -0.0706
16147TIP3    H169856   2.730   4.001   2.532 -1.4654 -2.6749 -0.9191
16147TIP3    H269857   2.816   3.914   2.621  0.9177  0.7549  0.3275
16148TIP3   OH269858   4.144   6.027   4.964 -0.2791 -0.1877 -0.6181
16148TIP3    H169859   4.142   6.071   4.879 -0.5920 -1.0879 -1.0925
16148TIP3    H269860   4.113   5.938   4.945 -2.4810  0.2014  0.8023
16149TIP3   OH269861   3.060   1.831   2.063  0.7073  0.6022 -0.3218
16149TIP3    H169862   3.021   1.812   2.149  0.9117 -0.9768 -0.5444
16149TIP3    H269863   2.989   1.814   2.001  0.2930  2.5963 -0.4468
16150TIP3   OH269864   6.106   3.484   1.535  0.6334 -0.3776 -0.3007
16150TIP3    H169865   6.021   3.444   1.551  1.6542 -3.1043 -1.1536
16150TIP3    H269866   6.102   3.514   1.444 -0.2423  1.9392  0.4323
16151TIP3   OH269867   6.541   3.923  15.981 -0.0437 -0.2136  0.1695
16151TIP3    H169868   6.534   3.830  15.958  0.1778 -0.3394  0.5826
16151TIP3    H269869   6.452   3.949  16.003  0.1227 -0.7927  1.7060
16152TIP3   OH269870   1.257   3.164  12.850 -0.1135  0.7403  0.6218
16152TIP3    H169871   1.173   3.122  12.868  0.3643 -0.5710 -0.0869
16152TIP3    H269872   1.242   3.214  12.769  0.0148 -0.2252 -0.0134
16153TIP3   OH269873   6.277   3.504   5.372 -0.0582  0.5607 -0.3264
16153TIP3    H169874   6.185   3.510   5.397  0.2261  0.4302  0.7919
16153TIP3    H269875   6.299   3.591   5.340 -0.5175  0.6433 -0.4205
16154TIP3   OH269876   6.014   0.257   1.259 -0.3731  0.2119  0.0293
16154TIP3    H169877   6.066   0.337   1.251  2.7950 -1.5484  1.2125
16154TIP3    H269878   6.020   0.233   1.352  0.7695 -2.5462 -0.6442
16155TIP3   OH269879   6.030   3.007  14.199  0.1241 -0.0939  0.1851
16155TIP3    H169880   5.971   3.045  14.263 -2.4851 -1.9324 -0.9668
16155TIP3    H269881   6.091   2.955  14.251  0.1782  1.0501  1.3364
16156TIP3   OH269882   0.959   1.455  15.114  0.5127 -0.0711 -0.4450
16156TIP3    H169883   0.984   1.458  15.207  1.4043 -1.2422 -0.6164
16156TIP3    H269884   0.864   1.449  15.115  0.4575  0.7108  0.3705
16157TIP3   OH269885   1.200   1.578   4.272 -0.0196  0.7910  0.4881
16157TIP3    H169886   1.179   1.485   4.264  0.0243  0.8440 -0.4227
16157TIP3    H269887   1.163   1.605   4.356 -2.0211  0.4605 -0.2262
16158TIP3   OH269888   3.483   5.926   4.340  0.5688 -0.1806  0.2617
16158TIP3    H169889   3.455   5.857   4.280  0.2995  1.1054 -1.1421
16158TIP3    H269890   3.474   5.887   4.427  1.2915 -2.2088 -0.5142
16159TIP3   OH269891   4.827   4.391  11.990  0.1070 -0.0275 -0.1007
16159TIP3    H169892   4.822   4.433  11.904  0.6648  1.6739  0.6521
16159TIP3    H269893   4.858   4.303  11.971 -1.1833 -0.1909 -1.7610
16160TIP3   OH269894   4.519   1.177   3.722  0.1065 -0.1363  0.2331
16160TIP3    H169895   4.431   1.165   3.756 -0.7303 -0.1468 -1.7896
16160TIP3    H269896   4.549   1.260   3.760 -2.7256  2.4985 -2.7169
16161TIP3   OH269897   0.402   5.411  13.745  0.0740 -0.2277  0.0746
16161TIP3    H169898   0.333   5.385  13.685 -0.3548 -0.5886  0.7170
16161TIP3    H269899   0.472   5.348  13.730  1.1219  1.2761 -1.9944
16162TIP3   OH269900   6.493   1.554   1.201 -0.1921  0.0015  0.1613
16162TIP3    H169901   6.552   1.571   1.274  0.4853 -1.5853  0.0273
16162TIP3    H269902   6.410   1.595   1.227  0.2222  0.0363  1.5080
16163TIP3   OH269903   5.505   4.258  10.781  0.0094 -0.0176 -0.2263
16163TIP3    H169904   5.540   4.249  10.692 -0.9300  0.7338 -0.6908
16163TIP3    H269905   5.416   4.289  10.769  0.0834  0.7599  1.0041
16164TIP3   OH269906   0.181   3.015  15.788  0.3661  0.0286  0.2713
16164TIP3    H169907   0.114   3.084  15.795 -0.7509 -1.0480  0.5188
16164TIP3    H269908   0.212   3.002  15.877  0.6434  0.2592  0.2109
16165TIP3   OH269909   2.721   0.549  12.501 -0.3214 -0.8044 -0.1142
16165TIP3    H169910   2.636   0.527  12.537 -0.0607 -0.6585  0.6177
16165TIP3    H269911   2.782   0.489  12.545 -0.3392 -2.7602 -2.5587
16166TIP3   OH269912   3.746   1.691   5.197  0.1967 -0.3105 -0.4218
16166TIP3    H169913   3.651   1.694   5.200  0.0798 -2.4206 -0.5878
16166TIP3    H269914   3.769   1.720   5.109 -0.0431  3.0441  0.4915
16167TIP3   OH269915   0.472   6.505  14.749  0.0240 -0.0309 -0.0687
16167TIP3    H169916   0.547   6.542  14.796  1.2360 -0.9472 -1.1728
16167TIP3    H269917   0.409   6.482  14.817  0.6366  1.0021  0.8723
16168TIP3   OH269918   1.971   1.284  16.953  0.1959  0.3856  0.5405
16168TIP3    H169919   1.939   1.239  17.031 -1.8950  0.9775  0.0762
16168TIP3    H269920   1.985   1.214  16.889  0.0903  0.0941  0.8318
16169TIP3   OH269921   3.674   3.064  14.510  0.1228  0.3438  0.5758
16169TIP3    H169922   3.679   3.112  14.427  0.1686  2.9564  1.9749
16169TIP3    H269923   3.753   3.011  14.513 -0.7802 -1.3159 -1.8350
16170TIP3   OH269924   1.477   3.660   3.547  1.0864  0.4723  0.3496
16170TIP3    H169925   1.487   3.755   3.559  0.4635  0.8802 -1.7762
16170TIP3    H269926   1.383   3.645   3.554  0.9278  0.4111 -1.3486
16171TIP3   OH269927   0.992   5.827  14.778 -0.9101  0.2609 -0.0910
16171TIP3    H169928   0.948   5.743  14.789  2.1106 -1.4156  0.6265
16171TIP3    H269929   0.941   5.874  14.712 -2.4543 -2.3457 -0.8735
16172TIP3   OH269930   3.855   5.736  16.352 -0.4402  0.0499  0.0472
16172TIP3    H169931   3.882   5.736  16.260  1.2712 -0.8404  0.5088
16172TIP3    H269932   3.844   5.643  16.374  0.1198  0.1983  0.9908
16173TIP3   OH269933   3.970   1.404   3.628 -0.4289 -0.3779  0.0016
16173TIP3    H169934   3.981   1.344   3.702  0.6013 -0.6416 -0.3459
16173TIP3    H269935   3.876   1.412   3.618 -0.5830 -0.7894  0.9838
16174TIP3   OH269936   2.537   5.700  15.524  0.2623  0.1614 -0.1718
16174TIP3    H169937   2.613   5.641  15.520  0.8072  0.4197  3.2831
16174TIP3    H269938   2.479   5.669  15.455  2.0958 -2.1145 -0.8344
16175TIP3   OH269939   5.052   4.688   5.398  0.2522 -0.4000  0.1709
16175TIP3    H169940   5.028   4.758   5.458 -0.4539 -1.0468  0.6683
16175TIP3    H269941   5.008   4.610   5.433 -0.8520 -0.6476 -1.6154
16176TIP3   OH269942   6.580   3.080   0.038  0.2732 -0.1862 -0.9280
16176TIP3    H169943   6.613   3.072   0.128  0.0669 -0.5167 -0.8806
16176TIP3    H269944   6.490   3.048   0.043  0.4372 -0.7358 -1.3643
16177TIP3   OH269945   0.036   2.744  15.819 -0.0713  0.4818 -0.2287
16177TIP3    H169946  -0.059   2.759  15.820 -0.4054 -1.3593  0.2542
16177TIP3    H269947   0.074   2.831  15.806 -1.7282  1.6948  2.1575
16178TIP3   OH269948   1.581   1.534   6.422  0.0886  0.1789 -0.0971
16178TIP3    H169949   1.618   1.601   6.480 -0.5788 -1.1114  1.9133
16178TIP3    H269950   1.658   1.489   6.386  0.5180  0.2788  0.6726
16179TIP3   OH269951   2.864   1.504  15.245 -0.2388 -0.6341  0.0257
16179TIP3    H169952   2.809   1.532  15.171 -1.6570 -1.8554  0.5570
16179TIP3    H269953   2.882   1.584  15.293  0.3719  0.1218 -1.4067
16180TIP3   OH269954   2.645   0.411   4.421  0.3806 -0.0027  0.1003
16180TIP3    H169955   2.654   0.414   4.326  1.6465 -1.0978  0.1615
16180TIP3    H269956   2.706   0.342   4.449 -0.1335  0.1484  1.6821
16181TIP3   OH269957   5.680   2.608  11.713  0.1678 -0.1669  0.4113
16181TIP3    H169958   5.691   2.664  11.637  1.4636  0.3149  0.9175
16181TIP3    H269959   5.767   2.605  11.754 -0.7215  0.5615  2.5241
16182TIP3   OH269960   2.545   2.723  16.482 -0.0598  0.1755 -0.1242
16182TIP3    H169961   2.466   2.776  16.497 -0.1707 -0.7546  3.5630
16182TIP3    H269962   2.555   2.722  16.387 -2.0700  3.7732 -0.5756
16183TIP3   OH269963   1.057   6.260   2.733  0.3585  0.0415  0.4795
16183TIP3    H169964   1.102   6.222   2.808  2.2217  1.1184 -0.0420
16183TIP3    H269965   1.124   6.267   2.665 -1.3133 -1.0862 -1.3999
16184TIP3   OH269966   5.773   2.084   0.324  0.0186 -0.1396  0.1029
16184TIP3    H169967   5.715   2.109   0.396 -0.3700  1.1089 -0.6157
16184TIP3    H269968   5.821   2.008   0.357 -1.3654 -0.6315  1.0483
16185TIP3   OH269969   0.110   0.129   2.691 -0.5688 -0.6089 -0.1301
16185TIP3    H169970   0.169   0.155   2.621 -0.0744 -1.0318  0.1205
16185TIP3    H269971   0.047   0.070   2.649 -0.0791 -1.1165 -0.1583
16186TIP3   OH269972   1.567   1.183   1.522  0.7460 -0.2035 -0.2065
16186TIP3    H169973   1.572   1.088   1.510 -1.1549 -0.2732 -0.8205
16186TIP3    H269974   1.562   1.218   1.433 -1.3602  0.2006  0.0022
16187TIP3   OH269975   2.937   0.289   3.845 -0.1927  0.2991 -0.0414
16187TIP3    H169976   2.875   0.357   3.819 -0.4807  0.4142  0.9184
16187TIP3    H269977   2.981   0.324   3.922  0.2417 -0.2609 -0.0282
16188TIP3   OH269978   0.479   6.726  16.132 -0.6565 -0.3972  0.7762
16188TIP3    H169979   0.560   6.770  16.158 -0.3892 -0.0302 -0.6200
16188TIP3    H269980   0.419   6.798  16.112 -0.7477 -0.6577  0.0937
16189TIP3   OH269981   5.939   2.119   0.025  0.1208 -0.2863  0.0408
16189TIP3    H169982   5.926   2.069   0.106 -0.9990 -0.0822  0.0057
16189TIP3    H269983   5.851   2.146  -0.000  0.4450 -0.4470 -1.3119
16190TIP3   OH269984   3.292   3.956   5.909  0.5905 -0.4065  0.2029
16190TIP3    H169985   3.244   3.999   5.979  0.2597  1.3054 -1.0089
16190TIP3    H269986   3.374   3.928   5.949  0.4061  0.5271  1.2627
16191TIP3   OH269987   3.235   2.016  14.930  0.6422  0.5650 -0.2170
16191TIP3    H169988   3.143   1.991  14.942  0.5716  0.4199 -0.9919
16191TIP3    H269989   3.274   2.007  15.017 -0.1576  0.9714  0.2019
16192TIP3   OH269990   6.481   4.622   2.755 -0.4211  0.5416  0.4710
16192TIP3    H169991   6.513   4.664   2.835 -0.3194  0.7038  0.3461
16192TIP3    H269992   6.387   4.608   2.771 -0.0865 -0.9517  1.2750
16193TIP3   OH269993   5.898   4.336   2.321 -0.5871  0.2575  0.4083
16193TIP3    H169994   5.818   4.385   2.304 -0.4448  0.6436  0.8242
16193TIP3    H269995   5.874   4.244   2.309  0.0829  0.4544 -4.5438
16194TIP3   OH269996   3.977   1.786   2.433 -0.4111  0.0697 -0.7596
16194TIP3    H169997   3.997   1.869   2.389 -1.4887  0.0030 -1.3916
16194TIP3    H269998   4.017   1.719   2.377  2.9965  0.2324  1.1910
16195TIP3   OH269999   5.131   2.740   5.742  0.0681 -0.1741  0.0764
16195TIP3    H170000   5.141   2.721   5.835  1.7836  1.6240  0.3181
16195TIP3    H270001   5.157   2.832   5.733  0.0017 -0.3160 -2.1959
16196TIP3   OH270002   5.168   5.117   2.150  0.5796  0.0235  0.0581
16196TIP3    H170003   5.136   5.028   2.164 -0.2672  0.1205 -1.1400
16196TIP3    H270004   5.090   5.172   2.154  1.0437  0.6747  0.3961
16197TIP3   OH270005   0.315   2.204  16.402 -0.0530  0.4078 -0.4108
16197TIP3    H170006   0.334   2.290  16.439 -0.4594 -0.0323  0.8793
16197TIP3    H270007   0.395   2.153  16.417 -0.0789  0.3398 -0.4996
16198TIP3   OH270008   6.521   5.683  13.551 -0.7242 -0.6156 -0.5929
16198TIP3    H170009   6.594   5.635  13.512 -0.0611  0.5092 -0.7703
16198TIP3    H270010   6.517   5.651  13.641  0.1699 -0.4897 -0.5015
16199TIP3   OH270011   1.318   6.763  11.570  0.0941 -0.0531 -0.3927
16199TIP3    H170012   1.298   6.835  11.511  1.7729  0.3409 -0.5092
16199TIP3    H270013   1.262   6.691  11.539 -1.3149  1.0452 -0.5030
16200TIP3   OH270014   5.559   6.593  12.848 -0.3232 -0.2714  0.7368
16200TIP3    H170015   5.509   6.582  12.767  0.0964 -1.1357  0.5814
16200TIP3    H270016   5.642   6.632  12.819 -0.3364 -0.1948  0.8032
16201TIP3   OH270017   5.719   4.053  10.608  0.2306  0.3573 -0.8353
16201TIP3    H170018   5.752   3.999  10.680 -0.9501 -0.2718 -0.7295
16201TIP3    H270019   5.789   4.115  10.589  0.9747 -0.1666  0.1435
16202TIP3   OH270020   4.059   1.577  15.897  0.2381  0.2267  0.4032
16202TIP3    H170021   4.127   1.546  15.837  0.5356 -0.5327  1.1040
16202TIP3    H270022   4.093   1.557  15.984  0.1757  2.0643  0.8780
16203TIP3   OH270023   4.426   6.430  11.497 -0.1860 -0.1808 -0.2823
16203TIP3    H170024   4.511   6.409  11.536 -0.6178 -1.7718 -0.1175
16203TIP3    H270025   4.376   6.470  11.567  0.5440  1.1373 -0.4885
16204TIP3   OH270026   1.571   1.101  15.105  0.7201 -0.0643 -0.2188
16204TIP3    H170027   1.519   1.181  15.106 -0.7497 -0.9849  0.1393
16204TIP3    H270028   1.519   1.038  15.155  2.4551 -0.8772  0.6683
16205TIP3   OH270029   1.660   0.373  16.737  0.1725 -0.7659 -0.0760
16205TIP3    H170030   1.691   0.355  16.649  1.0711  2.5152 -0.5850
16205TIP3    H270031   1.740   0.383  16.789 -0.2837 -0.7329  0.6303
16206TIP3   OH270032   1.716   3.792   1.905  0.3055 -0.1941  0.2513
16206TIP3    H170033   1.779   3.863   1.917  1.0769 -0.7353 -0.5013
16206TIP3    H270034   1.639   3.834   1.868  0.8996  0.2000 -0.5580
16207TIP3   OH270035   1.414   6.199   5.681  0.2311  0.2995 -0.3093
16207TIP3    H170036   1.409   6.254   5.759  0.2031  0.0960 -0.1653
16207TIP3    H270037   1.359   6.243   5.617 -1.2537 -0.4709  0.3725
16208TIP3   OH270038   4.131   2.690   0.816 -0.0405 -0.3331  0.1830
16208TIP3    H170039   4.198   2.744   0.858  0.3378 -1.2827  0.8377
16208TIP3    H270040   4.141   2.603   0.856  0.6977 -1.4625 -2.2273
16209TIP3   OH270041   1.193   0.982   4.163 -0.0456 -0.1402  0.4384
16209TIP3    H170042   1.163   0.967   4.073  0.1582  1.2724  0.1073
16209TIP3    H270043   1.276   1.028   4.153 -0.1587  0.2876  1.3495
16210TIP3   OH270044   0.541   2.228  15.306 -0.6097 -0.6689  0.0640
16210TIP3    H170045   0.548   2.208  15.399 -1.7278  0.5896  0.4505
16210TIP3    H270046   0.448   2.223  15.286 -0.6763  1.3667 -0.4034
16211TIP3   OH270047   5.369   0.195  15.574 -0.7247 -0.2022 -0.6495
16211TIP3    H170048   5.286   0.242  15.581 -1.2698 -1.2520  0.1923
16211TIP3    H270049   5.386   0.164  15.663  0.0568 -0.8562 -1.0209
16212TIP3   OH270050   5.829   1.419  14.663  0.2247  0.2959  0.0611
16212TIP3    H170051   5.877   1.497  14.690 -1.3154  0.6401  2.0078
16212TIP3    H270052   5.770   1.450  14.593 -1.1613  1.1913  1.5613
16213TIP3   OH270053   1.083   5.133   5.495 -0.1245 -0.1068 -0.4041
16213TIP3    H170054   1.127   5.098   5.418  1.7596  2.4137 -0.6108
16213TIP3    H270055   1.137   5.105   5.569 -0.6588 -0.6342 -0.2051
16214TIP3   OH270056   1.819   2.545  12.860 -0.1160 -0.2622 -0.5724
16214TIP3    H170057   1.740   2.582  12.821  1.1186  1.2709 -1.7377
16214TIP3    H270058   1.882   2.542  12.789  1.5417  0.5938  0.7859
16215TIP3   OH270059   0.695   4.303  13.594  0.3110 -0.2518  0.4990
16215TIP3    H170060   0.778   4.333  13.555 -1.3048  1.1967 -2.1665
16215TIP3    H270061   0.689   4.350  13.677  0.7597  2.1307 -0.7269
16216TIP3   OH270062   2.192   5.984   2.831  0.4658 -0.3471  0.0429
16216TIP3    H170063   2.251   5.965   2.904  1.4394 -0.6147 -0.8073
16216TIP3    H270064   2.135   6.054   2.865  0.8765 -0.4863  1.0649
16217TIP3   OH270065   2.427   0.422   1.447 -0.2886  0.2335 -0.6670
16217TIP3    H170066   2.470   0.482   1.386 -0.4215 -0.9515 -1.9550
16217TIP3    H270067   2.347   0.468   1.473  1.0036  1.8762  0.7154
16218TIP3   OH270068   2.369   0.562  16.594  0.0127 -0.0460  0.4661
16218TIP3    H170069   2.376   0.573  16.689 -0.2308 -0.9634  0.5999
16218TIP3    H270070   2.450   0.601  16.560 -0.1323  0.7516  0.9987
16219TIP3   OH270071   2.702   1.386  13.257  0.3119  0.2630  0.4236
16219TIP3    H170072   2.713   1.414  13.166 -3.0668 -2.0663 -0.8972
16219TIP3    H270073   2.647   1.454  13.296  0.8885  0.7349  0.4202
16220TIP3   OH270074   4.481   6.567  11.274  0.3526 -0.4158  0.2067
16220TIP3    H170075   4.452   6.531  11.358 -3.1298  2.1561  0.3121
16220TIP3    H270076   4.516   6.653  11.295  1.1558 -0.4548 -0.8572
16221TIP3   OH270077   5.339   5.683   5.865 -0.1725  0.1427  0.3532
16221TIP3    H170078   5.304   5.663   5.778  3.4721 -2.4358 -0.7583
16221TIP3    H270079   5.387   5.604   5.890  0.5129  1.5057  3.9190
16222TIP3   OH270080   2.130   4.510   4.899  0.0687 -0.7985  0.1712
16222TIP3    H170081   2.084   4.499   4.982 -0.3620  0.0114  0.0445
16222TIP3    H270082   2.133   4.421   4.862 -1.1354 -0.9207  0.3233
16223TIP3   OH270083   6.355   0.106   0.805  0.1334 -0.1463  0.7381
16223TIP3    H170084   6.272   0.153   0.792  0.4003  0.5904  1.5826
16223TIP3    H270085   6.328   0.016   0.827 -0.3974 -0.2509 -0.2603
16224TIP3   OH270086   0.989   2.307   3.819 -0.0778 -0.1285 -0.6789
16224TIP3    H170087   1.028   2.220   3.806 -1.3052 -0.7588 -0.3920
16224TIP3    H270088   0.947   2.327   3.735 -1.5832 -0.7885 -0.1167
16225TIP3   OH270089   3.838   3.818   0.907  0.3506 -0.0659  0.1128
16225TIP3    H170090   3.782   3.822   0.829  2.2007  0.0340 -1.2644
16225TIP3    H270091   3.875   3.906   0.915  1.2435 -0.4492  0.2911
16226TIP3   OH270092   0.575   3.319  14.464  0.0746 -0.4156  0.8375
16226TIP3    H170093   0.579   3.413  14.485  0.0282 -0.3871  0.7185
16226TIP3    H270094   0.494   3.309  14.413 -0.1898 -0.6066  1.2862
16227TIP3   OH270095   4.308   4.620   4.693 -0.5708  0.0352 -0.4371
16227TIP3    H170096   4.281   4.703   4.653 -1.6368 -0.1847 -0.2012
16227TIP3    H270097   4.385   4.642   4.744 -0.1219  0.6398 -1.3513
16228TIP3   OH270098   4.542   5.235   0.947  0.4274 -0.6985 -0.2776
16228TIP3    H170099   4.553   5.276   0.861  0.2542 -0.1866 -0.0604
16228TIP3    H270100   4.558   5.306   1.009 -1.9143 -0.4078  0.0884
16229TIP3   OH270101   1.310   5.366  16.636 -0.6750  0.0574  0.2750
16229TIP3    H170102   1.345   5.369  16.725  0.8889  0.3828 -0.3068
16229TIP3    H270103   1.385   5.342  16.582 -1.0605  1.8856 -1.1867
16230TIP3   OH270104   3.587   1.309   5.097 -0.2116  0.0108  0.1131
16230TIP3    H170105   3.675   1.344   5.109 -0.5187  0.6653  0.5085
16230TIP3    H270106   3.587   1.275   5.007 -0.0488  1.4867 -0.4698
16231TIP3   OH270107   0.982   1.073  11.749 -0.3242  0.1209  0.3653
16231TIP3    H170108   0.910   1.065  11.811  0.2702 -4.0686  0.7460
16231TIP3    H270109   0.940   1.093  11.665 -1.8486 -1.1219  0.7998
16232TIP3   OH270110   3.660   1.211  15.206  0.2277  0.0452 -0.1665
16232TIP3    H170111   3.637   1.119  15.193  1.3682 -0.2826  0.0532
16232TIP3    H270112   3.742   1.222  15.159  1.4983  0.2700  1.9787
16233TIP3   OH270113   2.005   0.830  12.864  0.2582  0.2973  0.1331
16233TIP3    H170114   2.021   0.753  12.810  0.8041  0.8635 -0.5388
16233TIP3    H270115   1.910   0.843  12.861  0.3163  0.5564 -1.0488
16234TIP3   OH270116   4.544   0.719  13.158  0.2269  0.1931 -0.3560
16234TIP3    H170117   4.540   0.752  13.247 -2.2522  2.2870 -1.1223
16234TIP3    H270118   4.530   0.796  13.103 -0.6977 -1.3794 -2.4754
16235TIP3   OH270119   0.677   4.325  12.375  0.0809  0.1602 -0.6429
16235TIP3    H170120   0.584   4.329  12.397  0.3042  2.3382  0.1082
16235TIP3    H270121   0.723   4.336  12.458  1.0308 -0.5658 -1.0482
16236TIP3   OH270122   6.320   0.090  13.912  0.7726  0.4285  0.2822
16236TIP3    H170123   6.285   0.168  13.953  0.1147 -0.3051  1.1544
16236TIP3    H270124   6.386   0.058  13.973  1.5385  0.6789 -0.3997
16237TIP3   OH270125   1.104   5.542   2.920  0.5805  0.2010  0.1270
16237TIP3    H170126   1.130   5.606   2.986  0.4083  0.1085  0.2848
16237TIP3    H270127   1.043   5.483   2.965  1.1456 -0.3978  0.1373
16238TIP3   OH270128   2.186   1.415   3.548  0.3738  0.1450 -0.2673
16238TIP3    H170129   2.144   1.378   3.625  0.9632  0.8469  0.4078
16238TIP3    H270130   2.278   1.388   3.555  0.6313  0.9973 -0.2155
16239TIP3   OH270131   0.073   0.628  11.276  0.2640  0.2560  0.1692
16239TIP3    H170132   0.023   0.567  11.222  0.3716  0.1359  0.2039
16239TIP3    H270133   0.007   0.680  11.322  0.1706  0.4416 -0.1707
16240TIP3   OH270134   5.819   0.395   4.523  0.0768 -0.3202  0.2639
16240TIP3    H170135   5.780   0.357   4.444 -0.9298 -0.0556  0.6170
16240TIP3    H270136   5.909   0.361   4.524 -0.3744 -1.5997 -0.1444
16241TIP3   OH270137   1.314   4.642   0.252 -0.4583 -0.0525  0.4326
16241TIP3    H170138   1.376   4.574   0.227 -0.4654 -0.1400  0.6427
16241TIP3    H270139   1.323   4.709   0.185 -0.5993 -0.3542  0.1089
16242TIP3   OH270140   1.699   6.180   3.204  0.0293  0.0459  0.7038
16242TIP3    H170141   1.727   6.123   3.132 -0.2291  1.4949 -0.6029
16242TIP3    H270142   1.625   6.134   3.243 -0.7783 -0.1175 -0.9195
16243TIP3   OH270143   4.684   5.937   3.209  0.1498  0.2146 -0.1770
16243TIP3    H170144   4.709   5.956   3.118 -2.0225  0.9922 -0.6733
16243TIP3    H270145   4.735   5.998   3.261  0.9146  0.2352 -0.9274
16244TIP3   OH270146   3.280   5.480  11.421  0.3858  0.7143  0.1691
16244TIP3    H170147   3.338   5.531  11.365 -2.4015  1.6008 -2.1516
16244TIP3    H270148   3.194   5.486  11.379 -0.7898 -3.3322  1.4819
16245TIP3   OH270149   3.072   4.523   1.598  0.5945  0.1556 -0.3854
16245TIP3    H170150   3.088   4.525   1.504 -0.4931  0.4929 -0.5752
16245TIP3    H270151   3.007   4.592   1.613  1.9755  1.2526  0.8578
16246TIP3   OH270152   6.516   2.235  17.120  0.0147  0.8956 -0.5922
16246TIP3    H170153   6.553   2.249  17.033  0.2606  0.7861 -0.5047
16246TIP3    H270154   6.582   2.184  17.166 -1.1150 -1.1068 -1.0813
16247TIP3   OH270155   4.211   2.552   2.783 -0.1736  0.3558 -0.3831
16247TIP3    H170156   4.243   2.595   2.703 -1.2791  0.2394 -0.9147
16247TIP3    H270157   4.151   2.616   2.822 -2.8018 -1.0459 -1.8244
16248TIP3   OH270158   6.500   2.865   0.258 -0.0726 -0.2471 -0.7797
16248TIP3    H170159   6.434   2.933   0.269 -1.0026 -1.0502 -1.2622
16248TIP3    H270160   6.454   2.783   0.276  0.9225 -0.7929 -0.6202
16249TIP3   OH270161   3.636   0.354  11.952 -0.4200  0.1164 -0.0746
16249TIP3    H170162   3.669   0.277  11.904  0.4928 -0.1878  0.9891
16249TIP3    H270163   3.581   0.318  12.021 -0.7967  0.4799 -0.1837
16250TIP3   OH270164   0.096   3.131   5.089  0.9071 -0.4357  0.1986
16250TIP3    H170165   0.180   3.139   5.043 -0.0514 -0.0235 -1.5605
16250TIP3    H270166   0.049   3.212   5.069 -0.9636 -1.7550 -1.1536
16251TIP3   OH270167   1.790   6.750  11.373  0.2304 -0.2474  0.3069
16251TIP3    H170168   1.744   6.748  11.457  0.7985 -1.3482  0.6023
16251TIP3    H270169   1.859   6.816  11.386  0.3606 -0.4652  0.7263
16252TIP3   OH270170   0.840   5.145  15.872 -0.0385 -0.5121 -0.4266
16252TIP3    H170171   0.746   5.163  15.880 -0.3275 -2.3760  0.9499
16252TIP3    H270172   0.882   5.226  15.901 -1.2436 -0.3611  1.0118
16253TIP3   OH270173   5.961   2.614  12.639 -0.6617 -0.1696 -0.2838
16253TIP3    H170174   6.005   2.653  12.714 -1.2720  0.5452 -0.2809
16253TIP3    H270175   5.936   2.527  12.669  0.5783 -0.5288 -0.2364
16254TIP3   OH270176   2.319   0.577  16.917  0.0236 -0.0525 -0.4891
16254TIP3    H170177   2.304   0.628  16.997  0.1242 -0.0762 -0.4546
16254TIP3    H270178   2.231   0.551  16.889 -0.0534  0.4213 -0.6952
16255TIP3   OH270179   2.088   5.859   4.257 -0.6393  0.0687  0.2012
16255TIP3    H170180   2.093   5.944   4.213 -1.2213 -1.1496 -2.3808
16255TIP3    H270181   1.998   5.829   4.244 -0.1353 -1.4742 -0.0032
16256TIP3   OH270182   2.050   2.215  15.186  0.0984 -0.1462 -0.2307
16256TIP3    H170183   1.970   2.263  15.207  1.0469  0.9539  1.1069
16256TIP3    H270184   2.075   2.173  15.268  1.0170 -0.2723 -0.5602
16257TIP3   OH270185   3.091   5.686  14.441  0.9557  0.1575  0.3241
16257TIP3    H170186   3.126   5.638  14.516 -1.3089  3.3203  3.7910
16257TIP3    H270187   3.017   5.634  14.411  0.5781 -0.1742  1.7699
16258TIP3   OH270188   2.360   6.560  15.912 -0.2889  0.0676  0.0830
16258TIP3    H170189   2.303   6.486  15.892  0.9647 -1.4447  1.8344
16258TIP3    H270190   2.441   6.520  15.943  1.1512  2.1725 -0.7789
16259TIP3   OH270191   5.071   3.620  17.153 -0.3442  0.5314  0.0202
16259TIP3    H170192   5.161   3.637  17.123 -0.2575 -0.6282 -0.4391
16259TIP3    H270193   5.082   3.571  17.234 -0.5155 -1.0486 -0.8661
16260TIP3   OH270194   0.085   5.528  16.976 -0.1486 -0.8725  0.0024
16260TIP3    H170195   0.132   5.448  16.952 -0.7095 -1.8890  2.0591
16260TIP3    H270196   0.132   5.562  17.052 -1.2144 -0.5140  0.5353
16261TIP3   OH270197   5.688   5.871  12.100 -0.1415  0.1558 -0.3742
16261TIP3    H170198   5.696   5.930  12.025 -0.7411  1.7548  0.7732
16261TIP3    H270199   5.670   5.928  12.175 -0.7757 -1.4809  0.7993
16262TIP3   OH270200   1.961   3.131   3.114  0.3335  0.9298  0.0855
16262TIP3    H170201   1.942   3.080   3.193 -0.7401  0.3257 -0.5352
16262TIP3    H270202   2.055   3.124   3.102  0.5915  1.4330  1.5735
16263TIP3   OH270203   1.183   1.499   2.207  0.0477  0.2237  0.7955
16263TIP3    H170204   1.186   1.588   2.243  0.3720 -0.2839  2.0516
16263TIP3    H270205   1.243   1.501   2.132 -1.0932  1.4506 -0.1441
16264TIP3   OH270206   6.346   2.032  16.975 -0.1083 -0.5850 -0.1810
16264TIP3    H170207   6.282   2.090  17.016  1.3104  0.0367  1.2537
16264TIP3    H270208   6.352   2.063  16.885  0.6862  1.6075  0.5625
16265TIP3   OH270209   6.075   4.924  14.675 -0.1985  0.3722  0.1964
16265TIP3    H170210   6.026   4.968  14.605  0.2673  1.2648  0.4135
16265TIP3    H270211   6.167   4.946  14.657  0.0327 -0.4004  0.4031
16266TIP3   OH270212   0.863   2.832  17.182  0.4059  0.3749 -0.4103
16266TIP3    H170213   0.906   2.747  17.194  0.9462  0.8620  1.3914
16266TIP3    H270214   0.793   2.833  17.247 -0.3560  0.8601 -1.2169
16267TIP3   OH270215   0.969   0.637  13.864 -0.2499  0.5515  0.5974
16267TIP3    H170216   0.962   0.721  13.910 -0.3348 -0.2634  2.1606
16267TIP3    H270217   1.062   0.629  13.845  0.0149  0.3148  1.8667
16268TIP3   OH270218   0.341   5.089  15.087 -0.0669  0.1679 -0.2791
16268TIP3    H170219   0.330   5.112  15.179 -0.5258 -0.4406 -0.1740
16268TIP3    H270220   0.255   5.106  15.047 -0.5436 -1.6634 -0.1167
16269TIP3   OH270221   4.637   1.306   3.382  0.0004 -0.2603  0.2689
16269TIP3    H170222   4.647   1.278   3.473  0.2043  0.1351  0.3685
16269TIP3    H270223   4.592   1.390   3.388 -1.4196 -0.9641 -0.0680
16270TIP3   OH270224   4.021   4.723  16.754 -0.0520 -0.3608 -0.0873
16270TIP3    H170225   4.017   4.815  16.781 -0.8090 -0.0307 -1.2821
16270TIP3    H270226   4.050   4.677  16.833  0.9825  0.9696  0.3428
16271TIP3   OH270227   0.567   1.845   5.558  0.5872 -0.8115 -0.2257
16271TIP3    H170228   0.596   1.836   5.467  0.3244  2.3525 -0.7692
16271TIP3    H270229   0.471   1.844   5.552  0.5097  1.5259 -0.4022
16272TIP3   OH270230   6.074   3.356  11.348  0.1020 -0.3032 -0.7844
16272TIP3    H170231   6.162   3.338  11.379 -0.7029 -1.3114  1.0599
16272TIP3    H270232   6.047   3.275  11.303  0.4258  0.3437 -2.2136
16273TIP3   OH270233   6.504   0.970   3.178 -0.2934 -0.1364  0.0531
16273TIP3    H170234   6.411   0.991   3.186 -0.2979 -0.3599  0.6288
16273TIP3    H270235   6.528   1.001   3.090 -0.9128 -0.1017 -0.1098
16274TIP3   OH270236   2.145   3.371  13.151  0.2819 -0.2872 -0.5800
16274TIP3    H170237   2.192   3.306  13.204  1.5133  1.1994  0.2085
16274TIP3    H270238   2.065   3.388  13.201  0.8257  0.1413  0.1718
16275TIP3   OH270239   0.359   6.676  15.012 -0.0923 -0.1285 -0.0106
16275TIP3    H170240   0.381   6.651  15.102  0.5882  2.1411  0.5028
16275TIP3    H270241   0.422   6.744  14.989 -0.9609  0.1261 -1.8113
16276TIP3   OH270242   4.300   3.644  12.628 -0.1549  0.0151 -0.0824
16276TIP3    H170243   4.380   3.606  12.591  0.6512  2.1296 -0.6308
16276TIP3    H270244   4.326   3.672  12.716 -0.4723  0.1503 -0.0327
16277TIP3   OH270245   0.224   0.578  17.157 -0.2475 -0.0958  0.2758
16277TIP3    H170246   0.136   0.568  17.121 -0.0636 -0.9981  0.0393
16277TIP3    H270247   0.211   0.600  17.249 -0.7427 -1.2304  0.5010
16278TIP3   OH270248   2.714   4.248  15.820  1.0768 -0.1030  0.8973
16278TIP3    H170249   2.700   4.310  15.749  1.0583 -0.2918  0.7352
16278TIP3    H270250   2.641   4.262  15.880  1.1840  0.1744  0.9633
16279TIP3   OH270251   5.909   0.085   0.468  0.0708  0.2476 -0.2305
16279TIP3    H170252   5.971   0.069   0.540 -0.4613 -1.2320 -0.0647
16279TIP3    H270253   5.946   0.038   0.394 -0.2441  0.3404 -0.4476
16280TIP3   OH270254   4.179   2.197   6.143 -0.0263  0.1769  0.1490
16280TIP3    H170255   4.138   2.206   6.229  0.8190  1.3421  0.4496
16280TIP3    H270256   4.171   2.104   6.122 -1.8196  0.1695  0.6749
16281TIP3   OH270257   3.597   5.312  17.239 -0.9018 -0.4031  0.2716
16281TIP3    H170258   3.678   5.262  17.239 -1.4917 -1.4009  0.7291
16281TIP3    H270259   3.587   5.340  17.330 -1.6606 -1.3129  0.4862
16282TIP3   OH270260   6.502   3.541  16.148 -0.2976 -0.0243  0.6399
16282TIP3    H170261   6.448   3.588  16.084 -0.5086  0.4193  1.1272
16282TIP3    H270262   6.571   3.499  16.097 -1.6731 -1.4523 -0.1285
16283TIP3   OH270263   3.434   4.900   3.832  0.2046  0.1684  0.1572
16283TIP3    H170264   3.453   4.961   3.761  0.8875 -2.3909 -1.9720
16283TIP3    H270265   3.517   4.894   3.881  1.6960 -2.4255 -2.4101
16284TIP3   OH270266   2.041   3.622   4.132 -0.0819  0.5414  0.0838
16284TIP3    H170267   2.095   3.673   4.192  1.6534 -1.0037 -0.0854
16284TIP3    H270268   1.951   3.643   4.157  0.5744  2.0264  1.3859
16285TIP3   OH270269   1.105   4.953   5.269  0.0382 -0.2680  0.6478
16285TIP3    H170270   1.158   4.878   5.298 -0.1511 -0.4285  0.5780
16285TIP3    H270271   1.015   4.928   5.289  0.0145  0.1240  1.0218
16286TIP3   OH270272   4.253   5.460  17.160 -0.3034 -0.6193  0.1403
16286TIP3    H170273   4.212   5.541  17.128  0.2506 -0.1064  0.7004
16286TIP3    H270274   4.337   5.457  17.116  0.2226 -0.2080  1.0835
16287TIP3   OH270275   0.362   3.192  13.969 -0.3686 -0.5799  0.1254
16287TIP3    H170276   0.307   3.269  13.954  0.7914  0.2415 -0.0746
16287TIP3    H270277   0.413   3.214  14.047 -1.5838 -2.0831  1.4124
16288TIP3   OH270278   2.187   2.372  10.744  0.3940  0.0674 -0.0565
16288TIP3    H170279   2.277   2.361  10.774 -0.4534 -0.8891  2.3584
16288TIP3    H270280   2.153   2.283  10.734 -0.0016  0.3789 -2.1167
16289TIP3   OH270281   5.663   6.326   2.924 -0.1529  0.4005  0.0994
16289TIP3    H170282   5.661   6.243   2.972 -0.0230  0.1239 -0.3565
16289TIP3    H270283   5.586   6.322   2.867 -0.4644  0.8508  0.4931
16290TIP3   OH270284   3.193   0.021   5.099 -0.1025 -0.2916  0.1436
16290TIP3    H170285   3.196   0.002   5.193  1.4699  3.2935  0.9999
16290TIP3    H270286   3.100   0.026   5.079 -0.4883  0.1248  1.8683
16291TIP3   OH270287   5.674   5.953   3.218  0.6198 -0.0149 -0.2903
16291TIP3    H170288   5.751   5.991   3.176  1.0214 -1.1218 -0.5944
16291TIP3    H270289   5.613   6.026   3.229  1.7534  0.8902  0.0492
16292TIP3   OH270290   1.970   2.830   6.719  0.0342 -0.5822  0.0184
16292TIP3    H170291   1.910   2.781   6.662 -0.4789 -2.6059  2.1613
16292TIP3    H270292   1.938   2.920   6.715 -2.5245 -1.3941  0.2136
16293TIP3   OH270293   0.106   0.933  14.776  0.1977  0.4646 -0.1823
16293TIP3    H170294   0.173   0.939  14.708  0.7560 -1.0161  0.2013
16293TIP3    H270295   0.149   0.888  14.848 -0.9009  0.4656  0.4929
16294TIP3   OH270296   6.135   1.551   4.817 -0.1363 -0.3427  0.0275
16294TIP3    H170297   6.171   1.593   4.738 -0.2132  1.5638  0.9518
16294TIP3    H270298   6.051   1.515   4.788  0.2803 -0.5405 -0.9873
16295TIP3   OH270299   2.127   4.566   2.497  0.4447  0.0688  0.4636
16295TIP3    H170300   2.220   4.560   2.476  0.6067  1.6243  0.6317
16295TIP3    H270301   2.092   4.627   2.433 -0.6215 -1.0626 -0.0545
16296TIP3   OH270302   0.004   6.774  13.651 -0.0745  0.3105  0.3483
16296TIP3    H170303  -0.011   6.846  13.590 -0.8352 -0.1856 -0.0678
16296TIP3    H270304  -0.061   6.787  13.719 -1.4769 -1.0050 -0.6846
16297TIP3   OH270305   6.069   4.504   3.079 -0.0586  0.1258  0.0602
16297TIP3    H170306   6.022   4.425   3.106 -0.2784 -0.5607 -2.1362
16297TIP3    H270307   6.031   4.574   3.133 -1.2324 -0.9446  0.6720
16298TIP3   OH270308   5.968   3.660  13.126  0.0448 -0.3667  0.2369
16298TIP3    H170309   6.060   3.685  13.119  0.3775 -1.7680 -0.7042
16298TIP3    H270310   5.945   3.678  13.217  0.2543  3.1614 -0.2466
16299TIP3   OH270311   6.012   3.110  16.935  0.2945 -0.3747  0.1334
16299TIP3    H170312   6.091   3.106  16.989  0.9874 -0.1168 -0.8252
16299TIP3    H270313   6.042   3.148  16.852 -1.1275  1.1744  0.2648
16300TIP3   OH270314   4.633   3.794   4.477  0.0726 -0.1757 -0.2383
16300TIP3    H170315   4.661   3.711   4.440 -0.5379 -0.4448 -0.1068
16300TIP3    H270316   4.537   3.794   4.467  0.1059  0.7419 -0.7352
16301TIP3   OH270317   4.827   1.178  11.024 -0.6690 -0.2012  0.0359
16301TIP3    H170318   4.900   1.177  10.963 -0.7400 -2.6912 -0.1013
16301TIP3    H270319   4.751   1.153  10.971 -0.9735 -1.0475  0.8395
16302TIP3   OH270320   5.911   0.202   0.043  0.1948 -0.0510 -0.2597
16302TIP3    H170321   5.825   0.161   0.048  0.4060 -0.5875 -0.8051
16302TIP3    H270322   5.972   0.130   0.062  0.5180  0.3488  0.2369
16303TIP3   OH270323   3.723   5.834  11.009 -0.5681  0.1641 -0.3144
16303TIP3    H170324   3.679   5.844  11.093 -3.1500  0.9565 -1.6758
16303TIP3    H270325   3.684   5.756  10.970 -0.5002  0.6580 -1.4114
16304TIP3   OH270326   3.174   6.272  16.694  0.5955 -0.0844 -0.2322
16304TIP3    H170327   3.148   6.224  16.773  1.3685 -1.0891 -0.5679
16304TIP3    H270328   3.268   6.256  16.686  0.4415 -0.3966 -1.6196
16305TIP3   OH270329   4.483   1.192   4.519  0.0295 -0.2072  0.1815
16305TIP3    H170330   4.536   1.222   4.593 -1.4162  0.0773  1.1574
16305TIP3    H270331   4.534   1.214   4.442  1.7702 -0.8630  1.0878
16306TIP3   OH270332   5.117   3.880  11.341  0.1479 -0.3870 -0.7662
16306TIP3    H170333   5.115   3.787  11.315 -1.7429 -0.9543  1.0996
16306TIP3    H270334   5.133   3.927  11.260 -0.8583 -2.2694 -2.1433
16307TIP3   OH270335   2.428   3.322  16.943 -0.3653  0.0857  0.4424
16307TIP3    H170336   2.488   3.279  17.004 -0.6157 -2.4838 -0.9778
16307TIP3    H270337   2.484   3.353  16.872 -0.5373 -1.4328 -0.4009
16308TIP3   OH270338   3.209   5.436   2.929 -0.3239  0.2111  0.1721
16308TIP3    H170339   3.147   5.379   2.885 -0.6351  0.6316  0.0636
16308TIP3    H270340   3.223   5.395   3.015 -0.0306 -0.3853 -0.1501
16309TIP3   OH270341   1.872   6.466   2.365  0.2052  0.5793  0.1780
16309TIP3    H170342   1.949   6.516   2.339  0.3924 -0.1580 -0.7664
16309TIP3    H270343   1.906   6.396   2.421  0.1749  0.4807  0.0740
16310TIP3   OH270344   6.412   1.809   2.287 -0.4640 -0.1655 -0.0295
16310TIP3    H170345   6.377   1.720   2.278 -1.7281  0.2432  0.6430
16310TIP3    H270346   6.397   1.832   2.379 -0.0315  0.7028 -0.1657
16311TIP3   OH270347   4.949   0.709   0.279 -0.5852 -0.2193 -0.0125
16311TIP3    H170348   5.036   0.678   0.254 -0.4824 -0.2433  0.3709
16311TIP3    H270349   4.944   0.695   0.373 -1.4308 -1.2827 -0.1951
16312TIP3   OH270350   2.730   0.835   5.188  0.5742 -0.3094  0.3046
16312TIP3    H170351   2.712   0.872   5.102  0.7000 -3.3362 -1.1533
16312TIP3    H270352   2.815   0.791   5.178  1.8371  1.3420  2.7723
16313TIP3   OH270353   4.969   4.547  13.879  0.2407 -0.3181 -0.0801
16313TIP3    H170354   5.062   4.536  13.901  0.2196 -0.5153 -0.0875
16313TIP3    H270355   4.969   4.577  13.789  0.3126  0.0779  0.0509
16314TIP3   OH270356   0.901   5.755  14.388 -0.3302  0.1864  0.1416
16314TIP3    H170357   0.831   5.722  14.445 -1.0852  1.2982 -0.1173
16314TIP3    H270358   0.904   5.694  14.315 -1.5903  0.5651 -0.2435
16315TIP3   OH270359   2.587   2.184   3.240  0.0842  0.1700 -0.3440
16315TIP3    H170360   2.614   2.275   3.234 -0.2963  0.4375  1.4540
16315TIP3    H270361   2.492   2.186   3.228  0.1176 -0.0434 -0.6612
16316TIP3   OH270362   3.130   4.678   3.185 -0.0626 -0.8001  0.4525
16316TIP3    H170363   3.095   4.589   3.178  1.2487 -1.3747  0.8801
16316TIP3    H270364   3.148   4.689   3.278  1.6371 -0.8544  0.1625
16317TIP3   OH270365   1.273   6.585   5.295 -0.0122 -0.6144 -0.0432
16317TIP3    H170366   1.299   6.667   5.336  0.7388 -1.1162  0.5102
16317TIP3    H270367   1.178   6.592   5.285  0.0624  0.3715 -0.1346
16318TIP3   OH270368   5.701   0.039  14.855 -0.2387  0.1573  0.5700
16318TIP3    H170369   5.690   0.005  14.766 -0.5274  1.4420  0.0821
16318TIP3    H270370   5.671  -0.032  14.912  0.3538 -0.8442 -0.3368
16319TIP3   OH270371   2.310   2.010   3.908 -0.1097 -0.6567 -0.1653
16319TIP3    H170372   2.390   2.059   3.891 -0.1251 -0.0104  1.4630
16319TIP3    H270373   2.335   1.944   3.973 -0.3491 -2.1405 -1.5039
16320TIP3   OH270374   4.078   2.172   5.786  0.1549  0.1130 -0.2192
16320TIP3    H170375   4.056   2.235   5.718  1.2475  1.0631  0.2724
16320TIP3    H270376   4.170   2.189   5.805 -0.6633  1.5971  3.1807
16321TIP3   OH270377   3.957   6.053  14.062 -0.2254 -0.3658 -0.0990
16321TIP3    H170378   3.879   6.106  14.077 -1.3892 -2.0712  0.1399
16321TIP3    H270379   3.967   6.050  13.967  0.1505  0.6435 -0.1076
16322TIP3   OH270380   4.062   0.276   1.262 -0.5331 -0.1168 -0.3666
16322TIP3    H170381   4.105   0.261   1.178 -1.1089  0.0387 -0.6952
16322TIP3    H270382   3.990   0.336   1.242 -0.8092 -0.2511  0.1997
16323TIP3   OH270383   5.401   2.463  10.976  0.3561 -0.5901 -0.2035
16323TIP3    H170384   5.337   2.485  10.909 -1.6655  0.1848  1.8649
16323TIP3    H270385   5.485   2.493  10.940 -0.6982  0.1480 -2.1864
16324TIP3   OH270386   4.800   5.313   0.462 -0.2425 -0.3100  0.3371
16324TIP3    H170387   4.831   5.340   0.548  0.7567 -0.6071  0.0818
16324TIP3    H270388   4.737   5.381   0.436  0.6939  0.6717  0.5888
16325TIP3   OH270389   0.932   3.043   2.601 -0.2155  0.0271 -0.0167
16325TIP3    H170390   0.887   2.961   2.579 -0.4894  0.5563 -1.6260
16325TIP3    H270391   1.022   3.017   2.618 -0.2293 -0.6015 -0.8147
16326TIP3   OH270392   3.412   2.773  14.971  0.2331  0.3299 -0.0682
16326TIP3    H170393   3.450   2.861  14.979 -0.0074  0.3526  0.8698
16326TIP3    H270394   3.486   2.718  14.945  0.0585  1.0706 -2.3712
16327TIP3   OH270395   3.867   3.723   3.151  0.4795  0.1502 -0.2709
16327TIP3    H170396   3.783   3.678   3.149  0.1716  0.7394 -1.6449
16327TIP3    H270397   3.903   3.712   3.063  1.5714  0.4306  0.1161
16328TIP3   OH270398   4.538   5.425   2.540  0.3555 -0.0363  0.0466
16328TIP3    H170399   4.624   5.383   2.542 -0.0066 -0.7800  0.3833
16328TIP3    H270400   4.501   5.408   2.627  1.3201  3.3981  1.2636
16329TIP3   OH270401   4.612   4.735  16.716 -0.2777 -0.2004 -0.1094
16329TIP3    H170402   4.562   4.702  16.642 -1.8736  0.4810  0.6190
16329TIP3    H270403   4.690   4.679  16.720 -0.5625 -0.7667 -1.7759
16330TIP3   OH270404   4.323   3.320   6.549 -0.1452  0.4811  0.2990
16330TIP3    H170405   4.405   3.271   6.544  0.6151  1.7998 -1.9002
16330TIP3    H270406   4.329   3.368   6.632  3.2020  3.4033 -1.3243
16331TIP3   OH270407   1.060   4.193   4.067  0.1417 -0.3641  0.4428
16331TIP3    H170408   1.145   4.172   4.028 -0.3335 -1.2879 -0.1442
16331TIP3    H270409   1.007   4.115   4.052 -1.2964  0.7567 -0.5671
16332TIP3   OH270410   2.868   5.325   2.445  0.5195  0.0796 -0.1291
16332TIP3    H170411   2.957   5.310   2.412  0.6924  0.6688  0.0487
16332TIP3    H270412   2.821   5.362   2.371  1.0174  1.7807  0.3686
16333TIP3   OH270413   4.031   4.800  12.932  0.4312 -0.4914  0.0136
16333TIP3    H170414   3.987   4.886  12.934  0.4781 -0.4665 -0.0363
16333TIP3    H270415   3.982   4.747  12.996  0.6232 -0.3208  0.3052
16334TIP3   OH270416   4.289   1.986   5.249 -0.4980 -0.3001 -0.2032
16334TIP3    H170417   4.383   1.989   5.268 -0.5985  1.7621  0.2424
16334TIP3    H270418   4.278   2.048   5.177 -1.4811 -0.7866 -0.4837
16335TIP3   OH270419   2.772   1.200  11.527 -0.0059  0.7054 -0.2773
16335TIP3    H170420   2.708   1.249  11.475  0.4839  1.5461 -0.0983
16335TIP3    H270421   2.808   1.263  11.589 -1.1786 -0.4716  1.7066
16336TIP3   OH270422   6.150   2.762  17.109  0.1307 -0.2100  0.5099
16336TIP3    H170423   6.241   2.759  17.080  0.2319  0.7509  0.6848
16336TIP3    H270424   6.152   2.817  17.188 -0.6463  0.1274  0.3035
16337TIP3   OH270425   4.309   0.909  10.628  0.7884 -0.7769 -0.7685
16337TIP3    H170426   4.366   0.984  10.645 -1.6021  1.0252 -0.1949
16337TIP3    H270427   4.276   0.923  10.540 -1.1378 -0.0478  0.0185
16338TIP3   OH270428   4.652   3.561   4.295 -0.2338 -0.2068 -0.0132
16338TIP3    H170429   4.574   3.604   4.260 -0.1096 -1.0003 -1.3065
16338TIP3    H270430   4.625   3.470   4.309 -0.0420 -0.0884  1.2171
16339TIP3   OH270431   1.985   5.710   0.739 -0.1422 -0.4401  0.0243
16339TIP3    H170432   1.925   5.679   0.806 -0.0708 -1.1823 -0.2524
16339TIP3    H270433   1.943   5.789   0.704 -0.7735 -0.7474  0.0831
16340TIP3   OH270434   6.531   3.705  16.735  0.0929 -0.6618 -0.4620
16340TIP3    H170435   6.462   3.736  16.676 -0.2993  1.0498  0.8154
16340TIP3    H270436   6.607   3.759  16.712  1.4347 -3.1726 -2.5236
16341TIP3   OH270437   6.690   6.745   3.395 -0.1620  0.6931  0.0408
16341TIP3    H170438   6.765   6.754   3.454  0.5206  0.3775 -0.7576
16341TIP3    H270439   6.722   6.780   3.312 -0.8976  0.5114 -0.3211
16342TIP3   OH270440   0.220   6.786   5.904 -0.5012  0.7042  0.2540
16342TIP3    H170441   0.249   6.852   5.841 -0.6613  0.4451 -0.1015
16342TIP3    H270442   0.213   6.706   5.852 -0.0076  0.3353  0.7478
16343TIP3   OH270443   4.331   6.380  12.074 -1.1460  0.0012  0.4326
16343TIP3    H170444   4.332   6.300  12.126  1.8341  0.1382  0.7457
16343TIP3    H270445   4.357   6.449  12.135  1.3826  0.3196 -0.8450
16344TIP3   OH270446   4.171   2.410  15.250  0.4099  0.2217 -0.2189
16344TIP3    H170447   4.245   2.420  15.190  1.9907 -0.0932  1.5886
16344TIP3    H270448   4.183   2.480  15.315 -1.5664  0.9027 -0.5041
16345TIP3   OH270449   1.854   0.406   5.452 -0.0002 -0.4248 -0.6429
16345TIP3    H170450   1.922   0.425   5.516 -0.1815  0.8295 -0.7994
16345TIP3    H270451   1.902   0.377   5.374  0.2627 -1.1022 -0.2343
16346TIP3   OH270452   5.399   0.214   4.399  0.3800 -0.0146 -0.1938
16346TIP3    H170453   5.429   0.291   4.351 -1.5961  1.1663  0.3370
16346TIP3    H270454   5.307   0.204   4.374  0.2857 -1.5280  0.6239
16347TIP3   OH270455   6.137   6.547  14.577 -0.2307 -0.0831 -0.2617
16347TIP3    H170456   6.157   6.639  14.563 -1.4491  0.2116 -0.1835
16347TIP3    H270457   6.046   6.537  14.550 -0.7443 -0.8197  1.5436
16348TIP3   OH270458   4.072   0.724   1.544  0.7686  0.0778 -0.1643
16348TIP3    H170459   4.150   0.778   1.535  0.0039  0.9926 -1.6323
16348TIP3    H270460   4.024   0.736   1.462 -0.2790 -1.4932  0.1706
16349TIP3   OH270461   3.909   3.163   6.473 -0.1535 -0.2764 -0.0115
16349TIP3    H170462   3.828   3.211   6.491 -0.4140 -0.8497  0.3694
16349TIP3    H270463   3.917   3.103   6.546  0.3324 -0.6049 -0.3342
16350TIP3   OH270464   2.185   4.256  16.908 -0.2216 -0.7943  0.1712
16350TIP3    H170465   2.221   4.181  16.956  0.5982  0.0261  0.8935
16350TIP3    H270466   2.093   4.235  16.897 -0.1832 -1.5419  1.1026
16351TIP3   OH270467   6.194   4.108  15.823  0.3520  0.1353  0.2442
16351TIP3    H170468   6.280   4.126  15.785  0.4342  2.3806  1.3400
16351TIP3    H270469   6.214   4.071  15.909  0.1770 -1.1108 -0.2298
16352TIP3   OH270470   4.306   6.553  16.619  0.4545 -0.3620  0.4051
16352TIP3    H170471   4.214   6.576  16.622  0.5179 -0.1157  0.4806
16352TIP3    H270472   4.312   6.471  16.669 -0.0166 -1.3995 -1.1590
16353TIP3   OH270473   4.859   6.014   0.505  0.0313 -0.5320  0.3398
16353TIP3    H170474   4.911   6.073   0.559 -1.0257  1.5116 -0.7829
16353TIP3    H270475   4.877   5.927   0.541  0.6508  0.5588  2.8755
16354TIP3   OH270476   1.105   5.489  13.499  0.0093 -0.2973 -0.2094
16354TIP3    H170477   1.029   5.466  13.552 -0.7148  0.1062 -1.0692
16354TIP3    H270478   1.083   5.573  13.460  1.1471  0.1178  0.0051
16355TIP3   OH270479   6.489   5.694  15.553 -0.0536  0.8699 -0.5513
16355TIP3    H170480   6.479   5.712  15.647  2.4157 -0.8774  0.1437
16355TIP3    H270481   6.401   5.668  15.524 -0.2697 -1.9036  2.1033
16356TIP3   OH270482   3.501   0.910  11.236  0.3907  0.0966  0.1150
16356TIP3    H170483   3.477   0.859  11.314  0.5719  0.0955  0.1720
16356TIP3    H270484   3.527   0.845  11.171  1.6386  0.1475  0.5354
16357TIP3   OH270485   3.390   4.136   1.779 -0.2549  0.4993  0.2111
16357TIP3    H170486   3.376   4.076   1.705  1.3290 -0.0192  0.2871
16357TIP3    H270487   3.446   4.205   1.744  0.0194  0.5691  0.7766
16358TIP3   OH270488   1.892   2.467  14.291  0.0350  1.2560  0.1201
16358TIP3    H170489   1.910   2.550  14.334  0.3392  0.6594  1.1882
16358TIP3    H270490   1.810   2.436  14.330 -0.6590  1.5503 -1.0531
16359TIP3   OH270491   1.044   5.057   2.463  0.7917  0.1778  0.2869
16359TIP3    H170492   1.000   5.012   2.535 -2.2469  0.5479 -1.1726
16359TIP3    H270493   1.098   5.124   2.505 -0.8604  0.3801  2.2274
16360TIP3   OH270494   3.421   5.546   5.522  0.2860  0.3845 -0.2386
16360TIP3    H170495   3.379   5.460   5.528 -0.5467  0.6051 -2.0214
16360TIP3    H270496   3.351   5.605   5.495  0.8367  1.6525  1.0081
16361TIP3   OH270497   5.897   1.267  11.811  0.4213 -0.9140 -0.1289
16361TIP3    H170498   5.899   1.210  11.734 -1.8029 -0.8809 -0.2667
16361TIP3    H270499   5.944   1.218  11.878  0.4534 -1.9427 -0.8812
16362TIP3   OH270500   5.150   3.270  15.484  0.0749  0.3276 -0.2244
16362TIP3    H170501   5.177   3.348  15.435 -0.0407  0.8611  0.5406
16362TIP3    H270502   5.159   3.198  15.422  1.8269  0.6905 -0.4556
16363TIP3   OH270503   0.157   5.262   6.412  0.4587 -0.0972 -0.1274
16363TIP3    H170504   0.097   5.333   6.390 -0.6245 -0.8232  0.3668
16363TIP3    H270505   0.140   5.195   6.345  0.1051 -0.6413  0.4921
16364TIP3   OH270506   2.579   0.262  13.133 -0.9984 -0.4244 -0.5316
16364TIP3    H170507   2.599   0.305  13.216 -0.6635 -1.2521 -0.1719
16364TIP3    H270508   2.530   0.184  13.158 -2.4073  0.2134 -1.2341
16365TIP3   OH270509   5.923   6.056  16.328 -0.4702 -0.4892 -0.2698
16365TIP3    H170510   5.975   6.015  16.259 -2.4031  0.1196 -2.2169
16365TIP3    H270511   5.849   6.096  16.282 -1.5175  0.5394  2.1099
16366TIP3   OH270512   2.944   3.938  16.580 -0.0272 -0.4756  0.3468
16366TIP3    H170513   2.894   3.954  16.499  0.1967  0.7332  0.4386
16366TIP3    H270514   2.878   3.921  16.646 -0.2208 -1.2423 -0.0218
16367TIP3   OH270515   5.949   1.020  15.118  0.0707 -0.0671 -0.5053
16367TIP3    H170516   5.904   0.946  15.077 -0.0564  1.2072 -2.7852
16367TIP3    H270517   6.037   1.019  15.079 -0.2405  1.5450 -1.2856
16368TIP3   OH270518   4.869   3.084  15.356 -0.0773  0.1129 -0.8584
16368TIP3    H170519   4.893   3.086  15.449 -0.6326 -0.4055 -0.7007
16368TIP3    H270520   4.936   3.029  15.315  1.5161  2.1703 -1.1849
16369TIP3   OH270521   0.698   0.194  15.186 -0.1033 -0.0783  0.2860
16369TIP3    H170522   0.684   0.177  15.279 -0.3814 -0.4366  0.1800
16369TIP3    H270523   0.792   0.209  15.178 -0.4107  3.1623  1.1491
16370TIP3   OH270524   5.999   6.244  16.529 -0.0318 -0.2624  0.2435
16370TIP3    H170525   6.049   6.179  16.578 -0.5740 -0.9249 -0.0571
16370TIP3    H270526   5.990   6.207  16.441  1.9331  1.4369 -0.7531
16371TIP3   OH270527   2.868   0.082  10.991  0.7443 -0.3655  0.2913
16371TIP3    H170528   2.912   0.056  11.072  2.7317 -1.4825 -1.0382
16371TIP3    H270529   2.927   0.147  10.952 -0.3961  0.4744 -0.0985
16372TIP3   OH270530   6.304   2.885   2.696 -0.3232 -0.3844  0.1518
16372TIP3    H170531   6.272   2.819   2.634  1.6734 -1.6166  0.3456
16372TIP3    H270532   6.244   2.878   2.770 -1.1165 -0.8161 -0.5029
16373TIP3   OH270533   1.863   0.051   2.575 -0.1375 -0.4537  0.1595
16373TIP3    H170534   1.830   0.092   2.656 -1.2011  0.8035 -0.8717
16373TIP3    H270535   1.937  -0.002   2.604 -0.0821  0.4828  1.8741
16374TIP3   OH270536   1.875   4.777  13.475 -0.0502 -0.1971 -0.1409
16374TIP3    H170537   1.879   4.820  13.560 -1.7873  0.2885 -0.2653
16374TIP3    H270538   1.873   4.683  13.496 -3.0242 -0.0724  0.5779
16375TIP3   OH270539   2.574   1.156   4.315 -0.2228 -0.1633  0.0970
16375TIP3    H170540   2.630   1.165   4.237  1.8684 -0.9416  1.4112
16375TIP3    H270541   2.544   1.065   4.313 -1.6365  0.2848 -0.6691
16376TIP3   OH270542   2.751   1.056  13.826 -0.0283  0.0082  0.3211
16376TIP3    H170543   2.742   1.028  13.735  0.2505 -0.2830  0.3800
16376TIP3    H270544   2.837   1.096  13.831 -0.3541  0.7211  0.2834
16377TIP3   OH270545   2.507   6.701   5.862 -0.2199 -0.3179  0.1758
16377TIP3    H170546   2.507   6.663   5.775  1.4984  1.7515 -0.8374
16377TIP3    H270547   2.445   6.774   5.856  0.2708  0.1361  0.5016
16378TIP3   OH270548   6.380   2.434   0.680 -0.3085 -0.8155  0.0230
16378TIP3    H170549   6.390   2.351   0.633 -1.5344 -1.6957  1.2503
16378TIP3    H270550   6.426   2.419   0.762  0.2937  0.0861 -0.1435
16379TIP3   OH270551   0.722   4.086   2.899  0.1923 -0.2180  0.0886
16379TIP3    H170552   0.787   4.077   2.830  1.7767 -0.7475  1.5767
16379TIP3    H270553   0.773   4.089   2.980 -1.5070  1.5345  1.1953
16380TIP3   OH270554   3.141   1.635  16.686 -0.9207 -0.4460  0.0558
16380TIP3    H170555   3.154   1.560  16.628 -1.1419 -0.7212  0.3544
16380TIP3    H270556   3.069   1.685  16.647 -0.3165 -0.0067 -0.5192
16381TIP3   OH270557   6.018   5.513  15.340 -0.0998  0.4251 -0.1094
16381TIP3    H170558   6.052   5.476  15.259 -0.9471  0.2988 -0.4236
16381TIP3    H270559   5.923   5.505  15.332 -0.1959  0.2388  0.9772
16382TIP3   OH270560   1.493   4.288   1.068 -0.2565  0.2538  0.5766
16382TIP3    H170561   1.506   4.204   1.111 -0.2165 -0.8627 -1.4637
16382TIP3    H270562   1.532   4.277   0.981 -0.8556  2.1576  0.0018
16383TIP3   OH270563   0.318   1.748   2.743 -0.0864 -0.1250  0.0948
16383TIP3    H170564   0.297   1.697   2.822 -1.9196  0.3778 -0.0105
16383TIP3    H270565   0.362   1.826   2.776 -1.7998  0.6104  0.8027
16384TIP3   OH270566   1.639   4.292  15.615  0.4744 -0.0547  0.5272
16384TIP3    H170567   1.708   4.275  15.552 -0.1833 -1.0227  0.0489
16384TIP3    H270568   1.561   4.250  15.578 -0.2691  0.6333  1.2662
16385TIP3   OH270569   5.829   5.372   1.395 -0.0303 -0.7253 -0.0940
16385TIP3    H170570   5.912   5.380   1.348  0.2231 -2.5850 -0.0281
16385TIP3    H270571   5.771   5.435   1.353  0.3582 -1.9240 -2.5888
16386TIP3   OH270572   3.355   0.134   3.579  0.1553 -0.3673 -0.5913
16386TIP3    H170573   3.314   0.060   3.625 -0.0209 -0.0451 -0.2325
16386TIP3    H270574   3.330   0.211   3.629 -1.1531  0.1448 -1.9579
16387TIP3   OH270575   3.385   6.213   5.408 -0.4226 -0.5488  0.1049
16387TIP3    H170576   3.351   6.260   5.331  0.6652  1.4060  0.7387
16387TIP3    H270577   3.480   6.215   5.397 -0.2616 -0.4146  1.3948
16388TIP3   OH270578   5.480   3.805  11.266 -0.0570  0.2537  0.5258
16388TIP3    H170579   5.506   3.889  11.305 -0.2934  0.5163  0.1214
16388TIP3    H270580   5.421   3.829  11.195 -0.4063 -0.2751  0.6305
16389TIP3   OH270581   5.202   3.487   4.083  0.6526 -0.2954  0.3089
16389TIP3    H170582   5.107   3.499   4.094  0.7849  1.4514 -0.1195
16389TIP3    H270583   5.210   3.412   4.024 -0.5052 -0.0243 -0.2327
16390TIP3   OH270584   2.519   4.709  11.661 -0.0395  0.1667  0.0212
16390TIP3    H170585   2.468   4.678  11.586 -0.6931  0.1041  0.4814
16390TIP3    H270586   2.513   4.638  11.725 -0.0123  0.4777  0.3755
16391TIP3   OH270587   5.668   3.552   5.479 -0.0363  0.1378 -0.3067
16391TIP3    H170588   5.629   3.637   5.457  0.0835  0.9203  2.1937
16391TIP3    H270589   5.599   3.504   5.524  0.9020  0.3360  1.4346
16392TIP3   OH270590   2.853   4.905   1.310 -0.4053 -0.2100  0.3994
16392TIP3    H170591   2.844   4.994   1.343  0.5003 -0.3272  1.0337
16392TIP3    H270592   2.825   4.909   1.219  2.3800  1.4132 -0.5214
16393TIP3   OH270593   1.273   5.835   0.176  0.1567  0.2164  0.3636
16393TIP3    H170594   1.270   5.794   0.090 -1.1495 -0.2538  0.6178
16393TIP3    H270595   1.182   5.857   0.196  0.3862 -0.0403  1.7861
16394TIP3   OH270596   0.773   1.109  11.016 -0.1825  0.1830  0.5280
16394TIP3    H170597   0.702   1.057  11.055  0.9726 -0.8104  1.4022
16394TIP3    H270598   0.745   1.123  10.926 -0.4102 -2.3102  0.1322
16395TIP3   OH270599   2.376   1.196  11.572  0.3680 -0.1663 -0.2796
16395TIP3    H170600   2.450   1.138  11.557  0.7091  0.9893 -4.1159
16395TIP3    H270601   2.311   1.171  11.506  0.0589  2.9091 -1.3123
16396TIP3   OH270602   3.780   2.276  13.528 -0.5053 -0.2181 -0.4955
16396TIP3    H170603   3.799   2.197  13.478 -0.2916  0.8658 -2.1927
16396TIP3    H270604   3.807   2.255  13.617 -2.8380 -2.9628 -0.3013
16397TIP3   OH270605   0.019   3.595  11.390  0.4357 -0.0261  0.4925
16397TIP3    H170606   0.004   3.615  11.482 -0.6555  0.5070  0.2211
16397TIP3    H270607   0.113   3.609  11.377  0.5626  0.0926  1.4714
16398TIP3   OH270608   1.476   1.880   4.982 -0.6099 -0.9679  0.0180
16398TIP3    H170609   1.538   1.953   4.974 -1.2988  0.0111  2.4632
16398TIP3    H270610   1.531   1.802   4.979  0.7233 -0.1574  1.5656
16399TIP3   OH270611   2.074   4.369   1.081  0.1044  0.2980  0.9103
16399TIP3    H170612   2.144   4.363   1.145  1.8376  1.2595 -0.7762
16399TIP3    H270613   2.119   4.388   0.998 -1.6127 -3.8367 -1.3168
16400TIP3   OH270614   3.347   4.414  13.788  0.2077 -0.5294  0.2599
16400TIP3    H170615   3.270   4.407  13.844  0.4825  0.4783  0.7813
16400TIP3    H270616   3.327   4.486  13.729  1.0741  0.2898  0.9410
16401TIP3   OH270617   0.375   4.652  10.481  0.4570  0.1606 -0.0823
16401TIP3    H170618   0.307   4.719  10.487 -0.5809 -0.8146 -0.5076
16401TIP3    H270619   0.413   4.647  10.568  0.1818  0.9264  0.0814
16402TIP3   OH270620   2.823   5.419  13.778 -0.2957  0.6786  0.4733
16402TIP3    H170621   2.917   5.431  13.762 -0.7118  4.1291 -0.1293
16402TIP3    H270622   2.804   5.333  13.740  2.3800  0.4170 -0.5412
16403TIP3   OH270623   6.522   2.361   0.926 -0.5195 -0.0663  0.0969
16403TIP3    H170624   6.565   2.417   0.990 -1.0049  0.7606 -0.2779
16403TIP3    H270625   6.590   2.302   0.895  0.0375  0.4104  0.4091
16404TIP3   OH270626   3.214   6.492   0.716  0.7778  0.4089 -0.0757
16404TIP3    H170627   3.150   6.423   0.735  1.7391 -0.5386 -0.2445
16404TIP3    H270628   3.270   6.456   0.648  2.3533  0.6775  1.0228
16405TIP3   OH270629   3.399   5.258   1.503  0.5497  0.2657 -0.7828
16405TIP3    H170630   3.420   5.334   1.447  0.0536 -0.2641 -1.7059
16405TIP3    H270631   3.427   5.182   1.451  0.0641 -0.2373 -0.3138
16406TIP3   OH270632   4.242   1.521  14.737  0.6864 -0.1731 -0.4843
16406TIP3    H170633   4.189   1.549  14.662  1.3919  0.8107 -0.6254
16406TIP3    H270634   4.296   1.597  14.759  0.7622 -0.5722  0.7924
16407TIP3   OH270635   3.817   0.586  11.996  0.4746  0.7213  0.6670
16407TIP3    H170636   3.892   0.578  11.937 -0.8454  0.3746 -1.0191
16407TIP3    H270637   3.778   0.499  11.998  0.6846  0.6238  2.3851
16408TIP3   OH270638   3.337   2.151   2.781  0.2493 -0.3995  0.1996
16408TIP3    H170639   3.343   2.240   2.816 -0.0325  0.1363 -1.0538
16408TIP3    H270640   3.335   2.095   2.859  0.2430  0.6964  1.0191
16409TIP3   OH270641   6.541   2.125   2.381  0.7849  0.4028 -0.0756
16409TIP3    H170642   6.475   2.072   2.425 -0.2243  1.0772 -0.7256
16409TIP3    H270643   6.568   2.189   2.447  0.6843  0.2205  0.1449
16410TIP3   OH270644   3.532   3.819   5.332 -0.4559 -0.6672 -0.2946
16410TIP3    H170645   3.620   3.849   5.308 -1.0859  0.8394 -0.8794
16410TIP3    H270646   3.543   3.727   5.353  1.6201 -0.1077  1.4579
16411TIP3   OH270647   2.560   3.464   3.400  0.1734 -0.6448 -0.1718
16411TIP3    H170648   2.625   3.401   3.367  1.1388 -1.1712  2.5037
16411TIP3    H270649   2.478   3.414   3.400  0.5114 -1.2142 -0.0565
16412TIP3   OH270650   4.996   2.977   4.935 -0.1490 -0.3941 -0.1334
16412TIP3    H170651   5.039   3.054   4.899  0.5971 -0.0091  1.4775
16412TIP3    H270652   4.912   2.972   4.889 -0.1903  1.3507 -0.3166
16413TIP3   OH270653   6.003   0.480  16.721 -0.4345  0.7047  0.7659
16413TIP3    H170654   6.094   0.502  16.700 -0.3713 -0.6626 -0.6139
16413TIP3    H270655   5.951   0.535  16.663 -0.4219  0.4038  0.4636
16414TIP3   OH270656   5.187   6.775  11.142  0.1081  0.5963  0.0545
16414TIP3    H170657   5.098   6.790  11.112  1.0364 -1.2661 -4.5213
16414TIP3    H270658   5.183   6.694  11.194 -0.6527 -1.0445 -2.4062
16415TIP3   OH270659   1.078   3.009  12.948  0.2587 -0.5773  0.7485
16415TIP3    H170660   1.080   2.917  12.922 -0.2815 -1.8582  4.5590
16415TIP3    H270661   0.987   3.026  12.970 -0.0587  1.6023 -1.7589
16416TIP3   OH270662   5.908   1.881   3.719 -0.4551  0.2212 -0.2620
16416TIP3    H170663   5.998   1.851   3.725  0.0280  1.7388  0.7260
16416TIP3    H270664   5.865   1.846   3.797  0.4191  2.8819  1.5515
16417TIP3   OH270665   4.994   6.433   4.551  0.0531 -0.9409 -0.6300
16417TIP3    H170666   5.010   6.339   4.548 -0.8713 -1.1354 -4.1740
16417TIP3    H270667   5.079   6.473   4.528 -0.1000 -1.0559 -1.4224
16418TIP3   OH270668   6.095   6.181  13.953 -0.1988  0.8829  0.3983
16418TIP3    H170669   6.054   6.142  14.030 -0.4111 -0.8926 -0.5557
16418TIP3    H270670   6.025   6.185  13.888  0.5921 -0.2413 -0.5733
16419TIP3   OH270671   3.211   3.285  12.967  0.8513  0.0786  0.0475
16419TIP3    H170672   3.117   3.297  12.975  0.7528 -0.5784 -0.0225
16419TIP3    H270673   3.237   3.242  13.049  1.0989  0.3230  0.0975
16420TIP3   OH270674   4.803   2.742  10.552  0.0653  0.2278  0.2925
16420TIP3    H170675   4.882   2.753  10.604  0.5797  2.5359 -0.8381
16420TIP3    H270676   4.806   2.651  10.523  0.6988 -0.6044  2.6940
16421TIP3   OH270677   4.358   3.979  16.852  0.3009 -0.4665 -0.4097
16421TIP3    H170678   4.293   3.914  16.826 -0.1272  0.6950 -2.5012
16421TIP3    H270679   4.309   4.045  16.900  0.2251 -0.3878 -0.5922
16422TIP3   OH270680   6.144   6.758  11.317  0.3389  0.1828  0.2755
16422TIP3    H170681   6.129   6.785  11.227 -0.2047 -1.1444 -0.0553
16422TIP3    H270682   6.078   6.691  11.333 -0.1564  1.0106  1.9597
16423TIP3   OH270683   1.148   6.646   0.779  0.7208 -0.2730 -0.5302
16423TIP3    H170684   1.131   6.739   0.795 -1.1281 -0.9495  2.1167
16423TIP3    H270685   1.183   6.614   0.862  1.4420 -1.9483 -1.4435
16424TIP3   OH270686   4.313   5.301   5.744  0.3223  0.1138 -0.3230
16424TIP3    H170687   4.237   5.333   5.695 -2.4916 -1.9322  2.3165
16424TIP3    H270688   4.342   5.377   5.794 -2.9593  0.0973  1.9539
16425TIP3   OH270689   4.279   0.817   2.038  0.5456 -0.0758  0.5166
16425TIP3    H170690   4.336   0.746   2.009 -0.5837 -1.2604  1.1271
16425TIP3    H270691   4.338   0.892   2.048  1.8246 -1.0078  0.2230
16426TIP3   OH270692   1.923   2.758  13.698  0.3212  0.0550  0.0652
16426TIP3    H170693   1.886   2.735  13.783 -1.3906 -1.0831 -0.9243
16426TIP3    H270694   2.014   2.783  13.717  0.4555 -1.6346  2.0277
16427TIP3   OH270695   5.040   4.849  11.833 -0.2422 -0.0355  0.5413
16427TIP3    H170696   5.120   4.800  11.850  1.4084  2.5659  0.9530
16427TIP3    H270697   4.975   4.811  11.892  0.8497 -1.7945  0.6759
16428TIP3   OH270698   1.545   6.006   5.396  0.5558 -0.3579 -0.3968
16428TIP3    H170699   1.526   5.917   5.427  1.2225 -0.0769  0.8573
16428TIP3    H270700   1.570   6.054   5.475 -2.4451  1.7142 -0.5597
16429TIP3   OH270701   4.436   4.712  11.549  0.4961 -0.7937 -0.2732
16429TIP3    H170702   4.435   4.698  11.643  1.0627  1.1473  0.0614
16429TIP3    H270703   4.475   4.799  11.537 -0.9785 -0.3055 -2.1884
16430TIP3   OH270704   2.617   3.146  14.728  0.1048 -0.3209  0.3924
16430TIP3    H170705   2.670   3.158  14.650 -0.9909 -1.2270 -0.5243
16430TIP3    H270706   2.680   3.124  14.797  1.1179  0.8572 -0.1289
16431TIP3   OH270707   4.271   6.257  15.378 -0.4682  0.5683  0.7969
16431TIP3    H170708   4.258   6.171  15.337 -0.6303  0.7974  0.3603
16431TIP3    H270709   4.348   6.293  15.334  0.8179 -0.1528  2.3314
16432TIP3   OH270710   3.788   1.174   5.679 -0.3580  0.3380 -0.1995
16432TIP3    H170711   3.854   1.105   5.677 -0.9749 -0.4102  2.1516
16432TIP3    H270712   3.832   1.249   5.718 -1.1653 -0.6033  2.7295
16433TIP3   OH270713   3.304   1.598   1.823 -0.0951 -0.3035 -0.0238
16433TIP3    H170714   3.262   1.588   1.909  1.2277 -1.5309  0.5250
16433TIP3    H270715   3.348   1.682   1.828 -1.7214  0.6118 -0.2984
16434TIP3   OH270716   3.032   3.906   0.892  0.5667 -0.0281 -0.4579
16434TIP3    H170717   3.123   3.923   0.868  0.4647 -0.6107 -1.3198
16434TIP3    H270718   3.034   3.822   0.938  0.6273  0.6095  0.7442
16435TIP3   OH270719   5.747   3.972   3.696 -0.3760  0.0803 -0.3444
16435TIP3    H170720   5.666   3.991   3.743  0.0755  1.0708  0.0640
16435TIP3    H270721   5.772   3.884   3.725 -0.7240  0.2107  0.3690
16436TIP3   OH270722   5.382   5.063   4.847  0.0804 -0.2738  0.4100
16436TIP3    H170723   5.411   5.058   4.756 -1.2216 -0.4658 -0.0144
16436TIP3    H270724   5.406   5.152   4.874  2.9308 -1.0374  0.8039
16437TIP3   OH270725   0.264   2.573   3.855 -0.0356  0.2648  0.5546
16437TIP3    H170726   0.327   2.502   3.850 -0.9542 -0.5353  0.0258
16437TIP3    H270727   0.238   2.588   3.764  0.2363  1.3681  0.6486
16438TIP3   OH270728   5.271   1.976   2.718 -0.1893 -0.4301  0.7489
16438TIP3    H170729   5.206   1.909   2.740  0.1281 -0.7538  0.7148
16438TIP3    H270730   5.237   2.056   2.758 -0.9159 -0.4633  0.2137
16439TIP3   OH270731   2.505   0.493  12.980  0.7223 -0.0444 -0.1269
16439TIP3    H170732   2.492   0.411  13.027 -1.7817  0.1088 -0.4568
16439TIP3    H270733   2.574   0.538  13.030  1.7268 -2.0449  0.3986
16440TIP3   OH270734   2.565   2.965   1.776 -0.0742  0.2233  0.2219
16440TIP3    H170735   2.474   2.952   1.748 -0.3977 -0.2223  1.4023
16440TIP3    H270736   2.606   3.012   1.704 -1.3605  0.8337 -0.1505
16441TIP3   OH270737   0.648   1.874  15.514  0.3504  0.2722 -0.1303
16441TIP3    H170738   0.616   1.962  15.533 -1.0162 -0.2267 -0.0082
16441TIP3    H270739   0.626   1.859  15.422 -0.1680 -0.2376  0.0726
16442TIP3   OH270740   0.516   3.512  16.453  0.2886  0.6925 -0.2426
16442TIP3    H170741   0.440   3.508  16.511  1.0810 -2.0597  0.7870
16442TIP3    H270742   0.592   3.515  16.512  1.0597  0.0370 -1.1597
16443TIP3   OH270743   2.994   2.700  15.081 -0.4828 -0.5030 -0.3482
16443TIP3    H170744   2.999   2.666  14.991  1.1079 -1.6145  0.1221
16443TIP3    H270745   2.903   2.683  15.107 -0.5578 -1.6128 -1.2291
16444TIP3   OH270746   1.416   5.623  16.868 -0.1060  0.3473 -0.4469
16444TIP3    H170747   1.432   5.692  16.803 -0.6659 -0.0950 -1.0604
16444TIP3    H270748   1.502   5.608  16.908  0.2560  0.5863 -1.1203
16445TIP3   OH270749   0.462   1.482  14.276  0.7391  0.0523  0.1767
16445TIP3    H170750   0.461   1.511  14.184  0.5011  0.3780  0.2831
16445TIP3    H270751   0.385   1.524  14.315  0.8229 -0.1149  0.5188
16446TIP3   OH270752   1.249   3.859  15.202  0.1364  0.0102  0.3487
16446TIP3    H170753   1.263   3.945  15.162  1.0468 -0.2525  0.0737
16446TIP3    H270754   1.171   3.825  15.158  0.0751  0.4783  0.0835
16447TIP3   OH270755   6.417   0.005   3.316  0.4060  0.8342  0.2924
16447TIP3    H170756   6.370   0.071   3.367 -0.6652 -0.3568  0.9283
16447TIP3    H270757   6.491  -0.020   3.371 -0.7620 -0.4665  1.3318
16448TIP3   OH270758   1.967   0.271   2.454  0.2376 -0.2542  0.4314
16448TIP3    H170759   2.032   0.296   2.520 -0.2192 -0.1144  0.8391
16448TIP3    H270760   1.927   0.191   2.489  0.6604 -0.7199 -0.1470
16449TIP3   OH270761   1.174   4.211   0.831 -0.5375 -0.7542  0.6138
16449TIP3    H170762   1.246   4.166   0.787  1.4493  2.0591  0.7410
16449TIP3    H270763   1.212   4.246   0.911 -1.7463  1.5753  0.2596
16450TIP3   OH270764   6.612   5.392   2.210  0.2673 -0.1374 -0.1809
16450TIP3    H170765   6.642   5.424   2.295  1.4863 -1.7910  0.0509
16450TIP3    H270766   6.661   5.443   2.146 -0.8913  1.3458  0.0475
16451TIP3   OH270767   2.581   1.687   6.388 -0.4020  0.1203 -0.1798
16451TIP3    H170768   2.613   1.732   6.310 -0.6063  1.8858  0.6971
16451TIP3    H270769   2.647   1.704   6.455 -0.6413 -0.6373  0.2616
16452TIP3   OH270770   0.917   4.287   4.875 -0.0840  0.1953  0.2712
16452TIP3    H170771   0.959   4.224   4.933 -1.8439 -0.2740  1.0855
16452TIP3    H270772   0.876   4.350   4.934 -1.0258  0.3003 -0.4807
16453TIP3   OH270773   5.867   4.097  15.059  0.1902  0.0352  0.7130
16453TIP3    H170774   5.785   4.123  15.100 -0.0279  0.2710  0.1316
16453TIP3    H270775   5.853   4.006  15.032 -0.6374  0.6770 -1.2263
16454TIP3   OH270776   0.892   0.598   3.569  0.2841 -0.2908 -0.4756
16454TIP3    H170777   0.926   0.629   3.485 -0.3473  2.6676  0.2487
16454TIP3    H270778   0.828   0.664   3.594 -2.8999 -3.3626  0.2775
16455TIP3   OH270779   3.871   4.015  16.204  0.1261  0.6376 -0.5278
16455TIP3    H170780   3.964   4.039  16.199 -0.2253  2.1940 -0.0927
16455TIP3    H270781   3.825   4.091  16.168 -0.9601 -0.5226 -1.7097
16456TIP3   OH270782   2.937   4.070   5.895 -0.3223 -0.3315  0.3199
16456TIP3    H170783   2.948   3.982   5.933  1.1600 -1.0378 -1.5602
16456TIP3    H270784   2.855   4.064   5.846 -1.3668  0.0570  1.9751
16457TIP3   OH270785   2.319   3.249   6.633 -0.3251  0.3970  0.2313
16457TIP3    H170786   2.253   3.213   6.692 -0.3565 -0.4761 -0.3097
16457TIP3    H270787   2.388   3.282   6.691  0.7594 -2.5347  0.8105
16458TIP3   OH270788   4.272   6.131   2.959 -0.3775  0.0983  0.1581
16458TIP3    H170789   4.287   6.207   3.016  0.8462 -1.3518  1.8678
16458TIP3    H270790   4.349   6.129   2.902 -1.0385  0.8542 -0.8055
16459TIP3   OH270791   2.011   0.402   0.197 -0.1267  0.2732  0.2017
16459TIP3    H170792   2.097   0.434   0.171 -0.2842  1.3299  0.8925
16459TIP3    H270793   2.005   0.314   0.160  1.1790  0.2476  0.0092
16460TIP3   OH270794   1.423   1.756   3.841  0.0800 -0.2760  0.2265
16460TIP3    H170795   1.504   1.741   3.890  0.6218  0.4263 -0.4144
16460TIP3    H270796   1.438   1.712   3.757 -0.2991 -0.3421  0.1942
16461TIP3   OH270797   2.191   0.005  13.266 -0.1253 -0.0994 -0.0894
16461TIP3    H170798   2.269  -0.005  13.321 -1.1807  0.7141  1.6521
16461TIP3    H270799   2.125  -0.050  13.308 -1.1357  1.0050 -0.1696
16462TIP3   OH270800   0.101   1.741   4.756  0.4360 -0.8598 -0.6044
16462TIP3    H170801   0.020   1.692   4.770 -1.0810  1.0130 -2.2860
16462TIP3    H270802   0.092   1.818   4.812 -0.1368  0.5608 -2.5271
16463TIP3   OH270803   0.475   5.959  12.424 -0.1073 -0.5960  0.2515
16463TIP3    H170804   0.540   5.939  12.357 -1.1262 -0.7070 -0.7420
16463TIP3    H270805   0.429   5.877  12.439  0.2645 -0.6283  1.2735
16464TIP3   OH270806   2.446   4.478  15.682 -0.5300  0.2804 -0.2461
16464TIP3    H170807   2.509   4.412  15.655  0.3785  1.9675 -2.6763
16464TIP3    H270808   2.486   4.520  15.758  0.3163  0.0012 -0.5312
16465TIP3   OH270809   0.445   6.505   5.613  0.1987  0.1605  0.8994
16465TIP3    H170810   0.409   6.592   5.632 -0.1765 -0.1052  1.4196
16465TIP3    H270811   0.478   6.512   5.523 -0.3039  0.6842  0.7501
16466TIP3   OH270812   6.253   5.352  14.783 -0.2017  0.0165  0.1745
16466TIP3    H170813   6.210   5.419  14.836  0.6813 -0.1826  1.1849
16466TIP3    H270814   6.325   5.397  14.740 -1.1983  0.2912 -1.3203
16467TIP3   OH270815   0.864   3.008   4.660 -0.5089 -0.0261  0.4810
16467TIP3    H170816   0.915   3.002   4.579  0.4496  0.4028  1.0263
16467TIP3    H270817   0.782   2.963   4.641 -0.0986 -0.3556 -0.5676
16468TIP3   OH270818   1.288   4.655   1.205  0.3950  0.0981 -1.0167
16468TIP3    H170819   1.308   4.729   1.264 -1.2420  0.9254 -1.4506
16468TIP3    H270820   1.369   4.605   1.203  1.5809  1.8806 -0.6884
16469TIP3   OH270821   0.429   0.220   1.258  0.3296 -1.0346  0.0504
16469TIP3    H170822   0.378   0.272   1.196  0.1255 -1.3755 -0.0668
16469TIP3    H270823   0.514   0.209   1.215  0.1389 -1.4021 -0.2422
16470TIP3   OH270824   6.300   2.540   4.803 -0.0319 -0.1881 -0.6810
16470TIP3    H170825   6.303   2.573   4.713  0.7417  1.2222 -0.1650
16470TIP3    H270826   6.246   2.603   4.850 -1.5819 -1.6604 -0.4054
16471TIP3   OH270827   5.613   2.033  15.713  0.0566 -0.3314 -0.4368
16471TIP3    H170828   5.595   2.126  15.697 -1.4234 -0.6027 -0.4927
16471TIP3    H270829   5.681   2.033  15.780  0.7897  0.7876 -1.1343
16472TIP3   OH270830   0.821   2.855  15.511 -0.0918 -0.3764 -0.2096
16472TIP3    H170831   0.831   2.929  15.450 -0.2684 -0.0125  0.1983
16472TIP3    H270832   0.900   2.804  15.500 -0.2290 -0.4449 -0.9260
16473TIP3   OH270833   3.819   1.503  12.293 -0.7847  0.5135  0.4292
16473TIP3    H170834   3.860   1.418  12.307 -0.5027  0.9273  2.5313
16473TIP3    H270835   3.727   1.482  12.275 -0.6819 -0.2521  0.7384
16474TIP3   OH270836   4.166   2.192  12.881  0.0551 -0.0045 -0.2049
16474TIP3    H170837   4.125   2.177  12.795  0.8302  1.5834 -0.8834
16474TIP3    H270838   4.130   2.123  12.936 -1.9722  0.0881 -1.3016
16475TIP3   OH270839   1.533   3.876  13.246  0.3032  1.0181 -0.1180
16475TIP3    H170840   1.609   3.884  13.188 -0.1794  4.3035 -0.4655
16475TIP3    H270841   1.571   3.854  13.332  1.4856  0.9053 -0.6472
16476TIP3   OH270842   3.715   4.824   3.912  0.0866 -0.1384  0.2626
16476TIP3    H170843   3.731   4.776   3.831 -0.3007 -2.3640  1.4300
16476TIP3    H270844   3.778   4.897   3.909 -0.5637  0.4302 -2.4193
16477TIP3   OH270845   3.113   0.204  15.223  0.5622  0.1858 -0.3971
16477TIP3    H170846   3.196   0.226  15.265 -0.3793  0.2439  1.4965
16477TIP3    H270847   3.069   0.145  15.284 -0.3991 -0.6585 -1.8141
16478TIP3   OH270848   2.317   6.250   2.481  0.2979  0.7874  1.2306
16478TIP3    H170849   2.265   6.318   2.524  0.9341  0.3279  2.8310
16478TIP3    H270850   2.343   6.288   2.397 -2.4979  1.0600  0.4192
16479TIP3   OH270851   1.021   6.321  12.090 -0.1079 -0.6717 -0.3002
16479TIP3    H170852   1.077   6.264  12.143  0.2129  0.1014  0.2189
16479TIP3    H270853   1.082   6.383  12.049 -0.3801 -1.0813 -1.3659
16480TIP3   OH270854   2.221   1.638   0.589  0.7402  0.2980 -0.4040
16480TIP3    H170855   2.211   1.596   0.674  0.8894  0.0425 -0.5099
16480TIP3    H270856   2.316   1.643   0.575  0.7122 -0.8262 -1.1178
16481TIP3   OH270857   6.414   5.102  12.714  0.2803 -0.1013 -0.3540
16481TIP3    H170858   6.412   5.029  12.653 -1.2530 -0.7755  0.4483
16481TIP3    H270859   6.504   5.136  12.708  0.8514 -1.6613 -1.1753
16482TIP3   OH270860   3.252   5.481  13.060 -0.2206  0.0466  0.1635
16482TIP3    H170861   3.258   5.423  12.984 -1.7041 -1.5418  1.1884
16482TIP3    H270862   3.178   5.539  13.041 -0.0175  0.2624  0.0202
16483TIP3   OH270863   4.022   6.661   6.244  0.1058 -0.2589  0.2306
16483TIP3    H170864   3.997   6.573   6.272  0.8639 -0.7239 -0.5337
16483TIP3    H270865   4.033   6.655   6.150 -1.9668  1.1886 -0.1917
16484TIP3   OH270866   2.549   3.359   6.850 -0.8402 -0.3355  0.1613
16484TIP3    H170867   2.616   3.316   6.797 -1.3577 -2.3040  1.0104
16484TIP3    H270868   2.580   3.449   6.860  0.0487 -0.3159 -2.1073
16485TIP3   OH270869   4.774   3.729  13.386  0.0861  0.0363  0.3452
16485TIP3    H170870   4.724   3.768  13.314 -0.3657  0.6579  0.9837
16485TIP3    H270871   4.781   3.636  13.362 -1.5286 -0.1091  0.3127
16486TIP3   OH270872   6.586   2.186  16.617 -0.6279 -0.6145  0.0261
16486TIP3    H170873   6.513   2.229  16.573 -0.8741 -0.3692  0.6523
16486TIP3    H270874   6.659   2.194  16.556 -1.3294 -1.6383 -0.9895
16487TIP3   OH270875   3.041   0.084  14.021 -0.0493 -0.2795  0.2087
16487TIP3    H170876   3.045   0.089  13.926 -1.4602  1.2096  0.1800
16487TIP3    H270877   2.955   0.045  14.039  1.0013 -2.4616  0.8968
16488TIP3   OH270878   3.977   1.588  14.989 -0.2601 -0.3514  0.1097
16488TIP3    H170879   3.902   1.573  14.931  0.9067  0.7914 -1.8206
16488TIP3    H270880   4.030   1.653  14.943  1.8201 -0.9539  1.4902
16489TIP3   OH270881   4.032   4.931   0.912 -0.2703  0.0485 -0.0013
16489TIP3    H170882   4.101   4.906   0.973  0.4620  1.3174 -0.2814
16489TIP3    H270883   3.950   4.914   0.959  0.2388 -0.6503  0.6537
16490TIP3   OH270884   3.869   4.566  15.639 -0.2654 -0.2602 -0.3187
16490TIP3    H170885   3.927   4.492  15.622 -0.3212 -0.2097 -0.7541
16490TIP3    H270886   3.857   4.607  15.553  0.1802  0.5588 -0.0047
16491TIP3   OH270887   3.929   3.887  11.623  0.0456 -0.3687  0.0106
16491TIP3    H170888   3.865   3.901  11.693 -1.8053  2.0097 -1.9489
16491TIP3    H270889   3.880   3.840  11.556 -0.0358  2.1027 -1.8282
16492TIP3   OH270890   0.901   1.141   5.271 -0.1470  0.4168 -0.4095
16492TIP3    H170891   0.867   1.217   5.317 -1.9745  0.4784 -1.7540
16492TIP3    H270892   0.956   1.097   5.335  0.2937  2.4029  0.6608
16493TIP3   OH270893   3.463   0.904  13.075  0.3982  0.5188  0.2869
16493TIP3    H170894   3.407   0.945  13.141 -0.0320  0.0837  0.2015
16493TIP3    H270895   3.422   0.925  12.991 -0.0414 -0.3822  0.2618
16494TIP3   OH270896   2.559   0.488   3.524  0.8106 -0.2240 -0.1885
16494TIP3    H170897   2.536   0.412   3.578  0.4290  0.6200  0.8911
16494TIP3    H270898   2.647   0.468   3.492  0.0668 -1.8670 -1.3582
16495TIP3   OH270899   4.192   0.092   0.105  0.0334 -0.5788 -0.0260
16495TIP3    H170900   4.195   0.187   0.116  0.7963 -0.5891 -0.1008
16495TIP3    H270901   4.275   0.061   0.140  0.4644 -1.0556 -1.4075
16496TIP3   OH270902   2.560   6.329  15.766 -0.1968  0.5166  0.1445
16496TIP3    H170903   2.526   6.260  15.823 -0.8096  0.8459  0.1855
16496TIP3    H270904   2.638   6.361  15.811  0.9482 -1.1482 -0.6036
16497TIP3   OH270905   2.195   0.034   0.664  0.0517 -0.4899 -0.0201
16497TIP3    H170906   2.279   0.071   0.690 -0.1957 -0.2309  0.4145
16497TIP3    H270907   2.130   0.085   0.712 -0.4456  0.2732 -1.4252
16498TIP3   OH270908   2.836   2.081  17.051 -0.2298  0.1180  0.5316
16498TIP3    H170909   2.848   2.172  17.079  1.6386  0.7384 -1.9527
16498TIP3    H270910   2.900   2.033  17.104  0.2481  0.6017  0.4158
16499TIP3   OH270911   5.981   1.474   4.573 -0.5058 -0.1328  0.9498
16499TIP3    H170912   5.955   1.545   4.631  1.3239  1.4618 -0.0505
16499TIP3    H270913   6.067   1.500   4.540 -2.0517  0.0446 -3.8208
16500TIP3   OH270914   2.214   0.457  14.516  0.1585 -0.1844  0.0579
16500TIP3    H170915   2.138   0.406  14.488  0.4599  0.2907 -1.7842
16500TIP3    H270916   2.200   0.543  14.476  0.4237  0.7131  1.8168
16501TIP3   OH270917   2.069   5.094   0.979  0.0745  0.2636 -0.0859
16501TIP3    H170918   1.992   5.055   1.021 -0.1431  1.0064  0.2265
16501TIP3    H270919   2.039   5.117   0.891  0.5015 -1.2005 -0.6447
16502TIP3   OH270920   2.003   3.462   1.674  0.0541 -0.5674 -0.4550
16502TIP3    H170921   1.948   3.435   1.748 -0.2706  2.0163  0.3399
16502TIP3    H270922   2.092   3.444   1.704 -0.1280 -0.4500  0.1933
16503TIP3   OH270923   5.670   3.580  16.099 -0.3310  0.2301  0.1190
16503TIP3    H170924   5.701   3.652  16.043  1.7370  0.0738  0.9570
16503TIP3    H270925   5.644   3.623  16.180 -0.4773  0.1803  0.0976
16504TIP3   OH270926   6.759   2.312   5.236 -0.8453 -0.2325  0.3755
16504TIP3    H170927   6.748   2.309   5.331  0.1623 -0.8413  0.4940
16504TIP3    H270928   6.739   2.402   5.212  0.3696  0.3298  1.3718
16505TIP3   OH270929   4.906   6.279  14.481 -0.7918  0.2269 -0.2191
16505TIP3    H170930   4.940   6.196  14.447 -3.0429 -0.9813  0.2282
16505TIP3    H270931   4.862   6.254  14.563 -0.4239  2.1109  0.6072
16506TIP3   OH270932   6.399   1.610  14.413  0.0901 -0.7674 -0.1189
16506TIP3    H170933   6.484   1.607  14.457 -0.3436 -0.6031  0.7530
16506TIP3    H270934   6.346   1.544  14.459 -1.4096  1.6607  1.9139
16507TIP3   OH270935   3.814   5.726  16.044 -0.2503  0.7359 -0.1132
16507TIP3    H170936   3.854   5.787  15.981  0.5465  0.1308 -0.2081
16507TIP3    H270937   3.792   5.649  15.992  2.0559 -0.5042  0.6122
16508TIP3   OH270938   1.658   0.167  15.005 -0.3086 -0.0760 -0.3125
16508TIP3    H170939   1.679   0.074  14.996 -0.3473  0.0680 -2.3555
16508TIP3    H270940   1.743   0.211  14.997 -0.3948  0.1013 -0.2575
16509TIP3   OH270941   3.063   4.254  16.719  0.4312  0.4074  0.7720
16509TIP3    H170942   3.045   4.162  16.738  0.2711  0.6921  2.1278
16509TIP3    H270943   3.106   4.253  16.634 -0.5309 -0.8220  0.2692
16510TIP3   OH270944   4.423   4.117  13.348 -0.5707  0.2218 -0.2943
16510TIP3    H170945   4.443   4.148  13.436 -0.3711  0.0813 -0.2881
16510TIP3    H270946   4.504   4.074  13.319 -1.2120 -1.3804  0.1797
16511TIP3   OH270947   0.846   5.630  16.683  0.1923  0.6247  0.6931
16511TIP3    H170948   0.770   5.573  16.669  0.2984  0.4738  0.7199
16511TIP3    H270949   0.921   5.576  16.659  0.1500  1.7643 -2.3333
16512TIP3   OH270950   0.069   2.320  16.595  0.1700  0.8418  0.1693
16512TIP3    H170951   0.040   2.411  16.593  0.6829  1.0116  0.3677
16512TIP3    H270952   0.164   2.324  16.585  0.1836  0.3201  0.0251
16513TIP3   OH270953   2.174   1.340   2.497  1.0841 -0.6104 -0.0949
16513TIP3    H170954   2.134   1.423   2.523 -2.0994 -1.8098 -0.7795
16513TIP3    H270955   2.238   1.364   2.431  0.7187  1.3523  0.2109
16514TIP3   OH270956   6.666   6.120  13.996 -0.2696  0.8030  0.3061
16514TIP3    H170957   6.756   6.107  13.964  0.0547 -0.3005  1.5925
16514TIP3    H270958   6.672   6.195  14.055 -0.0525  0.3314  0.8910
16515TIP3   OH270959   1.477   3.066  14.680  0.1585  0.3701  0.0504
16515TIP3    H170960   1.492   2.973  14.702 -1.5273  0.3683  1.3981
16515TIP3    H270961   1.426   3.064  14.599  1.4741  0.2042 -0.8095
16516TIP3   OH270962   4.242   2.662   1.708  0.5292 -0.9018 -0.2819
16516TIP3    H170963   4.325   2.705   1.727 -0.4883  1.8793 -1.4793
16516TIP3    H270964   4.231   2.672   1.613  0.3887 -4.4084 -0.7697
16517TIP3   OH270965   4.792   3.285   3.637 -0.0732 -0.2058 -0.0892
16517TIP3    H170966   4.815   3.361   3.691  1.5692  0.4886 -1.6232
16517TIP3    H270967   4.776   3.323   3.550  1.5787 -1.6445 -1.0865
16518TIP3   OH270968   5.753   4.699  11.064 -0.0773 -0.5815 -0.0571
16518TIP3    H170969   5.718   4.653  10.988 -1.4798 -2.6256  1.6901
16518TIP3    H270970   5.718   4.788  11.057 -0.0661 -0.6947 -1.8434
16519TIP3   OH270971   2.604   1.617   5.994 -0.6126  0.2603 -0.3852
16519TIP3    H170972   2.533   1.563   6.029 -0.0990  0.3129  0.7955
16519TIP3    H270973   2.598   1.700   6.042  0.0430  0.3880 -0.5069
16520TIP3   OH270974   3.442   3.107  15.539 -0.0163  0.1931 -0.6278
16520TIP3    H170975   3.423   3.021  15.575 -0.1908 -0.8623 -3.0405
16520TIP3    H270976   3.527   3.097  15.497 -0.4420  0.9334 -1.7021
16521TIP3   OH270977   0.743   4.940  12.597 -0.2689  0.3429 -0.0095
16521TIP3    H170978   0.745   4.875  12.527 -0.6767  1.4298 -1.0563
16521TIP3    H270979   0.758   5.024  12.553 -0.4373  1.0436  1.2134
16522TIP3   OH270980   4.008   0.338   3.624  0.1517 -0.5128 -0.2461
16522TIP3    H170981   3.945   0.405   3.597  0.5479 -0.0508 -0.0581
16522TIP3    H270982   3.987   0.262   3.571  0.1862  0.0098 -1.0308
16523TIP3   OH270983   6.276   0.913   0.937 -0.0106  0.3826  0.1390
16523TIP3    H170984   6.186   0.886   0.919  0.0878  0.3869 -0.3866
16523TIP3    H270985   6.267   0.988   0.996 -0.4437  1.5207 -1.3054
16524TIP3   OH270986   2.982   4.679   0.728  0.4676 -0.3674 -0.1234
16524TIP3    H170987   2.947   4.605   0.677 -1.2941  0.0057  0.4511
16524TIP3    H270988   2.904   4.731   0.749  1.4397  0.6376  1.1040
16525TIP3   OH270989   0.048   0.986  15.367 -0.1288 -0.0538  0.2511
16525TIP3    H170990  -0.031   1.035  15.391 -2.0015 -2.6161 -0.2747
16525TIP3    H270991   0.055   0.996  15.272 -0.2606 -0.4783  0.1983
16526TIP3   OH270992   6.353   6.612  14.761  0.0636  0.4012 -0.4739
16526TIP3    H170993   6.314   6.700  14.767 -0.0320  0.6071 -2.8655
16526TIP3    H270994   6.282   6.557  14.729  0.9052  0.1804 -2.1116
16527TIP3   OH270995   1.251   6.314  12.362 -0.2222 -0.2287  0.3336
16527TIP3    H170996   1.222   6.223  12.363 -2.7276  0.4889  0.5314
16527TIP3    H270997   1.289   6.327  12.275 -1.3624 -1.0412 -0.3051
16528TIP3   OH270998   2.200   5.416  15.157  0.3815 -0.4237  0.2111
16528TIP3    H170999   2.235   5.330  15.182 -0.7597 -1.1597 -0.5847
16528TIP3    H271000   2.190   5.463  15.239  2.4282 -0.4667  0.5367
16529TIP3   OH271001   6.272   2.511  12.577 -0.4032  0.2611  0.0556
16529TIP3    H171002   6.179   2.493  12.560 -0.7226 -1.0313  2.6976
16529TIP3    H271003   6.272   2.556  12.662  1.3765  0.6723 -0.1343
16530TIP3   OH271004   0.965   2.458   1.537  0.0167 -0.4115 -0.5042
16530TIP3    H171005   0.873   2.485   1.528  0.0200 -0.8757 -2.2636
16530TIP3    H271006   0.964   2.365   1.515  1.0137 -0.2428 -1.3183
16531TIP3   OH271007   4.707   1.924  14.669 -0.3215 -0.1983  0.5842
16531TIP3    H171008   4.703   1.899  14.576  1.4728 -1.7183  0.8477
16531TIP3    H271009   4.702   2.020  14.668  1.5043 -0.0478 -1.2542
16532TIP3   OH271010   5.301   2.217  11.622 -0.0601 -0.4052  0.4107
16532TIP3    H171011   5.221   2.197  11.670 -0.4444 -1.2845 -0.5677
16532TIP3    H271012   5.275   2.218  11.530  0.9136 -0.0128  0.1201
16533TIP3   OH271013   0.811   1.354   5.387  0.2917 -0.4118  0.2998
16533TIP3    H171014   0.837   1.441   5.418 -0.9529  0.0245  0.1870
16533TIP3    H271015   0.736   1.371   5.329  1.9188 -1.2625 -2.2524
16534TIP3   OH271016   4.660   3.648   5.642 -0.2471 -0.2788  0.1604
16534TIP3    H171017   4.574   3.608   5.655  0.0973 -2.0094 -2.2668
16534TIP3    H271018   4.708   3.585   5.588  2.0499  1.2959  0.2422
16535TIP3   OH271019   5.902   6.368  16.803 -0.2601 -0.0444  0.3030
16535TIP3    H171020   5.939   6.291  16.760 -0.9027  1.2825 -2.8962
16535TIP3    H271021   5.974   6.432  16.805 -0.5276  0.2618  0.2513
16536TIP3   OH271022   4.242   0.063   5.632  0.4607 -0.6788  0.2543
16536TIP3    H171023   4.321   0.075   5.684  1.1001  1.0819 -1.0190
16536TIP3    H271024   4.204   0.151   5.626  0.2653 -0.8525 -1.9482
16537TIP3   OH271025   6.021   6.611  11.694  0.1688 -0.1841  0.0189
16537TIP3    H171026   5.931   6.618  11.727  0.3336  0.8067  0.3098
16537TIP3    H271027   6.011   6.607  11.599 -0.2668 -2.1422  0.1021
16538TIP3   OH271028   4.921   3.248   5.728  0.2589  0.2735  0.3810
16538TIP3    H171029   4.974   3.185   5.679 -1.4524 -2.8878  2.2306
16538TIP3    H271030   4.948   3.237   5.819 -1.5550  0.5946  1.0048
16539TIP3   OH271031   4.483   5.567  15.742 -0.0119 -0.2242  0.1629
16539TIP3    H171032   4.518   5.655  15.730  0.3804 -0.3765  0.1570
16539TIP3    H271033   4.556   5.509  15.718 -0.9220 -0.5972 -1.8825
16540TIP3   OH271034   0.481   0.526  17.065 -0.3391 -0.0768  0.9539
16540TIP3    H171035   0.390   0.553  17.051 -0.2164  0.7588  1.6707
16540TIP3    H271036   0.521   0.600  17.111  1.4329  0.7729 -1.7147
16541TIP3   OH271037   1.471   1.052  17.182  0.1411 -0.0369 -0.1560
16541TIP3    H171038   1.483   1.142  17.153  1.5194 -0.5292 -1.2779
16541TIP3    H271039   1.392   1.054  17.236  0.4566  1.9285  0.3117
16542TIP3   OH271040   4.220   0.456  14.865 -0.0453 -0.2497  0.2300
16542TIP3    H171041   4.194   0.548  14.869  1.6676  0.2954 -0.2120
16542TIP3    H271042   4.185   0.424  14.782  1.5697  0.7780 -0.8969
16543TIP3   OH271043   6.729   2.425   5.713  0.1606 -0.4772 -0.0808
16543TIP3    H171044   6.822   2.428   5.733  0.4299  0.2437 -1.2929
16543TIP3    H271045   6.688   2.476   5.783  0.5680 -1.4580  0.8964
16544TIP3   OH271046   2.738   5.455   1.468  0.0107  0.0551 -0.4272
16544TIP3    H171047   2.807   5.431   1.405  0.4736  0.7530 -0.2004
16544TIP3    H271048   2.728   5.550   1.457  1.1984  0.4734  1.6079
16545TIP3   OH271049   6.594   6.709   1.784  0.8080 -0.3780 -0.1836
16545TIP3    H171050   6.657   6.755   1.728  0.2557  1.5956  0.7194
16545TIP3    H271051   6.557   6.642   1.728  1.0931  0.7897 -1.8502
16546TIP3   OH271052   2.354   6.490   4.561  0.2884 -0.5497  0.5601
16546TIP3    H171053   2.435   6.526   4.597  1.2547 -1.5781 -0.5048
16546TIP3    H271054   2.358   6.397   4.581 -0.0975 -0.7904 -0.4379
16547TIP3   OH271055   3.286   1.313  16.103  0.3231  0.0384  0.1093
16547TIP3    H171056   3.281   1.393  16.050 -0.8966  0.2315  0.4755
16547TIP3    H271057   3.248   1.245  16.047  1.3533 -0.3045 -0.2009
16548TIP3   OH271058   0.499   5.290   2.621  0.6001 -0.4541  0.2138
16548TIP3    H171059   0.456   5.310   2.538  3.6942 -1.1517 -1.6922
16548TIP3    H271060   0.562   5.361   2.634  0.2363 -0.3931  2.0022
16549TIP3   OH271061   0.060   5.160   2.569 -0.2583  0.1135 -0.4176
16549TIP3    H171062  -0.013   5.128   2.515  0.0705 -0.4932 -0.5081
16549TIP3    H271063   0.135   5.108   2.541 -0.0315 -0.0484  0.4549
16550TIP3   OH271064   3.549   2.385  13.426  0.6081  0.5775 -0.5503
16550TIP3    H171065   3.481   2.358  13.487  0.9130 -0.9798 -0.8634
16550TIP3    H271066   3.626   2.333  13.450  1.0304  0.6764 -1.6176
16551TIP3   OH271067   1.034   0.164  11.503 -0.2155 -0.4076  0.2690
16551TIP3    H171068   1.001   0.104  11.570  0.3938  1.0078  1.9167
16551TIP3    H271069   0.993   0.248  11.523  0.6815  0.2669 -0.5904
16552TIP3   OH271070   1.216   6.641  16.273 -0.0477 -0.1428  0.6008
16552TIP3    H171071   1.171   6.585  16.337  1.1386 -1.9470 -0.0708
16552TIP3    H271072   1.240   6.719  16.323 -2.5864  0.2385  1.3313
16553TIP3   OH271073   1.625   2.304   1.599 -0.1189 -0.7048 -0.0114
16553TIP3    H171074   1.540   2.260   1.598 -0.8239  0.5560 -1.9155
16553TIP3    H271075   1.606   2.392   1.568  1.7404 -0.0450  0.6183
16554TIP3   OH271076   6.042   0.856   6.200  0.2333  0.3639 -0.9866
16554TIP3    H171077   6.115   0.807   6.240 -1.1613 -0.3661  0.7814
16554TIP3    H271078   5.977   0.789   6.180 -0.8787  1.2572 -0.4462
16555TIP3   OH271079   6.162   1.921  16.369 -0.2001 -0.2986  0.2915
16555TIP3    H171080   6.101   1.848  16.376 -0.0695 -0.4390 -0.0086
16555TIP3    H271081   6.247   1.879  16.353 -0.5294 -0.0363 -2.7276
16556TIP3   OH271082   3.539   3.045   5.028 -0.1903 -0.1417 -0.2678
16556TIP3    H171083   3.548   3.140   5.037 -1.8599  0.0341 -0.1286
16556TIP3    H271084   3.484   3.034   4.950  0.0124 -0.9935 -0.2950
16557TIP3   OH271085   6.057   5.768  12.279  0.8225  0.1498 -0.2394
16557TIP3    H171086   6.096   5.838  12.333 -1.0982  0.1194  1.3261
16557TIP3    H271087   6.131   5.731  12.231  2.1234  2.3746 -0.1175
16558TIP3   OH271088   2.589   5.331  14.663  1.1331 -0.2504  0.5298
16558TIP3    H171089   2.634   5.296  14.586 -0.5891 -0.0579 -0.6071
16558TIP3    H271090   2.528   5.262  14.689 -1.2489  1.1956 -0.8564
16559TIP3   OH271091   1.472   3.546   1.412 -0.0763 -0.0707 -0.0197
16559TIP3    H171092   1.435   3.609   1.474  0.5278 -0.4901  0.7821
16559TIP3    H271093   1.398   3.492   1.384 -0.5212  0.7235 -0.4004
16560TIP3   OH271094   1.642   1.492   1.387  0.1177  0.2299 -0.2601
16560TIP3    H171095   1.564   1.522   1.340 -0.3080  1.9948  1.4410
16560TIP3    H271096   1.608   1.439   1.458  0.6260 -0.7287 -0.7184
16561TIP3   OH271097   2.831   1.992  13.203  0.3331  0.6017 -0.1048
16561TIP3    H171098   2.856   1.932  13.273  1.0227 -1.1897 -1.8099
16561TIP3    H271099   2.740   2.014  13.223  0.1271 -0.8488  0.7090
16562TIP3   OH271100   2.678   0.838  10.914  0.1737 -0.0119  0.4092
16562TIP3    H171101   2.584   0.822  10.919  0.1969 -0.1379  0.4438
16562TIP3    H271102   2.699   0.827  10.822 -0.1476  1.7263  0.0953
16563TIP3   OH271103   4.473   6.486  15.342  0.6339  0.0179 -0.0479
16563TIP3    H171104   4.566   6.466  15.326  1.1495  2.1588  0.0509
16563TIP3    H271105   4.447   6.541  15.268 -0.1878  0.5549  0.6273
16564TIP3   OH271106   0.383   3.550   0.504  0.1978  0.0803 -0.0786
16564TIP3    H171107   0.323   3.625   0.503  1.0989  0.8303  0.2653
16564TIP3    H271108   0.341   3.485   0.448 -2.1027 -0.3739  1.9955
16565TIP3   OH271109   2.090   0.120   4.103  0.2327 -0.0404  0.2621
16565TIP3    H171110   2.085   0.087   4.193 -2.5659  0.2194  0.2818
16565TIP3    H271111   2.063   0.046   4.049 -2.7816  1.0554  0.0699
16566TIP3   OH271112   3.726   5.536  15.489  0.2111  0.0511  0.1213
16566TIP3    H171113   3.782   5.512  15.415 -1.5403  0.8683 -1.5584
16566TIP3    H271114   3.641   5.497  15.469 -0.3310  0.3421  1.6888
16567TIP3   OH271115   0.117   1.086   5.171 -0.6222  0.4740  0.2859
16567TIP3    H171116   0.116   1.138   5.090 -2.2565 -0.4641 -0.3532
16567TIP3    H271117   0.034   1.039   5.170 -1.1301  1.1481  3.0044
16568TIP3   OH271118   2.166   6.599   2.834 -0.0193  0.8127  0.0035
16568TIP3    H171119   2.233   6.595   2.902  1.0510  1.3812 -0.9698
16568TIP3    H271120   2.083   6.588   2.881  0.7512 -0.1819  1.2088
16569TIP3   OH271121   4.700   2.714  11.147 -0.6067  0.2391 -0.2606
16569TIP3    H171122   4.679   2.728  11.240  0.2722  1.4774 -0.2219
16569TIP3    H271123   4.616   2.699  11.105 -1.1363  0.8435  0.5524
16570TIP3   OH271124   5.588   4.315  14.063 -0.0473 -0.3197  0.2287
16570TIP3    H171125   5.645   4.385  14.032  0.1493 -0.4589  0.2740
16570TIP3    H271126   5.563   4.340  14.151 -0.4204 -0.0356  0.0458
16571TIP3   OH271127   2.849   1.606  14.603  0.2136  0.9021 -0.1974
16571TIP3    H171128   2.819   1.562  14.523  0.3091 -0.1075  0.3129
16571TIP3    H271129   2.939   1.575  14.615  0.6744  2.1051 -0.4346
16572TIP3   OH271130   5.991   5.868  14.490  0.2900  0.5839  0.1822
16572TIP3    H171131   6.061   5.933  14.484  0.5019  0.2467 -2.5640
16572TIP3    H271132   5.997   5.819  14.408 -1.6117 -1.1006  0.9557
16573TIP3   OH271133   5.514   2.518  14.244 -0.0289  0.3873  0.0275
16573TIP3    H171134   5.578   2.476  14.186 -1.8531 -0.1798 -1.6734
16573TIP3    H271135   5.474   2.586  14.191 -1.0280  0.5674  0.9737
16574TIP3   OH271136   0.308   4.308   3.426  0.4175  0.3401 -0.0280
16574TIP3    H171137   0.331   4.394   3.390 -0.5968  1.2001  1.2795
16574TIP3    H271138   0.216   4.296   3.401 -0.3085  0.9435  2.0905
16575TIP3   OH271139   6.106   2.785  15.321  0.0812 -0.6480  0.2928
16575TIP3    H171140   6.170   2.821  15.383  2.1594  1.0558 -2.5934
16575TIP3    H271141   6.044   2.737  15.376  1.4708  1.0897  3.6996
16576TIP3   OH271142   1.905   3.291  14.789 -0.4119  1.1289  0.6928
16576TIP3    H171143   1.988   3.313  14.747 -0.1074  0.5758  0.9797
16576TIP3    H271144   1.930   3.245  14.869 -0.9899  1.6624  1.1938
16577TIP3   OH271145   6.331   4.523   3.651  0.6959  0.2794  0.2613
16577TIP3    H171146   6.367   4.449   3.602  0.3490  1.1109 -1.3457
16577TIP3    H271147   6.393   4.594   3.634 -0.0326  0.8856  0.0646
16578TIP3   OH271148   5.937   1.941   3.137  0.2261  0.0709 -0.5990
16578TIP3    H171149   5.911   1.939   3.045 -1.7362  0.7793 -0.1278
16578TIP3    H271150   5.984   1.859   3.152 -1.0488 -0.9166 -1.8091
16579TIP3   OH271151   5.046   1.494   5.664  0.0037  0.3428 -0.4018
16579TIP3    H171152   5.062   1.587   5.680  1.6474  0.2262 -1.1497
16579TIP3    H271153   4.981   1.469   5.729 -1.1325  2.2098 -0.7490
16580TIP3   OH271154   4.602   2.327   4.492  0.1339  0.3137 -0.0308
16580TIP3    H171155   4.517   2.311   4.451 -0.2699  2.1701 -0.0019
16580TIP3    H271156   4.632   2.241   4.520 -0.9265 -0.6158 -1.6057
16581TIP3   OH271157   3.452   6.012  12.182  0.3092  0.1035  0.0158
16581TIP3    H171158   3.530   5.978  12.139  0.5535 -0.4899  0.8913
16581TIP3    H271159   3.429   5.944  12.246 -0.6531  0.4829  0.0891
16582TIP3   OH271160   3.279   3.649  15.282 -0.0575  0.6006  0.3601
16582TIP3    H171161   3.291   3.559  15.312 -0.7119  0.4086  0.0462
16582TIP3    H271162   3.359   3.668  15.232  0.7275  0.6899  1.6031
16583TIP3   OH271163   5.303   5.893  12.789 -0.0753 -0.3114 -0.7386
16583TIP3    H171164   5.220   5.858  12.821 -0.6966  1.6695 -0.0345
16583TIP3    H271165   5.279   5.947  12.713  0.7558 -0.8281 -1.3924
16584TIP3   OH271166   6.461   4.913   4.671 -0.2733 -0.3192  0.4139
16584TIP3    H171167   6.536   4.964   4.642  0.8094 -0.6669  2.3569
16584TIP3    H271168   6.389   4.940   4.615  0.9476  1.1739 -0.5021
16585TIP3   OH271169   5.990   4.779   5.128  0.2864  0.1994 -1.0733
16585TIP3    H171170   5.985   4.872   5.147  0.9369  0.3204 -1.4749
16585TIP3    H271171   5.989   4.773   5.033 -0.5818 -0.2586 -1.0446
16586TIP3   OH271172   6.265   6.285  14.635 -0.0840 -0.2500  0.6284
16586TIP3    H171173   6.250   6.377  14.616  1.1994 -0.1901 -0.1897
16586TIP3    H271174   6.300   6.284  14.724  3.2131  0.4457 -0.5293
16587TIP3   OH271175   2.544   2.595  11.541  0.3748 -0.2997  0.6064
16587TIP3    H171176   2.479   2.586  11.472 -3.0023 -0.1782  3.4703
16587TIP3    H271177   2.556   2.507  11.575  1.3595 -0.2427  0.4257
16588TIP3   OH271178   6.207   6.054  14.486  0.1548 -0.1140  0.0022
16588TIP3    H171179   6.190   6.105  14.565 -2.6848 -0.6700 -0.1320
16588TIP3    H271180   6.205   6.119  14.416  1.5518  0.2211  0.2446
16589TIP3   OH271181   3.150   0.683  11.586 -0.2109  0.2818 -0.1080
16589TIP3    H171182   3.192   0.600  11.564  0.0733  0.5784 -0.6955
16589TIP3    H271183   3.066   0.680  11.540  0.3631  0.8814 -1.2268
16590TIP3   OH271184   4.700   4.455   4.383  0.4164 -0.2960 -0.2612
16590TIP3    H171185   4.743   4.528   4.426 -0.1551 -0.0334 -0.1281
16590TIP3    H271186   4.679   4.394   4.454 -0.3743  0.0598 -0.1856
16591TIP3   OH271187   5.389   2.689   5.604 -0.7215  0.1639 -0.1655
16591TIP3    H171188   5.322   2.752   5.578  0.4220  2.2933  1.7307
16591TIP3    H271189   5.426   2.724   5.684  1.5933 -1.7541 -0.2698
16592TIP3   OH271190   3.567   2.098  13.963  0.1199 -0.1692 -0.5708
16592TIP3    H171191   3.567   2.175  13.906  0.0413 -0.7363 -1.3384
16592TIP3    H271192   3.503   2.119  14.031  0.0095  0.3940 -0.8453
16593TIP3   OH271193   6.216   4.602  15.349 -0.5704  0.3822  0.8098
16593TIP3    H171194   6.233   4.573  15.259 -0.7285 -0.7935  1.1358
16593TIP3    H271195   6.178   4.689  15.340  0.6578  0.8520 -0.1867
16594TIP3   OH271196   0.858   3.060  16.783 -0.2935 -0.0385 -0.1621
16594TIP3    H171197   0.880   2.978  16.738 -1.2602 -1.2682  1.4440
16594TIP3    H271198   0.916   3.061  16.859  0.1025  1.0819 -0.4711
16595TIP3   OH271199   4.057   5.813   3.906  0.0542  0.2563 -0.1031
16595TIP3    H171200   4.009   5.845   3.830 -0.7802 -0.9921 -0.1210
16595TIP3    H271201   4.149   5.824   3.883 -0.2020  0.2843 -1.1274
16596TIP3   OH271202   4.546   1.064  13.425  0.1790 -0.1917  0.2425
16596TIP3    H171203   4.474   1.097  13.479  0.6631 -0.0598  0.8127
16596TIP3    H271204   4.521   1.088  13.336 -0.7852 -0.7062  0.3593
16597TIP3   OH271205   6.590   4.650   5.253 -0.2628  1.0801 -0.5672
16597TIP3    H171206   6.561   4.693   5.333 -1.9774 -0.0153 -0.5599
16597TIP3    H271207   6.673   4.609   5.276 -0.1544  1.7512  0.2959
16598TIP3   OH271208   1.923   1.041   2.017 -0.0905  0.1491 -0.1273
16598TIP3    H171209   1.984   1.111   1.996 -1.8107  1.9497  0.5409
16598TIP3    H271210   1.879   1.021   1.935 -0.5707  0.8689 -0.0538
16599TIP3   OH271211   5.643   2.706  14.424  0.2170  0.4263  0.1643
16599TIP3    H171212   5.590   2.634  14.389  0.4501 -0.6116  1.8321
16599TIP3    H271213   5.681   2.748  14.347 -1.6722  0.1477 -0.9782
16600TIP3   OH271214   6.142   3.036  15.201  0.0260  0.2751  0.6465
16600TIP3    H171215   6.127   2.943  15.216 -0.4534  0.4457  1.2647
16600TIP3    H271216   6.234   3.042  15.175  0.3264 -0.2612  1.5568
16601TIP3   OH271217   3.054   6.026  14.355 -0.4884 -0.0919 -0.8587
16601TIP3    H171218   3.126   5.966  14.333 -0.2173 -0.1757  0.1686
16601TIP3    H271219   3.027   6.064  14.272  0.3512 -0.5155 -1.3356
16602TIP3   OH271220   3.768   2.421   4.394  0.3224  0.2243  0.7762
16602TIP3    H171221   3.692   2.477   4.379 -0.0420 -0.5949 -0.5276
16602TIP3    H271222   3.840   2.483   4.409  0.2833  1.1772 -2.2555
16603TIP3   OH271223   3.745   1.380  14.818 -0.1570  0.1481 -0.4708
16603TIP3    H171224   3.803   1.312  14.852  0.3505  0.3977 -0.8362
16603TIP3    H271225   3.686   1.334  14.758 -1.1659 -0.3287  0.8362
16604TIP3   OH271226   5.959   1.137   6.469  0.5026 -0.3270 -0.2369
16604TIP3    H171227   5.935   1.075   6.538 -0.7138 -0.6366 -0.9038
16604TIP3    H271228   5.980   1.218   6.516  0.6631 -0.8109  0.5504
16605TIP3   OH271229   3.958   2.691   4.293  0.0131  0.0346  0.0107
16605TIP3    H171230   3.992   2.681   4.205  0.0856 -0.1563  0.0603
16605TIP3    H271231   3.867   2.718   4.281  0.6305  2.2372 -0.1326
16606TIP3   OH271232   3.209   5.661   5.068  0.1439 -0.4582 -0.1165
16606TIP3    H171233   3.120   5.697   5.070 -0.7544 -2.4631  2.4065
16606TIP3    H271234   3.196   5.567   5.062  2.0038 -0.8769  1.4585
16607TIP3   OH271235   4.344   0.437  17.174 -0.2958 -0.0782 -0.0818
16607TIP3    H171236   4.318   0.416  17.264 -2.3841 -0.6725 -0.7515
16607TIP3    H271237   4.331   0.531  17.167 -0.8809 -0.1479  0.0224
16608TIP3   OH271238   0.104   2.933   0.936 -0.3739 -0.1664 -0.1246
16608TIP3    H171239   0.092   2.875   0.862 -1.4862  0.5405 -0.5243
16608TIP3    H271240   0.019   2.935   0.980  0.4833 -1.2640  1.7163
16609TIP3   OH271241   4.611   0.509  12.083 -0.7876 -0.0915  0.8834
16609TIP3    H171242   4.677   0.552  12.137 -0.7724 -1.3222  1.8861
16609TIP3    H271243   4.651   0.502  11.996 -0.1503  0.4066  1.1350
16610TIP3   OH271244   0.783   5.313  11.916  0.8862 -0.3956  0.2025
16610TIP3    H171245   0.871   5.349  11.906  1.2672 -0.7389  1.9561
16610TIP3    H271246   0.725   5.385  11.893  1.6350  0.2883  0.4031
16611TIP3   OH271247   0.926   0.050   2.521  0.1983  0.4391 -0.0783
16611TIP3    H171248   0.849   0.083   2.566  0.4129  0.5522  0.2121
16611TIP3    H271249   0.990   0.121   2.528 -0.3411  1.2130 -2.1440
16612TIP3   OH271250   3.062   0.198   0.413  0.4281 -0.2507 -0.5982
16612TIP3    H171251   3.093   0.239   0.494  3.2295  0.1465 -1.7376
16612TIP3    H271252   3.025   0.114   0.441 -1.4983  1.1619  1.3464
16613TIP3   OH271253   2.053   6.656   3.758  0.3885 -0.0802 -0.0649
16613TIP3    H171254   2.025   6.668   3.668 -0.8212 -3.0302 -0.1968
16613TIP3    H271255   2.139   6.698   3.762  0.9436 -0.7430 -2.8938
16614TIP3   OH271256   1.142   4.631   5.879 -0.0319  0.6321  0.1187
16614TIP3    H171257   1.145   4.727   5.876 -1.6364  0.7633  1.2555
16614TIP3    H271258   1.231   4.604   5.859  1.3808  2.4954  3.0686
16615TIP3   OH271259   4.812   6.080   1.954  0.5107  0.1796  0.3382
16615TIP3    H171260   4.901   6.054   1.932  0.0800 -2.3852  1.2953
16615TIP3    H271261   4.773   6.105   1.871  1.1144 -2.0904 -0.7087
16616TIP3   OH271262   4.362   5.675   4.623 -0.1209 -0.0032 -0.0604
16616TIP3    H171263   4.338   5.768   4.621 -0.1078  0.0594  1.5020
16616TIP3    H271264   4.451   5.673   4.590  0.8829  0.9356  2.3430
16617TIP3   OH271265   3.056   3.311   0.402  0.3759  0.1029 -0.6080
16617TIP3    H171266   3.103   3.340   0.479 -0.0119  0.0252 -0.3380
16617TIP3    H271267   3.088   3.223   0.386  0.5138  0.1482 -0.5821
16618TIP3   OH271268   4.681   4.771   4.623 -0.3731 -0.6189  0.4828
16618TIP3    H171269   4.665   4.859   4.589 -1.0169  0.9068  4.2026
16618TIP3    H271270   4.774   4.757   4.611 -0.4632  0.0303 -1.2232
16619TIP3   OH271271   0.487   1.690   4.364 -0.0349 -0.7975 -0.0966
16619TIP3    H171272   0.550   1.757   4.338 -0.3998 -0.5141 -0.2652
16619TIP3    H271273   0.441   1.728   4.439 -0.3587 -0.7869 -0.2984
16620TIP3   OH271274   0.100   5.048  11.128  0.3531  0.0497 -0.3896
16620TIP3    H171275   0.194   5.038  11.142  0.5092  1.6385 -0.0805
16620TIP3    H271276   0.091   5.067  11.035  0.3509  0.0513 -0.3890
16621TIP3   OH271277   6.124   5.589  13.403 -0.3088  0.1361 -0.4130
16621TIP3    H171278   6.146   5.499  13.380 -0.4864  0.4640 -1.9777
16621TIP3    H271279   6.175   5.607  13.482 -0.9124 -1.5917  0.4154
16622TIP3   OH271280   3.702   5.665  11.535  0.3801  0.6420  0.2486
16622TIP3    H171281   3.686   5.692  11.445  2.0993 -0.8694 -0.5790
16622TIP3    H271282   3.618   5.629  11.565  0.6968 -2.6677 -2.2361
16623TIP3   OH271283   1.386   0.805   2.702  0.1929  0.5453  0.5910
16623TIP3    H171284   1.420   0.863   2.634  0.4036 -0.4912 -0.2221
16623TIP3    H271285   1.406   0.717   2.670 -1.4185 -0.0327  1.0871
16624TIP3   OH271286   6.299   3.487  14.234 -0.2300 -0.4089  0.3437
16624TIP3    H171287   6.204   3.496  14.229 -0.0544  0.9528 -2.6674
16624TIP3    H271288   6.322   3.526  14.318 -2.2115  0.3884  0.5738
16625TIP3   OH271289   0.836   4.419  15.092 -0.0075 -0.2146  0.7080
16625TIP3    H171290   0.793   4.343  15.131 -0.7730 -0.5923 -0.7816
16625TIP3    H271291   0.777   4.445  15.021  1.9168 -0.3612 -1.0243
16626TIP3   OH271292   2.250   6.594   0.828 -0.3027 -0.0593  0.1657
16626TIP3    H171293   2.295   6.556   0.753  0.2668 -0.9041  0.9174
16626TIP3    H271294   2.219   6.679   0.797  1.0555  0.1673 -0.6342
16627TIP3   OH271295   3.733   2.975   3.004  0.0561 -0.1858 -0.2207
16627TIP3    H171296   3.782   3.039   3.056  1.2406 -1.1264 -0.1272
16627TIP3    H271297   3.773   2.979   2.917  0.4264 -1.0739 -0.1036
16628TIP3   OH271298   4.436   0.123  15.352 -0.3997 -0.0263 -0.0020
16628TIP3    H171299   4.401   0.049  15.302  1.0087 -1.8527  1.5753
16628TIP3    H271300   4.521   0.092  15.385  0.7112  2.6493 -0.0592
16629TIP3   OH271301   0.594   2.413  16.911 -0.1985  0.1909 -0.3561
16629TIP3    H171302   0.522   2.474  16.893 -1.5648 -0.8898  1.1758
16629TIP3    H271303   0.666   2.469  16.939 -1.1497  1.1906  0.1862
16630TIP3   OH271304   0.198   4.333   5.374  0.4860  0.2567 -0.5167
16630TIP3    H171305   0.171   4.348   5.464 -0.1412  0.7379 -0.7770
16630TIP3    H271306   0.287   4.369   5.368  0.8924 -0.6075  0.1385
16631TIP3   OH271307   3.597   5.457   4.121 -0.1757 -0.4048  0.1688
16631TIP3    H171308   3.666   5.488   4.179 -1.5903 -0.7750  2.1574
16631TIP3    H271309   3.520   5.447   4.178 -1.2919 -2.0785 -1.5039
16632TIP3   OH271310   0.763   1.340  13.923 -0.6447  0.1645  0.0484
16632TIP3    H171311   0.774   1.250  13.953 -1.0299  0.0837 -0.0412
16632TIP3    H271312   0.731   1.387  14.000  0.7823  0.5134  0.4561
16633TIP3   OH271313   1.501   3.101   1.154 -0.0521  0.5580 -0.1394
16633TIP3    H171314   1.596   3.102   1.163 -0.0059  2.0205 -0.6355
16633TIP3    H271315   1.486   3.097   1.060 -0.4990  0.1984 -0.0589
16634TIP3   OH271316   5.187   5.793  11.831 -0.4401  0.2198  0.2560
16634TIP3    H171317   5.247   5.861  11.863 -0.0470 -0.2167  0.4755
16634TIP3    H271318   5.245   5.721  11.806 -0.8914 -0.3273  0.7568
16635TIP3   OH271319   5.503   2.455   3.416  0.1660  0.0582  0.4923
16635TIP3    H171320   5.458   2.508   3.350 -0.8618 -0.7936  0.4718
16635TIP3    H271321   5.563   2.401   3.366  0.4678  0.4627  0.4109
16636TIP3   OH271322   5.043   5.580   1.339  0.3264 -0.0303  0.0013
16636TIP3    H171323   5.128   5.596   1.379 -0.2101 -0.6347  1.4522
16636TIP3    H271324   5.061   5.518   1.268  1.1421  0.1525  0.0454
16637TIP3   OH271325   3.799   2.135   0.019 -0.1472 -0.6005 -0.4684
16637TIP3    H171326   3.796   2.063   0.082  0.3176  0.2822  0.6008
16637TIP3    H271327   3.858   2.104  -0.049  0.9779 -0.8039  0.5641
16638TIP3   OH271328   2.013   0.610   6.213  0.3267  0.0612 -0.1503
16638TIP3    H171329   2.050   0.527   6.184  0.7361  0.3243 -0.4065
16638TIP3    H271330   2.074   0.676   6.179  0.1442  0.4483  0.2638
16639TIP3   OH271331   1.275   0.995  11.714 -0.3946 -0.6556 -0.1529
16639TIP3    H171332   1.182   1.016  11.712 -0.4252 -0.8395 -1.9205
16639TIP3    H271333   1.296   0.966  11.625  1.4310 -0.2986  0.1122
16640TIP3   OH271334   1.645   1.731   5.690  0.3336 -0.8576 -0.3259
16640TIP3    H171335   1.648   1.785   5.611 -0.4144 -0.7988 -0.3171
16640TIP3    H271336   1.736   1.728   5.720  0.3324  0.8872 -0.0057
16641TIP3   OH271337   5.408   3.622  15.862  0.7600  0.4161  0.1520
16641TIP3    H171338   5.504   3.624  15.856  0.8395  0.3960  1.1182
16641TIP3    H271339   5.391   3.576  15.945 -0.1170 -0.6333 -0.5798
16642TIP3   OH271340   5.360   3.956   0.300  0.5917  0.1262  0.6333
16642TIP3    H171341   5.418   3.934   0.372  3.0365  1.2344 -0.8754
16642TIP3    H271342   5.417   3.958   0.223 -1.5681  0.7467 -1.0466
16643TIP3   OH271343   6.018   5.301   3.787  0.4447 -0.0630  0.1900
16643TIP3    H171344   6.066   5.381   3.768 -1.3699  0.8438 -0.7914
16643TIP3    H271345   6.067   5.233   3.739  0.2464  0.9805 -1.6000
16644TIP3   OH271346   0.274   1.671   0.440 -0.0034 -0.1168 -0.2576
16644TIP3    H171347   0.233   1.658   0.355 -1.4267  0.1376  0.3645
16644TIP3    H271348   0.221   1.620   0.501  1.0507 -0.3782  0.4745
16645TIP3   OH271349   5.121   4.056  16.247  0.3330  0.9297 -0.3040
16645TIP3    H171350   5.026   4.058  16.257  0.1815  0.5564 -1.4739
16645TIP3    H271351   5.144   3.964  16.252  0.2223  0.6778 -3.0470
16646TIP3   OH271352   2.269   0.292   4.262 -0.0840 -0.2052  0.2212
16646TIP3    H171353   2.251   0.202   4.236  0.3344 -0.4064  0.6241
16646TIP3    H271354   2.267   0.290   4.358 -2.4214  0.6786  0.2562
16647TIP3   OH271355   4.039   2.002   0.392  0.4182 -0.2531 -0.1688
16647TIP3    H171356   3.997   2.041   0.469  0.7066 -0.5073  0.1206
16647TIP3    H271357   3.985   2.031   0.318 -1.5753 -2.2431  0.3530
16648TIP3   OH271358   6.550   1.841   4.345  0.4196 -0.0236 -0.5750
16648TIP3    H171359   6.644   1.829   4.329  0.8092  0.0219  1.4489
16648TIP3    H271360   6.539   1.935   4.357  0.1605 -0.0576 -0.5309
16649TIP3   OH271361   4.096   0.797  11.743 -0.0361  0.1041 -0.6615
16649TIP3    H171362   4.125   0.714  11.782  1.4864  1.3300  0.9595
16649TIP3    H271363   4.164   0.860  11.766 -2.1066  2.2930 -0.0496
16650TIP3   OH271364   2.819   3.454   5.126 -0.2408 -0.4623 -1.0686
16650TIP3    H171365   2.732   3.494   5.130 -0.4492 -0.9735 -0.4163
16650TIP3    H271366   2.876   3.526   5.098 -0.7464  0.0746 -0.7623
16651TIP3   OH271367   3.225   6.649  16.125  0.7038 -0.3892 -0.2385
16651TIP3    H171368   3.229   6.738  16.089  0.8124 -1.0564 -1.9458
16651TIP3    H271369   3.314   6.630  16.153  0.6663  0.0570  0.1965
16652TIP3   OH271370   5.550   3.899   4.628 -0.4363  0.2054  0.0458
16652TIP3    H171371   5.642   3.875   4.617 -0.5362  0.2331 -0.9077
16652TIP3    H271372   5.526   3.863   4.713 -0.0435 -1.3856 -0.4901
16653TIP3   OH271373   5.826   0.333   6.434 -0.0176  0.0932 -0.3821
16653TIP3    H171374   5.843   0.349   6.527  1.0213  1.2240 -0.7267
16653TIP3    H271375   5.794   0.417   6.401  1.5262  0.3241 -1.4242
16654TIP3   OH271376   6.263   2.355  14.121 -0.1310  0.1902  0.8592
16654TIP3    H171377   6.183   2.306  14.100  0.2946  0.0345 -0.4744
16654TIP3    H271378   6.251   2.381  14.213 -1.5718 -0.0904  0.7837
16655TIP3   OH271379   6.280   0.393  11.560  0.6512  0.0753  0.0093
16655TIP3    H171380   6.319   0.427  11.479 -0.5102 -0.0399 -0.6325
16655TIP3    H271381   6.212   0.332  11.530  0.1727  0.0576  1.0671
16656TIP3   OH271382   2.957   6.066  17.203 -0.0566 -0.4068  0.0574
16656TIP3    H171383   2.939   6.160  17.211 -0.0636 -0.3884 -0.1730
16656TIP3    H271384   2.916   6.041  17.120 -0.9631 -0.8264  0.6173
16657TIP3   OH271385   5.639   5.336  15.858  0.2905 -0.0387  0.0412
16657TIP3    H171386   5.657   5.254  15.904  0.3791 -0.3242 -0.5020
16657TIP3    H271387   5.615   5.397  15.928  1.0576 -0.2863  0.5344
16658TIP3   OH271388   6.593   1.122  15.437  0.1784 -0.1244  0.2219
16658TIP3    H171389   6.529   1.054  15.414 -1.0259  0.6079  1.2851
16658TIP3    H271390   6.547   1.204  15.420  0.7871  0.4206  1.1256
16659TIP3   OH271391   2.886   5.313   5.406 -0.1571 -0.2352 -0.2723
16659TIP3    H171392   2.905   5.220   5.415  1.3640 -0.0105 -0.9336
16659TIP3    H271393   2.882   5.328   5.312 -2.5270  0.0023 -0.2090
16660TIP3   OH271394   3.352   1.830   0.672  0.5077 -0.0509  0.3691
16660TIP3    H171395   3.421   1.791   0.726  0.1619 -0.7734  0.2945
16660TIP3    H271396   3.333   1.914   0.715  1.1115 -0.0476  0.6435
16661TIP3   OH271397   0.545   6.173  15.401 -0.5925 -0.1665 -0.2233
16661TIP3    H171398   0.624   6.196  15.352  0.6063 -1.2976  1.0853
16661TIP3    H271399   0.548   6.229  15.479 -1.3462  0.1118 -0.3837
16662TIP3   OH271400   4.263   4.931  11.780 -0.1505  0.2048 -0.4732
16662TIP3    H171401   4.333   4.867  11.790 -1.6319 -1.3441  0.5294
16662TIP3    H271402   4.302   5.001  11.728  1.8641 -0.9924 -0.6818
16663TIP3   OH271403   5.371   5.786   0.536  0.6481  0.0057  0.2005
16663TIP3    H171404   5.319   5.865   0.547  0.6145  0.0767 -0.4593
16663TIP3    H271405   5.344   5.729   0.609 -0.4532 -0.0217 -0.2192
16664TIP3   OH271406   1.367   1.652  12.667 -0.1470 -0.1742 -0.4376
16664TIP3    H171407   1.274   1.664  12.648 -0.5665  1.7481  2.2583
16664TIP3    H271408   1.372   1.568  12.712 -1.1724  1.1108  2.2427
16665TIP3   OH271409   2.983   3.252   0.166 -0.6923 -0.1303 -0.1479
16665TIP3    H171410   3.004   3.301   0.245  1.3204  1.5501 -1.6327
16665TIP3    H271411   2.892   3.225   0.179 -0.6754  0.7460  2.3758
16666TIP3   OH271412   4.224   2.248   4.933 -0.0155  0.3102  0.1657
16666TIP3    H171413   4.250   2.156   4.926 -0.1629  0.3636 -1.2737
16666TIP3    H271414   4.299   2.290   4.976 -0.6680 -0.7525  2.5260
16667TIP3   OH271415   0.192   1.880  12.397  1.0121 -0.4268 -0.2330
16667TIP3    H171416   0.261   1.828  12.438  1.0084  0.2094  0.5901
16667TIP3    H271417   0.172   1.949  12.460  0.6988  0.3157 -1.1223
16668TIP3   OH271418   4.685   1.968   3.883  0.0098 -0.2504 -0.1289
16668TIP3    H171419   4.705   1.919   3.803 -1.4895 -0.0235 -0.6763
16668TIP3    H271420   4.748   2.040   3.884  0.4244 -0.6009 -0.7953
16669TIP3   OH271421   0.318   2.478  16.815 -0.1043 -0.1959 -0.2014
16669TIP3    H171422   0.324   2.557  16.761 -0.2514  0.1710  0.3067
16669TIP3    H271423   0.224   2.459  16.818 -0.0490 -0.5347 -0.5193
16670TIP3   OH271424   5.277   6.424  11.845 -0.3139  0.3371 -0.3310
16670TIP3    H171425   5.189   6.461  11.833 -0.3743  0.2631 -0.1250
16670TIP3    H271426   5.331   6.498  11.872 -0.8808 -0.0777  2.1776
16671TIP3   OH271427   0.827   6.195   1.189  0.3322 -0.3935  0.3857
16671TIP3    H171428   0.904   6.252   1.193  0.3658 -0.4089 -0.0079
16671TIP3    H271429   0.807   6.175   1.280 -1.1330  2.2074  0.7352
16672TIP3   OH271430   1.567   0.741   5.962  0.0177  0.5805  0.2527
16672TIP3    H171431   1.483   0.694   5.961  0.8869 -1.0579 -0.8661
16672TIP3    H271432   1.632   0.672   5.973  1.2751  1.7409  0.2440
16673TIP3   OH271433   0.266   6.650  14.221 -0.4144  0.3993  0.2073
16673TIP3    H171434   0.199   6.591  14.256 -0.5432 -0.0809 -0.8328
16673TIP3    H271435   0.232   6.680  14.137 -0.2394  1.7836  0.5969
16674TIP3   OH271436   6.476   2.679  11.636  0.1567 -0.0943  0.4157
16674TIP3    H171437   6.556   2.718  11.600 -0.4739  0.8052 -0.0325
16674TIP3    H271438   6.495   2.668  11.729  0.3651  1.2772  0.5564
16675TIP3   OH271439   0.316   5.422  13.997 -0.3925 -0.1492  0.0963
16675TIP3    H171440   0.346   5.402  13.908 -3.4075  0.1577 -1.0861
16675TIP3    H271441   0.281   5.511  13.991  0.4079  0.3414  1.9400
16676TIP3   OH271442   0.811   5.304   2.571 -0.7260 -0.4843  0.0830
16676TIP3    H171443   0.897   5.297   2.529 -0.0717  0.1142  1.2753
16676TIP3    H271444   0.823   5.262   2.656 -1.5894 -0.3084  0.2927
16677TIP3   OH271445   2.346   6.130  16.549  0.2599  0.0433  0.2898
16677TIP3    H171446   2.306   6.058  16.599 -1.6859 -1.9459 -3.6771
16677TIP3    H271447   2.278   6.198  16.547  0.2156 -0.0056  0.1224
16678TIP3   OH271448   3.699   2.312  16.748 -0.0096 -0.5373  0.1576
16678TIP3    H171449   3.724   2.289  16.659  0.3467 -0.9854  0.3679
16678TIP3    H271450   3.734   2.241  16.802  0.1330 -0.0609  0.6989
16679TIP3   OH271451   5.666   2.423  15.489  0.1068  0.1582  0.4097
16679TIP3    H171452   5.600   2.363  15.456 -0.0606 -0.0625  1.1282
16679TIP3    H271453   5.745   2.402  15.440 -0.3462  0.4003 -0.4287
16680TIP3   OH271454   2.364   1.484  11.548 -0.1964 -0.4753 -0.0398
16680TIP3    H171455   2.388   1.391  11.552  0.7652 -0.2172  0.6664
16680TIP3    H271456   2.448   1.530  11.553 -0.6113  0.4261 -1.0973
16681TIP3   OH271457   1.417   5.810  11.204  0.1174  0.1653  0.1417
16681TIP3    H171458   1.341   5.796  11.260 -1.5069  2.2945 -1.3722
16681TIP3    H271459   1.452   5.723  11.189 -3.3838 -1.2120 -0.8990
16682TIP3   OH271460   5.891   4.805   1.245  0.6165  0.1265 -0.0292
16682TIP3    H171461   5.850   4.826   1.162 -1.3249 -1.6393  0.3948
16682TIP3    H271462   5.938   4.885   1.270 -0.7826  1.5135 -1.6177
16683TIP3   OH271463   0.684   6.186   4.474  0.3805 -0.5956  0.5641
16683TIP3    H171464   0.594   6.196   4.506 -0.6395 -3.1607 -1.1063
16683TIP3    H271465   0.728   6.267   4.498 -1.6142 -0.3060  3.7955
16684TIP3   OH271466   2.980   1.306  11.713  0.2646  0.4029  0.2225
16684TIP3    H171467   3.005   1.247  11.784  0.6539 -1.3706 -1.2892
16684TIP3    H271468   2.952   1.386  11.756  2.5735  0.2093  2.2758
16685TIP3   OH271469   2.543   0.302  10.374 -0.0490  0.0413 -0.5586
16685TIP3    H171470   2.469   0.362  10.386 -0.5552 -0.5436 -0.6969
16685TIP3    H271471   2.559   0.266  10.461 -0.7910 -0.8160 -0.7615
16686TIP3   OH271472   1.658   0.556  15.739 -0.0714  0.5308 -0.1648
16686TIP3    H171473   1.712   0.539  15.662 -1.0391  0.3176 -0.8116
16686TIP3    H271474   1.583   0.605  15.706 -0.6406  0.1985  0.5941
16687TIP3   OH271475   3.566   0.771  16.214  0.4213 -0.1037  0.5550
16687TIP3    H171476   3.557   0.848  16.158 -0.7492  0.0555  0.9364
16687TIP3    H271477   3.612   0.707  16.159 -1.3147 -0.2037 -0.8674
16688TIP3   OH271478   5.505   5.899  11.023 -0.0227  0.3866 -0.6843
16688TIP3    H171479   5.582   5.956  11.013 -0.2776  0.9863  0.6736
16688TIP3    H271480   5.430   5.957  11.011 -0.2766 -0.0063 -1.0167
16689TIP3   OH271481   5.031   3.825  12.406 -0.3535  0.4121 -0.6220
16689TIP3    H171482   5.120   3.857  12.393  0.4580 -1.4131  0.1542
16689TIP3    H271483   4.982   3.902  12.435  1.0994  1.3145 -0.4759
16690TIP3   OH271484   5.060   0.908   2.487  0.6044  0.2918 -0.5578
16690TIP3    H171485   5.124   0.939   2.423  0.9164  3.0487  0.9364
16690TIP3    H271486   4.975   0.921   2.444  0.8724 -0.7080 -1.4600
16691TIP3   OH271487   3.238   2.744  13.802  0.1578 -0.0709  0.0548
16691TIP3    H171488   3.331   2.749  13.823  0.4432 -1.8482 -0.6571
16691TIP3    H271489   3.216   2.833  13.774  1.2434  0.7650  1.6547
16692TIP3   OH271490   5.939   6.063   0.612  0.0807  0.2867 -0.1356
16692TIP3    H171491   5.896   6.078   0.528 -2.5368  0.3910  1.1206
16692TIP3    H271492   5.867   6.048   0.674  1.9646 -2.3670  1.6459
16693TIP3   OH271493   4.747   5.664   1.968  0.0089  0.0971  0.4702
16693TIP3    H171494   4.720   5.646   1.878  1.0579  0.8864 -0.0264
16693TIP3    H271495   4.673   5.712   2.006 -0.7842 -0.9629  0.3080
16694TIP3   OH271496   4.497   6.151  13.363  0.1270 -0.0236 -0.3055
16694TIP3    H171497   4.529   6.131  13.275 -0.5736  1.7270 -1.0023
16694TIP3    H271498   4.409   6.186  13.349  0.3281  1.0726  0.9958
16695TIP3   OH271499   3.483   5.296   3.110 -0.1079  0.4302 -0.4067
16695TIP3    H171500   3.519   5.374   3.151  0.8701 -0.1391 -0.1784
16695TIP3    H271501   3.390   5.297   3.135  0.4201  0.1861  1.6417
16696TIP3   OH271502   1.003   0.569   2.128  0.2461  0.6762 -0.6847
16696TIP3    H171503   1.013   0.494   2.069 -1.5895  1.2290 -1.7769
16696TIP3    H271504   1.002   0.645   2.069  1.4972  1.5387  0.3508
16697TIP3   OH271505   4.201   4.722   1.265 -0.1751  0.0615 -0.6883
16697TIP3    H171506   4.199   4.632   1.295 -3.2329  0.4132  0.5403
16697TIP3    H271507   4.130   4.728   1.201  0.0165  1.5788 -0.8089
16698TIP3   OH271508   0.248   3.990   0.858  0.1187 -0.5739  0.0420
16698TIP3    H171509   0.321   4.000   0.920  0.1015  1.6403 -0.2059
16698TIP3    H271510   0.171   3.981   0.913  0.3650 -1.0146  0.3194
16699TIP3   OH271511   5.359   2.560  14.547  0.2745  0.1003 -0.2076
16699TIP3    H171512   5.322   2.506  14.617  1.5012  0.3696  0.6870
16699TIP3    H271513   5.422   2.503  14.503  0.8319  0.4637  0.0962
16700TIP3   OH271514   2.622   5.204   4.648  0.2635 -0.6343  0.3908
16700TIP3    H171515   2.679   5.262   4.598 -1.0503  0.4175  0.0621
16700TIP3    H271516   2.639   5.117   4.612  1.3502 -0.2898  0.0270
16701TIP3   OH271517   2.614   1.032   5.648 -0.3269  0.0753  0.2419
16701TIP3    H171518   2.645   1.009   5.560  0.8920 -0.2431  0.7224
16701TIP3    H271519   2.567   1.114   5.637 -0.4392 -0.1082 -0.7493
16702TIP3   OH271520   0.812   1.137   2.678 -0.5165 -0.2157  0.3483
16702TIP3    H171521   0.900   1.143   2.643 -1.3628  0.1445 -1.8631
16702TIP3    H271522   0.824   1.119   2.772  1.8619 -1.0895 -0.0716
16703TIP3   OH271523   6.577   1.429   2.339  0.4154  0.6054  0.8050
16703TIP3    H171524   6.581   1.507   2.395  1.1507  1.9360 -0.9905
16703TIP3    H271525   6.658   1.432   2.288 -0.6980  0.0722 -1.1015
16704TIP3   OH271526   6.755   4.245  15.175  0.2684 -0.3852 -0.1639
16704TIP3    H171527   6.730   4.156  15.151 -1.4133 -0.2970  1.0393
16704TIP3    H271528   6.840   4.236  15.217  0.9822 -1.1464 -1.6848
16705TIP3   OH271529   6.735   4.313  13.038  0.1550 -0.1943 -0.1086
16705TIP3    H171530   6.769   4.303  13.127 -0.3431  0.9792  0.2287
16705TIP3    H271531   6.667   4.380  13.045 -0.1131 -0.3137 -1.3185
16706TIP3   OH271532   0.134   1.777  11.069  0.1209 -0.6183 -0.7079
16706TIP3    H171533   0.043   1.807  11.063  0.7755  1.4466 -1.0757
16706TIP3    H271534   0.127   1.683  11.086 -2.0746 -0.6378 -1.3758
16707TIP3   OH271535   2.091   0.055   5.425  0.1570 -0.1459  0.2323
16707TIP3    H171536   2.084   0.090   5.514 -0.3391 -0.7264  0.4239
16707TIP3    H271537   2.119   0.130   5.372 -1.2868  0.6525  0.5663
16708TIP3   OH271538   3.540   0.347  16.318  0.4948  0.3754 -0.1436
16708TIP3    H171539   3.532   0.282  16.249 -1.0363 -1.4481  1.6505
16708TIP3    H271540   3.585   0.421  16.276  1.0799 -1.2715 -2.6079
16709TIP3   OH271541   6.222   2.076  12.269  0.1789 -0.0254  0.4152
16709TIP3    H171542   6.255   2.012  12.206  0.1203 -1.0458  1.3928
16709TIP3    H271543   6.212   2.156  12.218  2.2114 -0.2202 -0.3900
16710TIP3   OH271544   4.018   4.957  14.348  0.5326 -0.2047  0.4243
16710TIP3    H171545   3.946   5.010  14.384  1.1670  0.0404  1.3775
16710TIP3    H271546   3.992   4.866  14.366  0.4050 -0.1218  0.6588
16711TIP3   OH271547   5.535   4.947   3.355 -0.7882  0.9607  0.5571
16711TIP3    H171548   5.549   5.008   3.283  1.0865 -0.0074  0.0258
16711TIP3    H271549   5.490   4.999   3.422 -0.2426  2.6217 -0.2976
16712TIP3   OH271550   6.754   3.838   5.974 -0.0324  0.5529  0.3743
16712TIP3    H171551   6.754   3.742   5.976 -0.6854  0.5300 -0.3096
16712TIP3    H271552   6.831   3.863   6.025  0.3616 -0.3455  0.2426
16713TIP3   OH271553   1.270   3.102  13.621 -0.1043  0.0566  0.3224
16713TIP3    H171554   1.284   3.020  13.574  3.4362  0.7013 -0.0449
16713TIP3    H271555   1.348   3.112  13.675 -1.7982  1.7893  2.6492
16714TIP3   OH271556   0.424   3.531  12.457  0.6240  0.6488 -0.5637
16714TIP3    H171557   0.423   3.582  12.538  0.5271  1.0437 -0.8098
16714TIP3    H271558   0.408   3.596  12.388 -1.0631  0.0792 -0.7695
16715TIP3   OH271559   3.023   3.751  13.084  0.3247 -0.3390  0.2049
16715TIP3    H171560   2.971   3.809  13.029  0.7158 -0.7981 -0.6816
16715TIP3    H271561   3.018   3.789  13.172 -0.7959  0.0828 -0.0284
16716TIP3   OH271562   3.357   6.579  11.130  0.8449  0.2883  0.1419
16716TIP3    H171563   3.386   6.586  11.039  1.9247  0.8192  0.5086
16716TIP3    H271564   3.304   6.657  11.144  1.9062  0.9976  0.3734
16717TIP3   OH271565   0.420   0.343   5.068  0.4668 -0.3156  0.6698
16717TIP3    H171566   0.476   0.416   5.043 -0.8887  0.5141 -0.0854
16717TIP3    H271567   0.422   0.284   4.993 -3.1570  1.9061 -1.4499
16718TIP3   OH271568   0.078   4.465   0.742 -0.3471  0.5928 -0.4601
16718TIP3    H171569   0.139   4.516   0.689  1.1365  0.9262  1.4574
16718TIP3    H271570   0.087   4.500   0.830  0.6433 -2.8175  0.9704
16719TIP3   OH271571   5.728   3.150   6.070  0.0101 -0.1332 -0.0712
16719TIP3    H171572   5.752   3.235   6.032  1.8586 -0.8478 -0.6434
16719TIP3    H271573   5.775   3.148   6.154  0.8260 -0.9920 -0.5345
16720TIP3   OH271574   0.324   1.667   2.488  0.2830  0.1204  0.0055
16720TIP3    H171575   0.336   1.718   2.568 -2.7504 -0.5648  1.0624
16720TIP3    H271576   0.345   1.578   2.512 -1.2342 -0.1917  0.3015
16721TIP3   OH271577   4.953   5.324  15.233  0.1879 -0.0604  0.0913
16721TIP3    H171578   4.877   5.266  15.241 -0.3232  0.6936  1.0543
16721TIP3    H271579   5.015   5.291  15.298  1.2869 -1.4881 -1.5974
16722TIP3   OH271580   5.014   3.373  13.809  0.4850  0.1758 -0.5593
16722TIP3    H171581   4.922   3.356  13.830  0.6607 -3.0675 -1.7803
16722TIP3    H271582   5.020   3.356  13.715  2.2446  0.8825 -0.6017
16723TIP3   OH271583   3.551   6.373   3.880  0.0239 -0.1291  0.1517
16723TIP3    H171584   3.548   6.338   3.791 -1.4011  2.3832 -0.8646
16723TIP3    H271585   3.476   6.433   3.885 -0.3813 -0.7215  3.3042
16724TIP3   OH271586   3.873   3.970   3.447 -0.1038  0.1529  0.1893
16724TIP3    H171587   3.813   3.937   3.380 -0.9697  0.3183  0.8698
16724TIP3    H271588   3.951   3.915   3.438  0.3134  0.9683 -1.7818
16725TIP3   OH271589   0.415   5.256   3.956 -0.2574  0.3109 -0.2754
16725TIP3    H171590   0.416   5.170   3.998  3.0855  0.7801  0.9067
16725TIP3    H271591   0.322   5.281   3.955 -1.2137 -2.8019  0.3049
16726TIP3   OH271592   1.279   6.186  15.122 -0.2878 -0.1010 -0.0929
16726TIP3    H171593   1.269   6.232  15.206 -1.1194 -0.8147  0.2128
16726TIP3    H271594   1.373   6.189  15.105 -0.2913  1.4952  0.0319
16727TIP3   OH271595   0.171   6.380   5.954  0.0670  0.3115  0.3939
16727TIP3    H171596   0.201   6.403   6.042 -0.4747 -0.6398  0.8491
16727TIP3    H271597   0.164   6.284   5.956 -0.1839  0.3002 -0.6108
16728TIP3   OH271598   1.906   5.032  13.030  0.5134  0.2246  0.1814
16728TIP3    H171599   1.885   5.119  12.995  1.3203 -0.1938 -1.4774
16728TIP3    H271600   1.915   5.046  13.124 -0.2561  1.7484  0.0814
16729TIP3   OH271601   0.289   0.884   6.467 -0.1276  0.8244 -0.1756
16729TIP3    H171602   0.348   0.810   6.479  1.6822  2.1396 -0.5920
16729TIP3    H271603   0.215   0.865   6.525  0.2600 -1.2861 -0.2845
16730TIP3   OH271604   3.348   0.966  14.202 -0.1747 -0.3168  0.1910
16730TIP3    H171605   3.425   0.934  14.249 -0.4179 -0.6655  0.3515
16730TIP3    H271606   3.274   0.928  14.248 -0.4052 -1.1667 -0.8365
16731TIP3   OH271607   3.047   4.716   4.524 -0.3811 -0.0171  0.5303
16731TIP3    H171608   2.987   4.734   4.597  0.5100  1.1805  0.9961
16731TIP3    H271609   3.065   4.622   4.530 -0.0819  0.1160  2.0553
16732TIP3   OH271610   6.387   3.120   0.465 -0.4245  0.2319  0.3119
16732TIP3    H171611   6.322   3.175   0.423 -0.9381 -0.0655  0.7127
16732TIP3    H271612   6.359   3.031   0.447  1.6930 -0.0245 -2.4156
16733TIP3   OH271613   1.262   6.006   1.869 -0.3174  0.1063  0.2749
16733TIP3    H171614   1.283   6.090   1.829 -0.3268  0.8283  1.7319
16733TIP3    H271615   1.305   6.008   1.954  0.1229 -1.5895  0.1328
16734TIP3   OH271616   3.388   4.983  11.593  0.1495  0.0049  0.3218
16734TIP3    H171617   3.437   4.918  11.543  0.8996 -0.2008  1.2962
16734TIP3    H271618   3.421   4.975  11.683 -0.2476  1.2402  0.6017
16735TIP3   OH271619   3.078   5.960  11.554  0.4089  0.3115  0.4791
16735TIP3    H171620   3.065   5.893  11.487 -0.4541 -2.0453  2.8162
16735TIP3    H271621   3.130   5.917  11.622 -1.7531  1.3230  2.9444
16736TIP3   OH271622   0.998   0.772   3.934  0.5153  0.0211 -0.1752
16736TIP3    H171623   0.989   0.867   3.945 -0.5067  0.1002 -1.4853
16736TIP3    H271624   0.924   0.735   3.982 -0.5373  0.0513 -1.7146
16737TIP3   OH271625   5.679   4.368  16.544 -0.0620 -0.2582 -0.0115
16737TIP3    H171626   5.704   4.283  16.506 -0.4844 -0.3904  0.0064
16737TIP3    H271627   5.632   4.345  16.624 -0.8794 -0.0241 -0.4209
16738TIP3   OH271628   6.185   3.255  14.089  0.1742  0.5749 -0.3353
16738TIP3    H171629   6.277   3.270  14.111  0.0572  1.3831 -0.3633
16738TIP3    H271630   6.166   3.167  14.121  0.8265  0.5854  0.0866
16739TIP3   OH271631   1.341   0.833  14.679  0.3442 -0.1633 -0.3628
16739TIP3    H171632   1.371   0.745  14.703 -2.7021 -0.8150  1.6216
16739TIP3    H271633   1.380   0.891  14.744 -0.0248 -0.5140  0.1808
16740TIP3   OH271634   3.440   5.753   2.062 -0.3793 -0.3911  0.2027
16740TIP3    H171635   3.420   5.752   2.155  1.5227  0.6870  0.6741
16740TIP3    H271636   3.429   5.844   2.035 -0.4957 -0.6112 -0.5113
16741TIP3   OH271637   2.866   0.990  14.137 -0.0426  0.0211 -0.4736
16741TIP3    H171638   2.913   0.923  14.087  0.2159 -0.2664  0.1362
16741TIP3    H271639   2.774   0.976  14.115  0.1487  0.7544 -1.8810
16742TIP3   OH271640   2.417   4.420   6.147  0.3385 -0.2697 -0.1262
16742TIP3    H171641   2.410   4.450   6.237  0.3015  0.4214 -0.3472
16742TIP3    H271642   2.510   4.398   6.136  0.6992  1.2416 -0.3799
16743TIP3   OH271643   6.526   3.146  15.006  0.2613  0.1617  0.3864
16743TIP3    H171644   6.566   3.110  14.927  1.8008 -0.1264  1.2434
16743TIP3    H271645   6.501   3.235  14.982 -1.2171 -0.5877 -1.0062
16744TIP3   OH271646   1.908   0.828  16.675 -0.7102 -0.4221  0.3013
16744TIP3    H171647   1.991   0.792  16.643  0.0872  0.9696  0.7399
16744TIP3    H271648   1.927   0.851  16.766 -1.6017 -0.1550  0.4194
16745TIP3   OH271649   0.166   6.789   4.641 -0.3625  0.1700 -0.5052
16745TIP3    H171650   0.105   6.820   4.575 -1.0169 -0.1514 -0.0625
16745TIP3    H271651   0.249   6.831   4.619 -0.7454  0.6268 -1.1021
16746TIP3   OH271652   2.012   5.083  15.285  0.7612  0.4492 -0.1862
16746TIP3    H171653   1.955   5.006  15.285  2.2763 -0.7400  0.3209
16746TIP3    H271654   2.017   5.109  15.377  1.8395 -0.1361 -0.0538
16747TIP3   OH271655   4.909   6.320  13.883 -0.3370  0.3140  0.1390
16747TIP3    H171656   4.961   6.350  13.958  2.2603  0.6943 -1.6989
16747TIP3    H271657   4.955   6.242  13.852  0.4717  1.8563 -2.8386
16748TIP3   OH271658   2.967   4.273  11.128 -0.1425 -0.2233  0.5231
16748TIP3    H171659   2.956   4.185  11.163  0.3165  0.6054  2.9414
16748TIP3    H271660   3.036   4.265  11.062 -0.9306 -1.8403 -0.1464
16749TIP3   OH271661   4.177   2.717   2.534  0.2243 -0.1873  0.0555
16749TIP3    H171662   4.155   2.628   2.507 -0.6992  0.5036 -1.5819
16749TIP3    H271663   4.116   2.773   2.486  1.1981  1.3753  0.5568
16750TIP3   OH271664   3.939   4.481  13.947 -0.1104 -0.5226  0.0417
16750TIP3    H171665   3.918   4.560  13.898  0.5092  0.6033  1.5318
16750TIP3    H271666   3.867   4.473  14.011 -0.0871 -1.0802  0.0019
16751TIP3   OH271667   3.590   2.778   0.188  0.2295  0.3577  0.3182
16751TIP3    H171668   3.552   2.721   0.121 -1.8541  1.1722  0.7173
16751TIP3    H271669   3.683   2.779   0.168  0.7419 -4.5309  1.3564
16752TIP3   OH271670   0.398   5.210   2.856 -0.6885 -0.1188  0.2223
16752TIP3    H171671   0.386   5.122   2.819 -1.5353  0.1252 -0.1191
16752TIP3    H271672   0.416   5.265   2.780  2.1218 -0.3296  0.6350
16753TIP3   OH271673   4.788   3.363   1.849  0.0308  0.0751  0.4620
16753TIP3    H171674   4.820   3.334   1.935  0.7200  2.2229  0.9868
16753TIP3    H271675   4.853   3.427   1.819 -2.2516  2.5083  0.2865
16754TIP3   OH271676   1.858   4.854  15.341  0.0777  0.0110 -0.3344
16754TIP3    H171677   1.889   4.792  15.408  1.2005 -0.0913 -0.9178
16754TIP3    H271678   1.768   4.826  15.323 -0.2695  0.0772  1.1558
16755TIP3   OH271679   4.461   4.846   4.317 -0.2783 -0.1881 -0.0908
16755TIP3    H171680   4.498   4.831   4.230 -1.0328  0.8211 -0.6000
16755TIP3    H271681   4.447   4.758   4.352 -3.6135 -0.8210 -2.5481
16756TIP3   OH271682   3.170   0.289  14.934  0.1486 -0.0510 -0.1655
16756TIP3    H171683   3.179   0.299  15.028  0.0005  0.5131 -0.2078
16756TIP3    H271684   3.116   0.363  14.907 -1.8659 -1.4926 -0.3614
16757TIP3   OH271685   0.178   4.905   1.041  0.2498  0.2966 -0.5140
16757TIP3    H171686   0.111   4.876   1.103 -1.2153  1.5532 -1.4288
16757TIP3    H271687   0.248   4.942   1.095 -0.5176  0.4073  0.4175
16758TIP3   OH271688   6.248   0.449  10.423 -0.0867  0.2761  0.2054
16758TIP3    H171689   6.307   0.382  10.458 -1.2030 -1.2855 -0.7473
16758TIP3    H271690   6.162   0.427  10.459 -0.3150  1.9004  0.7574
16759TIP3   OH271691   0.914   4.337   5.815 -0.5054  0.0971  0.1054
16759TIP3    H171692   0.945   4.356   5.727 -1.4706  1.1464 -0.0372
16759TIP3    H271693   0.993   4.318   5.865  0.3337  1.9159 -0.4274
16760TIP3   OH271694   1.330   5.341   1.078  0.8363  0.3550  0.1360
16760TIP3    H171695   1.394   5.334   1.150  0.2933 -2.2520  0.4802
16760TIP3    H271696   1.249   5.304   1.114 -0.1128  1.1013 -1.1350
16761TIP3   OH271697   0.663   2.869   0.129  0.2294  0.1087  0.4483
16761TIP3    H171698   0.606   2.792   0.134  0.8690 -0.3897  0.2334
16761TIP3    H271699   0.603   2.943   0.123 -0.4206 -0.2695  1.9051
16762TIP3   OH271700   1.314   5.002  12.530 -0.1592  0.1023 -0.1485
16762TIP3    H171701   1.338   5.083  12.484 -1.7189  0.5049 -0.3188
16762TIP3    H271702   1.364   4.934  12.485 -0.8214  0.6307 -1.7599
16763TIP3   OH271703   4.794   0.084   5.593 -0.0571 -0.0180  0.0681
16763TIP3    H171704   4.704   0.087   5.561  0.5926  1.1236 -1.8456
16763TIP3    H271705   4.847   0.088   5.513  1.7090 -1.3508  1.1048
16764TIP3   OH271706   3.761   2.049   0.901 -0.4424  0.3380  0.1104
16764TIP3    H171707   3.830   1.997   0.860 -0.3554  0.1764  0.4523
16764TIP3    H271708   3.746   2.122   0.841  0.1268  0.4523  0.1004
16765TIP3   OH271709   4.553   2.446  14.850 -0.4423 -0.2171 -0.2031
16765TIP3    H171710   4.558   2.442  14.755  0.1757 -1.2166 -0.1428
16765TIP3    H271711   4.644   2.433  14.880 -0.5051  0.8690  0.5023
16766TIP3   OH271712   0.601   2.650  14.350 -0.1279 -0.4379  0.0253
16766TIP3    H171713   0.510   2.633  14.374  0.4739 -1.8873  1.4602
16766TIP3    H271714   0.615   2.598  14.271  0.0650 -2.0973  1.1135
16767TIP3   OH271715   4.048   3.885  12.500 -0.0800 -0.0636 -0.5933
16767TIP3    H171716   4.068   3.932  12.418  1.8839  1.3803  0.6340
16767TIP3    H271717   3.969   3.929  12.533  0.2115  0.6236 -0.7855
16768TIP3   OH271718   6.683   1.684   5.739  0.1766 -0.8182 -0.1520
16768TIP3    H171719   6.741   1.704   5.665 -0.2962  1.3262 -0.0102
16768TIP3    H271720   6.707   1.748   5.806 -0.2680 -1.9176  1.0939
16769TIP3   OH271721   3.749   1.629  15.304 -0.1509 -0.4022  0.1238
16769TIP3    H171722   3.679   1.564  15.298 -1.6214  1.1310 -0.1357
16769TIP3    H271723   3.812   1.603  15.237 -1.7135 -0.4370 -1.3931
16770TIP3   OH271724   2.779   3.303   2.603  0.0506  0.3140  0.1450
16770TIP3    H171725   2.768   3.371   2.536 -1.5250 -0.7349 -0.7301
16770TIP3    H271726   2.702   3.311   2.658  1.0540  0.7742  1.5341
16771TIP3   OH271727   0.382   3.948   4.889 -0.5607 -0.5383 -0.0135
16771TIP3    H171728   0.322   3.963   4.815 -2.5736 -2.2390  1.1527
16771TIP3    H271729   0.464   3.921   4.848 -1.2684 -0.3334 -1.6420
16772TIP3   OH271730   6.732   1.455   3.746  0.1333 -0.1201 -0.0334
16772TIP3    H171731   6.691   1.464   3.660  0.3804  1.2773 -0.0250
16772TIP3    H271732   6.773   1.369   3.744 -2.0451 -1.2167 -0.3614
16773TIP3   OH271733   0.203   3.370  13.836 -0.0602 -0.6461 -0.2575
16773TIP3    H171734   0.165   3.358  13.749 -0.7273  1.5052 -0.3138
16773TIP3    H271735   0.159   3.447  13.871  1.3486 -0.5237  1.3567
16774TIP3   OH271736   3.669   6.727   2.333 -0.3314 -0.3192 -0.5104
16774TIP3    H171737   3.687   6.817   2.359 -0.8945 -0.3069 -0.1309
16774TIP3    H271738   3.700   6.673   2.406  1.2474 -0.5513 -1.3051
16775TIP3   OH271739   5.619   5.283   4.839  0.3358  0.6975 -0.3278
16775TIP3    H171740   5.672   5.363   4.849 -0.1281  0.8331  1.3280
16775TIP3    H271741   5.543   5.311   4.788  0.0271  1.4135  0.4901
16776TIP3   OH271742   3.408   2.637   3.042 -1.1522 -0.6203  0.3905
16776TIP3    H171743   3.496   2.626   3.078 -1.3977  0.5101  1.3892
16776TIP3    H271744   3.404   2.728   3.014 -2.3584 -0.3071  1.4582
16777TIP3   OH271745   0.946   5.972  16.961 -0.0064  0.1400 -0.5325
16777TIP3    H171746   0.963   5.963  16.867  1.9288  0.9406 -0.2888
16777TIP3    H271747   0.886   6.046  16.967 -1.2691 -0.7699 -1.1880
16778TIP3   OH271748   3.264   5.575  15.840 -0.3689  0.1984  0.1069
16778TIP3    H171749   3.352   5.576  15.877 -0.4257 -2.6608  0.4959
16778TIP3    H271750   3.239   5.668  15.836  2.1118  0.9992  1.2166
16779TIP3   OH271751   5.595   1.499   4.912 -0.0274 -0.4167  0.5659
16779TIP3    H171752   5.665   1.483   4.976  0.3195  0.8456  0.5391
16779TIP3    H271753   5.568   1.590   4.929  1.8128  0.8969 -2.6702
16780TIP3   OH271754   4.248   4.328  13.627  0.3950 -0.4418  0.1344
16780TIP3    H171755   4.173   4.377  13.594  1.7482  0.2201 -2.2586
16780TIP3    H271756   4.240   4.242  13.587  1.0304 -0.2742 -0.3748
16781TIP3   OH271757   6.272   4.538  16.577 -0.4153  0.0927 -0.1253
16781TIP3    H171758   6.270   4.581  16.491 -0.0683  0.0234 -0.1681
16781TIP3    H271759   6.352   4.571  16.618 -1.0692  0.8688  0.5569
16782TIP3   OH271760   0.474   0.916   0.473 -1.0878  0.0265  1.0226
16782TIP3    H171761   0.527   0.969   0.413 -1.9268  0.1535  0.3738
16782TIP3    H271762   0.490   0.826   0.446 -1.6704  0.0943  0.4041
16783TIP3   OH271763   2.770   1.155   4.112  0.4778 -0.4711  0.8306
16783TIP3    H171764   2.833   1.115   4.173  2.6789  0.3677 -0.7517
16783TIP3    H271765   2.823   1.181   4.037 -2.3368 -3.3175 -2.5124
16784TIP3   OH271766   1.742   6.767  15.961  0.1880  0.0704 -0.0376
16784TIP3    H171767   1.760   6.843  16.018 -1.0231  0.1875  0.2188
16784TIP3    H271768   1.657   6.736  15.990  0.9150 -1.7739  0.2528
16785TIP3   OH271769   0.600   1.622   3.355  0.5846  0.0859 -0.3754
16785TIP3    H171770   0.671   1.683   3.375  0.5763  0.2456 -0.8231
16785TIP3    H271771   0.606   1.555   3.423 -0.7246  1.6800  1.4571
16786TIP3   OH271772   1.400   2.385   0.741 -0.0771  0.3572 -0.6931
16786TIP3    H171773   1.421   2.451   0.674 -0.7151  0.5417 -0.7152
16786TIP3    H271774   1.336   2.327   0.699 -0.1171  0.1925 -0.4056
16787TIP3   OH271775   5.544   2.923  15.856 -0.3620  0.2061 -0.5320
16787TIP3    H171776   5.462   2.884  15.824 -0.1861  1.2145 -2.3141
16787TIP3    H271777   5.515   2.999  15.907 -0.5368  0.4792 -1.0373
16788TIP3   OH271778   5.292   5.652  16.325  0.3307  0.4069 -0.2810
16788TIP3    H171779   5.325   5.727  16.374  2.1193  0.0784 -0.9201
16788TIP3    H271780   5.243   5.601  16.390 -1.1872  2.2315  0.0996
16789TIP3   OH271781   1.712   6.135   1.928 -0.5781 -0.3337 -0.3898
16789TIP3    H171782   1.633   6.167   1.970 -0.7211 -1.1187 -0.0319
16789TIP3    H271783   1.783   6.163   1.986 -0.5550  0.6342 -0.8686
16790TIP3   OH271784   2.969   3.149  15.969  0.3958  0.3813  0.9113
16790TIP3    H171785   2.890   3.104  15.999  0.0822  1.0493  1.1083
16790TIP3    H271786   2.937   3.231  15.933  0.9927  0.5954  0.8659
16791TIP3   OH271787   0.813   1.139  15.853 -0.4100 -0.0801  0.8060
16791TIP3    H171788   0.829   1.045  15.845  0.9024  0.1763 -0.0837
16791TIP3    H271789   0.745   1.157  15.788  1.5940  0.0367 -1.4005
16792TIP3   OH271790   3.442   4.584   1.540 -0.1326 -0.0473 -0.0521
16792TIP3    H171791   3.402   4.535   1.468  2.0963 -0.6321 -0.9784
16792TIP3    H271792   3.481   4.517   1.595 -0.6515  0.4847  0.9793
16793TIP3   OH271793   0.897   3.053   0.410 -0.1833  0.4627 -0.7474
16793TIP3    H171794   0.957   3.072   0.338  0.9068  1.0321  0.2685
16793TIP3    H271795   0.951   3.063   0.489 -0.9716 -1.5295  0.1108
16794TIP3   OH271796   2.809   1.787   0.648  0.7713  0.3195 -0.3328
16794TIP3    H171797   2.809   1.720   0.580  2.8376  0.6139 -0.6894
16794TIP3    H271798   2.862   1.749   0.719 -0.7016  0.3299  0.8300
16795TIP3   OH271799   2.362   1.689   5.440 -0.1115  0.0934  0.6277
16795TIP3    H171800   2.351   1.652   5.527  1.9911 -2.4562 -0.0473
16795TIP3    H271801   2.287   1.657   5.390  0.0637 -0.6755  0.8515
16796TIP3   OH271802   0.705   1.402  12.068 -0.1747  0.2187  0.4410
16796TIP3    H171803   0.750   1.436  11.991  0.1026 -0.8423  0.1136
16796TIP3    H271804   0.664   1.479  12.109  1.2118  1.0738  0.2699
16797TIP3   OH271805   5.353   2.447  12.749  0.4843  0.0109 -0.1903
16797TIP3    H171806   5.295   2.379  12.715 -1.0194  0.1715  1.8599
16797TIP3    H271807   5.300   2.527  12.748  0.5521  0.1482  1.7843
16798TIP3   OH271808   3.207   6.323  14.837  0.5097  0.2361 -0.2664
16798TIP3    H171809   3.133   6.362  14.884  1.8211  0.2448  1.9655
16798TIP3    H271810   3.274   6.392  14.835  0.5264  0.2188 -2.2039
16799TIP3   OH271811   0.975   4.398  16.952  0.2558  0.0561  0.6188
16799TIP3    H171812   0.927   4.316  16.955  0.8128 -0.2623  1.2868
16799TIP3    H271813   1.067   4.372  16.958  0.5346  0.6401 -0.8170
16800TIP3   OH271814   5.759   4.016  12.486 -0.0657  0.5282 -0.9886
16800TIP3    H171815   5.724   3.950  12.546 -1.2095  1.7232 -0.3035
16800TIP3    H271816   5.839   3.976  12.452 -0.7911 -1.2679 -0.7096
16801TIP3   OH271817   6.161   3.764   0.832  0.0292 -0.2368  0.4601
16801TIP3    H171818   6.243   3.813   0.828  1.9845 -3.1681  1.9294
16801TIP3    H271819   6.102   3.821   0.882  1.3126  1.6271 -0.0128
16802TIP3   OH271820   2.894   1.601   2.797 -0.1369 -0.7692 -0.6402
16802TIP3    H171821   2.933   1.635   2.877 -1.4951 -2.2144  0.7286
16802TIP3    H271822   2.968   1.567   2.746  0.7302 -0.0324  0.1087
16803TIP3   OH271823   4.898   6.383  16.863 -0.5314 -0.3149  1.1934
16803TIP3    H171824   4.968   6.362  16.924 -1.4764  1.4944  3.0334
16803TIP3    H271825   4.885   6.477  16.872 -2.9774 -0.5233  0.7315
16804TIP3   OH271826   6.328   1.118   4.637 -0.2458 -0.9674  0.1438
16804TIP3    H171827   6.321   1.023   4.653 -0.7024 -1.0543 -0.5104
16804TIP3    H271828   6.283   1.131   4.554  1.2158 -0.4190 -0.6076
16805TIP3   OH271829   0.903   3.109   5.816 -0.3341 -0.1305 -0.3855
16805TIP3    H171830   0.890   3.181   5.754  0.0830  1.0083  0.8124
16805TIP3    H271831   0.823   3.057   5.810 -0.3678  0.0541 -1.7354
16806TIP3   OH271832   6.224   2.779  11.763 -0.3421 -0.0542 -0.0141
16806TIP3    H171833   6.288   2.772  11.692 -1.2414  0.3445 -0.8844
16806TIP3    H271834   6.258   2.848  11.820  0.6674 -0.7501  0.2599
16807TIP3   OH271835   3.698   3.659  11.872 -0.4014 -0.1963  0.4034
16807TIP3    H171836   3.635   3.615  11.929 -0.4978  0.1928  0.6005
16807TIP3    H271837   3.783   3.620  11.895 -0.7426 -1.9168 -1.0036
16808TIP3   OH271838   0.778   5.464  16.907 -0.0498  0.6047  0.1473
16808TIP3    H171839   0.708   5.489  16.967 -0.4701  0.2379 -0.1847
16808TIP3    H271840   0.841   5.536  16.913 -0.3582  0.8435  0.5973
16809TIP3   OH271841   3.409   2.271  16.196 -0.7180 -0.5151  0.3933
16809TIP3    H171842   3.357   2.351  16.205  1.5780  0.9664  1.1898
16809TIP3    H271843   3.370   2.210  16.259 -2.1191  0.1457  0.2193
16810TIP3   OH271844   0.798   1.484   2.368  0.2290  0.2330 -0.4393
16810TIP3    H171845   0.756   1.563   2.403  2.0853  0.2401  2.0113
16810TIP3    H271846   0.760   1.412   2.419  1.9130  0.0802  0.6653
16811TIP3   OH271847   0.989   5.867  16.715 -0.1636  0.1119  0.4242
16811TIP3    H171848   0.929   5.793  16.715  1.7192 -1.5221  1.5322
16811TIP3    H271849   0.953   5.927  16.649 -2.3293 -1.2735  0.2370
16812TIP3   OH271850   0.108   4.731  15.711  0.2771 -0.2351  0.8833
16812TIP3    H171851   0.195   4.722  15.672 -0.4381 -0.6709 -0.6817
16812TIP3    H271852   0.057   4.778  15.646 -0.2380  1.5901  2.5197
16813TIP3   OH271853   1.981   2.380   5.078 -0.0646 -0.0126 -0.0170
16813TIP3    H171854   2.073   2.352   5.079 -0.3328 -0.8879  0.2998
16813TIP3    H271855   1.983   2.469   5.112  0.7324  0.1782 -0.5293
16814TIP3   OH271856   2.981   6.444   6.131  0.9125  0.4291  1.0314
16814TIP3    H171857   3.001   6.420   6.222  0.8330 -0.9080  0.7179
16814TIP3    H271858   2.885   6.453   6.130  0.7844 -0.7895  0.8219
16815TIP3   OH271859   5.401   3.113   0.078 -0.5944 -0.7073 -0.0621
16815TIP3    H171860   5.334   3.180   0.068  0.7837  0.5830 -0.9368
16815TIP3    H271861   5.365   3.036   0.033 -2.0928 -0.5365  0.7703
16816TIP3   OH271862   0.214   2.257   6.123 -0.5984  0.5568  0.2694
16816TIP3    H171863   0.215   2.165   6.095 -1.3642  0.7332 -0.3487
16816TIP3    H271864   0.278   2.300   6.066  0.0646  0.3428  0.8310
16817TIP3   OH271865   0.967   3.535  15.250  0.0624 -0.0750  0.0670
16817TIP3    H171866   0.938   3.608  15.305 -0.4554 -0.1858 -0.0505
16817TIP3    H271867   0.911   3.541  15.172  1.7311  0.9490 -1.1323
16818TIP3   OH271868   4.707   0.471   4.789 -0.2783  0.0578  0.0915
16818TIP3    H171869   4.647   0.449   4.718  0.1686  0.2097 -0.3434
16818TIP3    H271870   4.678   0.556   4.820 -0.7409 -0.2010  0.3891
16819TIP3   OH271871   2.086   4.246   4.868 -0.0601  0.1360  0.1867
16819TIP3    H171872   2.026   4.185   4.911  0.3627  0.0988  0.7299
16819TIP3    H271873   2.094   4.212   4.779  1.1182 -1.3182  0.8167
16820TIP3   OH271874   2.713   3.894  15.411  0.1488  0.2575 -0.0740
16820TIP3    H171875   2.619   3.886  15.399  0.2393  0.1492 -0.7565
16820TIP3    H271876   2.746   3.805  15.403  0.3928  0.3957 -0.6388
16821TIP3   OH271877   0.276   3.329  11.248 -0.1401 -0.9365 -0.7238
16821TIP3    H171878   0.340   3.383  11.202  1.1563 -0.3036  1.6711
16821TIP3    H271879   0.301   3.239  11.225  0.2474 -0.6442 -1.5052
16822TIP3   OH271880   6.639   6.030  11.262 -0.1850  0.0661 -0.0507
16822TIP3    H171881   6.644   5.935  11.251  0.3454  0.0109  0.5883
16822TIP3    H271882   6.677   6.046  11.348 -0.3087  0.8590 -0.1344
16823TIP3   OH271883   3.920   1.250  17.156 -0.1258  0.4277 -0.2190
16823TIP3    H171884   3.952   1.328  17.111 -1.0911 -0.7016 -3.1309
16823TIP3    H271885   3.843   1.279  17.204  1.3130  1.8156  1.3986
16824TIP3   OH271886   0.919   4.468  14.255 -0.1642 -0.3809 -0.1414
16824TIP3    H171887   0.868   4.391  14.228 -0.8322 -0.0927  0.2797
16824TIP3    H271888   1.001   4.431  14.288  0.9523 -0.7387 -2.9859
16825TIP3   OH271889   5.459   1.816   1.612 -0.3090 -0.2099 -0.1967
16825TIP3    H171890   5.520   1.756   1.654 -0.1571 -0.1207 -0.2873
16825TIP3    H271891   5.410   1.855   1.684  1.6004  1.7448  0.1377
16826TIP3   OH271892   4.137   0.961  12.476 -0.0778 -0.1205 -0.6733
16826TIP3    H171893   4.081   0.885  12.492  0.5633 -0.3283  0.6795
16826TIP3    H271894   4.191   0.935  12.400  1.1118 -1.6183  0.6143
16827TIP3   OH271895   2.979   5.210   4.125 -0.0132  0.6566  0.3989
16827TIP3    H171896   3.070   5.180   4.132  0.3238  1.6889  0.7071
16827TIP3    H271897   2.954   5.193   4.035  0.5807  0.6069  0.2419
16828TIP3   OH271898   5.074   3.537  16.677 -0.4177  0.7485  0.1424
16828TIP3    H171899   5.088   3.524  16.771 -1.6628 -2.9014 -0.0265
16828TIP3    H271900   4.989   3.580  16.671 -1.1937 -0.6496  0.7124
16829TIP3   OH271901   5.340   6.161  13.554  0.0682 -0.0980 -0.0183
16829TIP3    H171902   5.317   6.109  13.631 -0.1464  0.0845  0.0442
16829TIP3    H271903   5.370   6.097  13.490  1.6402 -0.1273  0.7005
16830TIP3   OH271904   4.528   1.814   0.983  0.1972  0.2221 -0.5630
16830TIP3    H171905   4.619   1.822   1.012  0.1525  0.6922 -0.5417
16830TIP3    H271906   4.533   1.814   0.887  0.2550 -0.2462 -0.5651
16831TIP3   OH271907   5.318   5.007  13.787  0.0910  0.4231 -0.8210
16831TIP3    H171908   5.327   4.955  13.706  1.6182 -0.6350 -0.0223
16831TIP3    H271909   5.383   5.076  13.778  1.6356 -0.8035  0.2505
16832TIP3   OH271910   6.543   3.262   1.983  0.1689  0.3257 -0.0864
16832TIP3    H171911   6.567   3.240   1.893  1.0963 -1.5854  0.5770
16832TIP3    H271912   6.463   3.314   1.974 -1.5379 -2.3774 -1.9293
16833TIP3   OH271913   4.735   4.477   4.104 -0.0349 -0.0898 -0.0946
16833TIP3    H171914   4.790   4.555   4.097 -0.7675  0.3136 -1.8382
16833TIP3    H271915   4.690   4.486   4.188 -0.1243  1.3801 -0.2764
16834TIP3   OH271916   4.576   5.852   2.370  0.2051  0.3612 -0.6612
16834TIP3    H171917   4.630   5.896   2.305  0.4473  1.2442  0.1135
16834TIP3    H271918   4.599   5.760   2.362  1.5425  0.6745 -0.6052
16835TIP3   OH271919   4.101   5.842  12.247  0.3702  0.0986  0.1032
16835TIP3    H171920   4.046   5.884  12.314 -0.1848  1.5182 -1.1556
16835TIP3    H271921   4.038   5.797  12.190  1.0012 -3.3264  1.8616
16836TIP3   OH271922   0.924   2.475  13.183 -0.0400 -0.7690 -0.0181
16836TIP3    H171923   0.978   2.415  13.234  1.1949  0.4759  0.2043
16836TIP3    H271924   0.837   2.467  13.222  0.5396 -0.9550  1.3238
16837TIP3   OH271925   5.548   4.164  10.384 -0.3343  0.3326  0.1332
16837TIP3    H171926   5.601   4.096  10.424  1.0251 -0.6358 -2.9595
16837TIP3    H271927   5.462   4.123  10.372 -0.2189 -0.0017  0.4247
16838TIP3   OH271928   1.928   5.383  16.130 -0.1551  0.0741  0.4832
16838TIP3    H171929   1.844   5.348  16.161 -0.6413  1.2687  0.5683
16838TIP3    H271930   1.925   5.371  16.035  0.0304 -0.8199  0.5824
16839TIP3   OH271931   6.567   0.951   0.281  0.2473  0.3488 -0.2530
16839TIP3    H171932   6.513   0.884   0.238 -0.8647 -0.0027  1.5711
16839TIP3    H271933   6.647   0.904   0.307 -0.8743 -0.5804  1.7649
16840TIP3   OH271934   1.717   5.629  12.703  0.0421  0.0594 -0.1057
16840TIP3    H171935   1.808   5.660  12.708  0.0951 -0.2860  1.4940
16840TIP3    H271936   1.725   5.535  12.689 -0.0724  0.0233  0.0749
16841TIP3   OH271937   5.804   4.872   4.055  0.1681 -0.1362  0.1839
16841TIP3    H171938   5.867   4.877   3.983 -0.9028 -0.6260 -0.8269
16841TIP3    H271939   5.844   4.922   4.126  2.3808 -1.6686  0.1273
16842TIP3   OH271940   1.415   0.151  14.829  0.6285 -0.1031  0.4421
16842TIP3    H171941   1.504   0.143  14.864  1.2718 -2.1256 -1.4279
16842TIP3    H271942   1.359   0.124  14.902  1.6526 -0.3537  1.1597
16843TIP3   OH271943   6.288   5.280  14.211 -0.0604  0.6514  0.0645
16843TIP3    H171944   6.284   5.266  14.305 -0.7521  0.4727  0.0093
16843TIP3    H271945   6.324   5.198  14.177 -1.5913 -0.0302  0.0047
16844TIP3   OH271946   1.813   5.488   5.387  0.1523 -0.5737 -0.0356
16844TIP3    H171947   1.781   5.486   5.477 -1.2178  0.2169 -0.4745
16844TIP3    H271948   1.785   5.405   5.349 -1.8015  0.2329 -0.5076
16845TIP3   OH271949   2.929   2.007   0.150  0.6626  0.0090  0.2326
16845TIP3    H171950   2.989   1.974   0.084 -1.8406 -0.6445 -1.9199
16845TIP3    H271951   2.913   2.098   0.125 -0.1526 -0.1832  0.0069
16846TIP3   OH271952   1.868   6.026   0.495 -0.1756 -0.0590 -0.1299
16846TIP3    H171953   1.805   6.096   0.514  0.3677  1.7832 -4.0728
16846TIP3    H271954   1.815   5.954   0.462 -0.5475 -0.7696  1.8621
16847TIP3   OH271955   0.630   6.091   2.805  0.0299 -0.1117  0.0146
16847TIP3    H171956   0.617   6.169   2.751 -0.9312 -2.0339 -2.6967
16847TIP3    H271957   0.722   6.069   2.793  0.3609  0.6859  0.9685
16848TIP3   OH271958   6.141   5.479  17.005 -0.1547  0.1281  0.3503
16848TIP3    H171959   6.188   5.422  17.066  0.4104  1.0402  0.7858
16848TIP3    H271960   6.082   5.420  16.958  0.6066 -0.8573  0.5992
16849TIP3   OH271961   1.532   0.930   1.387 -0.0596  0.6277  0.7593
16849TIP3    H171962   1.567   0.864   1.327  1.5857 -0.2495  2.5557
16849TIP3    H271963   1.445   0.951   1.352  0.9577  0.4905 -2.1043
16850TIP3   OH271964   2.431   0.700   0.101 -0.3085  0.0415 -0.5988
16850TIP3    H171965   2.449   0.740   0.186 -0.8452 -0.0012 -0.4650
16850TIP3    H271966   2.448   0.607   0.114 -0.7888 -0.0226 -0.4270
16851TIP3   OH271967   5.147   1.315   4.938 -0.1840  0.1149 -0.3444
16851TIP3    H171968   5.109   1.379   5.000 -0.1678 -0.9580  0.8158
16851TIP3    H271969   5.235   1.299   4.971 -0.0845 -0.2793 -0.7974
16852TIP3   OH271970   3.637   2.635   4.649  0.4732 -0.1010 -0.1068
16852TIP3    H171971   3.718   2.608   4.693  0.3050 -1.1415 -0.4087
16852TIP3    H271972   3.574   2.566   4.671 -0.7274  1.3191  1.1820
16853TIP3   OH271973   1.881   2.511   1.495 -0.1587  0.6767 -0.0409
16853TIP3    H171974   1.931   2.473   1.568  0.3125  1.4334  0.0512
16853TIP3    H271975   1.838   2.437   1.453  2.4314 -0.2677 -1.2087
16854TIP3   OH271976   5.914   0.840   2.094 -0.4335 -0.2539 -0.1024
16854TIP3    H171977   5.819   0.847   2.101 -0.3043  0.3036  1.4333
16854TIP3    H271978   5.946   0.930   2.098  0.2361 -0.5122  1.4706
16855TIP3   OH271979   3.595   0.994  16.058 -0.4495  0.0725 -0.5819
16855TIP3    H171980   3.682   0.953  16.062 -0.2178  0.4099 -1.7435
16855TIP3    H271981   3.611   1.087  16.074 -1.0688 -0.2958  2.8450
16856TIP3   OH271982   2.413   2.633  15.822 -0.1759 -0.0930 -0.2422
16856TIP3    H171983   2.393   2.725  15.838  0.2953 -0.2172  1.1866
16856TIP3    H271984   2.328   2.591  15.815 -0.3970  0.3229 -0.0835
16857TIP3   OH271985   4.888   1.542  11.282  0.4483  0.3523 -0.5614
16857TIP3    H171986   4.914   1.621  11.234  0.8096  0.4119 -0.2747
16857TIP3    H271987   4.971   1.501  11.307  0.2788 -0.6160 -1.5030
16858TIP3   OH271988   2.738   1.879  13.974  0.7377 -0.1591  0.5095
16858TIP3    H171989   2.832   1.884  13.991  0.4774  0.2610  1.8862
16858TIP3    H271990   2.698   1.938  14.038 -0.2745  1.9886 -1.9185
16859TIP3   OH271991   3.857   6.236  14.974  0.7269 -0.1971  0.1568
16859TIP3    H171992   3.783   6.209  15.028 -0.0250 -0.5632 -1.0310
16859TIP3    H271993   3.895   6.310  15.022  0.0649 -0.4817  1.1575
16860TIP3   OH271994   0.809   0.849   0.685 -0.2141  0.4370 -0.2612
16860TIP3    H171995   0.842   0.907   0.617  0.7688 -0.1612 -0.3081
16860TIP3    H271996   0.771   0.908   0.750 -3.2803  0.9849 -2.2914
16861TIP3   OH271997   4.887   4.299  11.512 -0.2593  0.1546  0.3106
16861TIP3    H171998   4.800   4.270  11.541 -0.2325  0.4018  0.6520
16861TIP3    H271999   4.945   4.225  11.532 -0.1012  0.6005  1.6474
16862TIP3   OH272000   4.072   4.299   1.653 -0.1209 -0.1888 -0.0944
16862TIP3    H172001   4.089   4.393   1.655  1.0230 -0.3513 -1.3330
16862TIP3    H272002   3.984   4.290   1.691 -0.8842  1.5271 -1.3411
16863TIP3   OH272003   1.298   6.291   3.251 -0.3800  0.0707  0.7009
16863TIP3    H172004   1.226   6.254   3.301  0.3125 -0.4328  1.3615
16863TIP3    H272005   1.340   6.353   3.312  1.0107 -1.1945  1.0886
16864TIP3   OH272006   6.140   6.388  15.471 -0.1423 -0.0349 -0.7021
16864TIP3    H172007   6.164   6.377  15.379  0.9472  0.5048 -0.4859
16864TIP3    H272008   6.144   6.482  15.486  2.0267 -0.2653  0.4946
16865TIP3   OH272009   1.454   0.166  15.172  0.2869 -0.2211  0.1903
16865TIP3    H172010   1.490   0.229  15.234 -1.0558  1.0717 -0.2711
16865TIP3    H272011   1.526   0.151  15.110  0.9742  0.0326  0.9029
16866TIP3   OH272012   3.885   1.560   3.105 -0.4171 -0.2322 -0.0034
16866TIP3    H172013   3.940   1.527   3.175  2.0487  1.9387 -0.7556
16866TIP3    H272014   3.815   1.608   3.149  1.1952  1.2474  1.0318
16867TIP3   OH272015   3.397   2.417  15.631 -0.1993 -0.1878 -0.0141
16867TIP3    H172016   3.399   2.353  15.702 -0.9572 -0.1141  0.0828
16867TIP3    H272017   3.435   2.496  15.669 -0.2440 -0.2646  0.1915
16868TIP3   OH272018   0.050   2.437  16.949 -0.1499 -0.6222  0.2346
16868TIP3    H172019  -0.025   2.390  16.913 -0.4378 -1.3251  1.7225
16868TIP3    H272020   0.033   2.529  16.926 -0.7707 -0.9294 -0.6052
16869TIP3   OH272021   4.535   2.667  15.488 -0.1690  0.2623 -0.1166
16869TIP3    H172022   4.515   2.698  15.576  2.0809  1.2287  0.1246
16869TIP3    H272023   4.519   2.743  15.432  1.2894  0.6052 -0.1017
16870TIP3   OH272024   2.055   4.350   3.520  0.7972 -0.2498  0.5233
16870TIP3    H172025   2.014   4.263   3.522  2.1373 -1.0623 -2.2148
16870TIP3    H272026   2.148   4.332   3.538  0.7139  1.0372  2.5814
16871TIP3   OH272027   5.719   0.726   3.931  0.1768 -0.4840 -0.7387
16871TIP3    H172028   5.683   0.742   3.843 -0.3544  2.9790 -0.0558
16871TIP3    H272029   5.781   0.798   3.944 -2.0802  1.0977  2.8140
16872TIP3   OH272030   2.410   1.243   5.654 -0.1255  0.5493 -0.3694
16872TIP3    H172031   2.474   1.292   5.604 -0.4578  0.8649 -0.4918
16872TIP3    H272032   2.410   1.284   5.741  0.7626 -0.2740  0.0339
16873TIP3   OH272033   2.517   2.323   1.942  0.3230  0.0985 -0.0501
16873TIP3    H172034   2.530   2.258   2.010  0.4322  0.1460 -0.0258
16873TIP3    H272035   2.556   2.284   1.864  1.1014  0.4679  0.1464
16874TIP3   OH272036   2.000   1.310  10.974 -0.4027 -0.0346  0.4405
16874TIP3    H172037   1.918   1.360  10.976 -1.0131 -0.9613 -0.6407
16874TIP3    H272038   2.032   1.319  10.884  1.2634  1.1827  1.1004
16875TIP3   OH272039   1.567   5.967   4.287 -0.2255 -0.6018 -0.1607
16875TIP3    H172040   1.589   5.874   4.282  1.0758 -0.3091 -0.2236
16875TIP3    H272041   1.541   5.981   4.378 -2.3974 -1.4170 -0.6091
16876TIP3   OH272042   3.986   3.795  13.226  0.4276 -0.7708  0.3418
16876TIP3    H172043   4.026   3.776  13.141 -1.6566 -0.6622 -0.7241
16876TIP3    H272044   3.987   3.890  13.232 -0.5561 -0.7081 -0.1870
16877TIP3   OH272045   3.736   5.234  16.229  0.3912  0.6084 -0.3094
16877TIP3    H172046   3.791   5.272  16.161 -0.0722  0.4394 -0.7816
16877TIP3    H272047   3.650   5.224  16.188  0.3656 -0.4590 -0.0305
16878TIP3   OH272048   0.349   3.134  15.098  0.6291  0.0428 -0.4934
16878TIP3    H172049   0.273   3.075  15.102 -0.6019  1.5839 -0.1364
16878TIP3    H272050   0.313   3.218  15.070  2.0654  1.0722  0.6008
16879TIP3   OH272051   0.398   6.434   2.980  0.2659 -0.8780 -0.2345
16879TIP3    H172052   0.452   6.513   2.970  2.5193 -1.8998  2.5927
16879TIP3    H272053   0.308   6.466   2.972  1.0842  2.0928  1.0472
16880TIP3   OH272054   1.269   6.154  11.703 -0.2801  0.0757 -0.1650
16880TIP3    H172055   1.342   6.130  11.646 -0.9721  0.6569 -1.3344
16880TIP3    H272056   1.275   6.094  11.777  2.4429  1.2386  0.6863
16881TIP3   OH272057   2.827   0.173   6.449 -0.4822  0.3353 -0.2488
16881TIP3    H172058   2.910   0.189   6.495 -0.5888  0.7175 -0.1907
16881TIP3    H272059   2.839   0.087   6.409  0.4200  0.9179 -1.2722
16882TIP3   OH272060   4.496   2.216   1.036 -0.0219 -0.7713  0.1658
16882TIP3    H172061   4.440   2.186   1.108 -0.7835 -3.8883 -1.5484
16882TIP3    H272062   4.574   2.251   1.080 -1.3349 -0.5871  2.5194
16883TIP3   OH272063   5.115   1.254  10.484 -0.1017 -0.1935 -0.5753
16883TIP3    H172064   5.040   1.238  10.540  0.4625 -0.8735 -0.0015
16883TIP3    H272065   5.142   1.168  10.453  0.4956  0.0316 -0.7078
16884TIP3   OH272066   1.557   0.388   2.200  0.2379 -0.0393 -0.0650
16884TIP3    H172067   1.505   0.336   2.139 -0.7748  0.5344  0.2802
16884TIP3    H272068   1.583   0.465   2.148 -0.1154  0.1548  0.0364
16885TIP3   OH272069   2.528   1.007  11.258 -0.1921 -0.4510  0.4482
16885TIP3    H172070   2.467   1.061  11.207 -0.1208  0.1447  0.9818
16885TIP3    H272071   2.482   0.924  11.269 -0.3390 -0.4831 -0.3084
16886TIP3   OH272072   2.963   4.609  16.303 -0.0546  0.1808 -0.2854
16886TIP3    H172073   2.884   4.604  16.250 -0.5603 -1.6162  0.5716
16886TIP3    H272074   2.956   4.693  16.349 -2.5487 -0.8393  1.3605
16887TIP3   OH272075   0.408   3.351  14.897  0.2614 -0.6826  0.0680
16887TIP3    H172076   0.480   3.289  14.882  2.3054  1.8213 -1.4485
16887TIP3    H272077   0.342   3.328  14.832 -0.0463 -2.5795  0.9929
16888TIP3   OH272078   6.307   0.284   2.413 -0.0701 -0.4479  0.1929
16888TIP3    H172079   6.271   0.363   2.453  0.2208 -0.5097  0.5717
16888TIP3    H272080   6.331   0.228   2.486  0.3496 -0.6106 -0.0663
16889TIP3   OH272081   2.657   5.211  15.330 -0.1366  0.2413  0.3550
16889TIP3    H172082   2.635   5.175  15.244  1.6118 -0.8213  0.2970
16889TIP3    H272083   2.723   5.151  15.365 -0.2611  1.0594  2.1373
16890TIP3   OH272084   6.093   2.023  11.132 -0.7148 -0.3447  0.0924
16890TIP3    H172085   6.170   1.971  11.152 -0.9632 -0.1496  1.6385
16890TIP3    H272086   6.105   2.049  11.040  1.1862 -0.0867  0.3815
16891TIP3   OH272087   1.680   4.504   6.143  0.0203 -0.0629  0.2150
16891TIP3    H172088   1.695   4.451   6.065 -0.2056  0.9371 -0.5126
16891TIP3    H272089   1.748   4.477   6.204 -0.7607 -2.0249  0.3039
16892TIP3   OH272090   0.467   4.231  16.173 -0.1670 -0.6116  0.4104
16892TIP3    H172091   0.444   4.173  16.101 -0.0509  0.4310 -0.4867
16892TIP3    H272092   0.492   4.313  16.131  1.9116 -0.6126  1.5297
16893TIP3   OH272093   1.637   2.852  15.570 -0.0414 -0.3331  0.1474
16893TIP3    H172094   1.702   2.789  15.539 -0.8232 -0.8656 -0.4319
16893TIP3    H272095   1.572   2.798  15.615 -1.1583 -0.0374 -1.0904
16894TIP3   OH272096   2.681   2.242   5.584  0.0882 -0.4616  0.3471
16894TIP3    H172097   2.643   2.270   5.668 -0.5577  0.3341 -0.1928
16894TIP3    H272098   2.623   2.280   5.518  1.2042 -0.1640 -0.4870
16895TIP3   OH272099   3.334   6.366  13.708 -0.0826  0.9724 -0.6359
16895TIP3    H172100   3.393   6.388  13.781 -0.2139 -0.3755 -0.0899
16895TIP3    H272101   3.247   6.388  13.741 -0.2300 -0.4029 -0.0312
16896TIP3   OH272102   1.648   6.294   1.036  0.2466  0.1584  0.0414
16896TIP3    H172103   1.721   6.330   1.085  1.2575 -1.4113 -0.2217
16896TIP3    H272104   1.572   6.303   1.094  0.9885  0.3090  1.0014
16897TIP3   OH272105   4.607   6.514   5.584  0.0963 -0.5821 -0.4509
16897TIP3    H172106   4.682   6.562   5.619  0.8491 -2.1207  0.1787
16897TIP3    H272107   4.569   6.572   5.518  1.2153  0.6557 -0.0436
16898TIP3   OH272108   4.050   2.246   4.192  0.0200  0.0608 -0.0351
16898TIP3    H172109   4.001   2.188   4.249  0.0052 -0.4024 -0.5166
16898TIP3    H272110   3.988   2.270   4.123 -0.4222  1.7524  0.8680
16899TIP3   OH272111   2.907   3.980  14.023  0.2008  0.6345  0.0595
16899TIP3    H172112   2.836   3.946  14.078  2.5817  0.6049  3.4800
16899TIP3    H272113   2.983   3.984  14.082  2.8992  1.3451 -3.1395
16900TIP3   OH272114   3.405   4.180  15.412 -0.5536  0.3288  0.1383
16900TIP3    H172115   3.453   4.263  15.409 -1.0647  0.6028 -0.8854
16900TIP3    H272116   3.472   4.113  15.399 -0.3041  0.6517 -0.2639
16901TIP3   OH272117   6.759   5.497  15.332 -0.5423 -0.4429  0.1744
16901TIP3    H172118   6.780   5.589  15.315  0.0545 -0.6496 -0.2208
16901TIP3    H272119   6.677   5.482  15.286 -0.5584 -0.1527  0.1061
16902TIP3   OH272120   5.450   5.923  16.877  0.0172 -0.5763  0.6499
16902TIP3    H172121   5.402   5.969  16.809  0.1913 -1.4829 -0.1026
16902TIP3    H272122   5.384   5.900  16.942 -0.4379 -1.1600 -0.0150
16903TIP3   OH272123   2.592   0.153   1.085 -0.7473  0.4420 -0.2733
16903TIP3    H172124   2.607   0.245   1.109  0.6506  0.5556 -1.4613
16903TIP3    H272125   2.641   0.104   1.150  0.0224  0.6201 -0.7053
16904TIP3   OH272126   4.654   4.939  16.974 -0.0169  0.2679  0.8290
16904TIP3    H172127   4.597   4.911  17.046  0.4989 -1.0676  0.7478
16904TIP3    H272128   4.743   4.929  17.009  0.3064 -1.8269 -0.4427
16905TIP3   OH272129   3.340   0.016  12.007  0.4648  0.3677  0.4233
16905TIP3    H172130   3.434   0.003  12.015  0.3606 -1.4849 -0.7581
16905TIP3    H272131   3.313  -0.046  11.940 -1.3759  1.9674 -0.4253
16906TIP3   OH272132   6.550   6.326   0.007  0.2397 -0.0759 -0.3034
16906TIP3    H172133   6.636   6.296   0.037  0.0313  0.0796  0.4570
16906TIP3    H272134   6.569   6.400  -0.050  0.6353 -0.3495 -0.5358
16907TIP3   OH272135   5.707   5.279  16.295 -0.1986  0.4417 -0.0277
16907TIP3    H172136   5.619   5.303  16.264 -0.3382 -2.3197 -2.1316
16907TIP3    H272137   5.766   5.328  16.238 -0.3472  1.4276  0.6406
16908TIP3   OH272138   1.616   3.820  14.141 -0.1377 -0.7262 -0.0904
16908TIP3    H172139   1.580   3.742  14.098 -0.6102 -1.1023  0.9515
16908TIP3    H272140   1.687   3.849  14.084  0.6085 -2.4187 -0.0808
16909TIP3   OH272141   4.273   3.101   5.685  0.3897 -0.3085 -0.4524
16909TIP3    H172142   4.274   3.018   5.733  1.4085  1.1207  2.1365
16909TIP3    H272143   4.194   3.146   5.715  0.2572  0.0162 -1.2543
16910TIP3   OH272144   3.927   6.472  10.381 -0.2878  0.0772  0.0984
16910TIP3    H172145   3.848   6.512  10.345 -0.1541 -0.6084 -1.0142
16910TIP3    H272146   3.894   6.400  10.434 -0.4960  1.2137  1.5656
16911TIP3   OH272147   2.214   2.854   0.655 -0.8693  0.0199  0.0720
16911TIP3    H172148   2.212   2.886   0.564 -0.2747 -1.0406 -0.3388
16911TIP3    H272149   2.219   2.933   0.708  0.6564  0.6361 -0.8988
16912TIP3   OH272150   6.209   0.931  13.817 -0.1753  0.1110  0.0628
16912TIP3    H172151   6.241   0.926  13.727  1.0467  0.8825  0.4357
16912TIP3    H272152   6.222   0.842  13.851 -1.1165 -0.3201 -0.6548
16913TIP3   OH272153   2.419   6.587  15.348  0.1021  0.5526 -0.3615
16913TIP3    H172154   2.406   6.568  15.441 -0.0733  0.3226 -0.4325
16913TIP3    H272155   2.332   6.577  15.309  0.2593  0.2030 -0.6272
16914TIP3   OH272156   5.061   0.942  16.298 -0.0450  0.0360 -0.0594
16914TIP3    H172157   5.137   0.947  16.355  0.4094 -2.5914 -0.3066
16914TIP3    H272158   5.007   0.872  16.335 -0.6803 -0.4280 -1.7288
16915TIP3   OH272159   3.498   1.895   0.175  0.0541 -0.4586 -0.1166
16915TIP3    H172160   3.439   1.847   0.117  0.3745 -1.8456  0.6775
16915TIP3    H272161   3.446   1.914   0.253 -0.1235  0.6835 -0.4833
16916TIP3   OH272162   2.507   4.472  12.606 -0.5244 -0.8119 -0.1669
16916TIP3    H172163   2.597   4.454  12.576 -0.1349  0.8893 -0.1198
16916TIP3    H272164   2.515   4.483  12.701 -0.8374 -0.8686 -0.1325
16917TIP3   OH272165   4.424   2.702  13.767 -0.1515  0.1792 -0.1055
16917TIP3    H172166   4.431   2.622  13.818  6.1502  0.4838  0.2240
16917TIP3    H272167   4.389   2.767  13.829  2.8290 -0.5457  2.6287
16918TIP3   OH272168   3.389   1.418   2.333  0.2024 -0.1536  0.5749
16918TIP3    H172169   3.376   1.461   2.248 -2.6292 -2.6419 -0.4440
16918TIP3    H272170   3.373   1.487   2.398 -0.5229  1.1529 -0.9155
16919TIP3   OH272171   5.380   2.835   3.799  0.0744 -0.5591 -0.4413
16919TIP3    H172172   5.395   2.875   3.884  0.3924 -1.5130 -0.0277
16919TIP3    H272173   5.358   2.908   3.741  0.8786  0.2380  0.2189
16920TIP3   OH272174   3.366   5.728   5.293  0.0631 -0.2104  0.2076
16920TIP3    H172175   3.436   5.663   5.291 -0.0750 -0.4344  1.5998
16920TIP3    H272176   3.311   5.706   5.218  1.6904  0.2449 -1.1814
16921TIP3   OH272177   5.431   2.465   1.054 -0.4908  0.0522 -0.5786
16921TIP3    H172178   5.336   2.467   1.067 -0.4641 -0.9218 -0.0824
16921TIP3    H272179   5.467   2.457   1.143  0.1043  1.2068 -0.6946
16922TIP3   OH272180   3.313   0.052  16.551  0.3425  0.0416 -0.7840
16922TIP3    H172181   3.392   0.082  16.596  0.6578 -0.4240 -1.0148
16922TIP3    H272182   3.273   0.133  16.518 -0.2404  0.4474  0.8557
16923TIP3   OH272183   1.687   5.231  11.744 -0.4604 -0.4182 -0.1721
16923TIP3    H172184   1.713   5.262  11.831  0.2255  1.5380 -1.0194
16923TIP3    H272185   1.763   5.249  11.688 -0.6617 -2.1866 -1.0910
16924TIP3   OH272186   1.000   0.618  12.627 -0.1385 -0.0846  0.0166
16924TIP3    H172187   1.019   0.683  12.560 -0.2316  0.4654  0.5145
16924TIP3    H272188   1.064   0.635  12.697 -1.3639  0.7405  0.9910
16925TIP3   OH272189   2.676   4.653   0.263 -0.5149  0.2445  0.3032
16925TIP3    H172190   2.689   4.722   0.327  0.2712  0.7976 -0.4333
16925TIP3    H272191   2.723   4.683   0.185 -3.4733  0.7976 -1.4428
16926TIP3   OH272192   0.136   0.754  12.595  0.1332  0.1423 -0.2443
16926TIP3    H172193   0.141   0.659  12.604  0.2321  0.2101  0.5469
16926TIP3    H272194   0.227   0.784  12.602  0.0473  0.3333  0.1012
16927TIP3   OH272195   6.707   1.636  14.335  0.0623 -0.1788  0.3320
16927TIP3    H172196   6.662   1.651  14.252 -1.3241 -0.5941  0.9562
16927TIP3    H272197   6.787   1.589  14.312  0.1103  0.4461 -0.8235
16928TIP3   OH272198   2.844   2.210  13.681 -0.2143 -0.2938 -0.5912
16928TIP3    H172199   2.822   2.183  13.771 -0.9052  0.3717 -0.5471
16928TIP3    H272200   2.834   2.130  13.629 -1.4244 -0.3361 -0.3308
16929TIP3   OH272201   1.839   4.605   0.319 -0.0401  0.0379  0.0143
16929TIP3    H172202   1.777   4.625   0.249 -0.8783 -0.2105  0.6692
16929TIP3    H272203   1.913   4.564   0.274 -0.3142  0.4114 -0.7906
16930TIP3   OH272204   2.554   0.420   2.178  0.4341  0.2829 -0.0231
16930TIP3    H172205   2.491   0.479   2.139 -0.8101 -0.9577  0.0195
16930TIP3    H272206   2.607   0.475   2.236  1.6191  1.9618 -2.5420
16931TIP3   OH272207   5.960   5.867   2.331 -0.1446  0.1496  0.3106
16931TIP3    H172208   5.909   5.799   2.288  0.7420 -0.0504 -0.4663
16931TIP3    H272209   5.896   5.920   2.378 -1.0618 -0.0601 -0.6803
16932TIP3   OH272210   1.236   3.290   5.486 -0.2310 -0.2836  0.2600
16932TIP3    H172211   1.157   3.240   5.464  0.7403 -1.8766  0.2493
16932TIP3    H272212   1.256   3.264   5.576  1.7070 -1.9403 -0.5721
16933TIP3   OH272213   6.166   0.990   1.821 -0.3495  0.5284 -0.0772
16933TIP3    H172214   6.255   1.010   1.793 -0.7859  0.5840 -1.5395
16933TIP3    H272215   6.112   1.006   1.743 -1.7158  1.0573  0.9199
16934TIP3   OH272216   6.729   5.742  14.457  0.2726 -0.5413  0.0800
16934TIP3    H172217   6.662   5.707  14.399 -0.0380  0.1697  0.0055
16934TIP3    H272218   6.757   5.667  14.509 -0.7059 -0.8110  0.2366
16935TIP3   OH272219   2.840   2.392  12.988 -1.3589 -0.5833 -0.6645
16935TIP3    H172220   2.907   2.461  12.985 -2.9851  1.1002 -0.6930
16935TIP3    H272221   2.876   2.326  13.046  0.0751  0.5602 -0.1824
16936TIP3   OH272222   4.719   0.603   0.572 -0.3935  0.0351 -0.3979
16936TIP3    H172223   4.633   0.585   0.532 -0.8625  0.3239  0.4710
16936TIP3    H272224   4.700   0.659   0.647  0.4589 -0.6844  0.3762
16937TIP3   OH272225   6.418   2.172  16.346 -0.3285  0.6611  0.8924
16937TIP3    H172226   6.339   2.178  16.399 -0.2402 -0.0354  1.1117
16937TIP3    H272227   6.394   2.114  16.274  0.3541 -0.5785  1.6496
16938TIP3   OH272228   0.380   0.567   1.701 -0.0055  0.5838  0.2703
16938TIP3    H172229   0.458   0.518   1.676 -0.9504 -0.4989 -0.6588
16938TIP3    H272230   0.368   0.546   1.794  0.4900  0.3288  0.2826
16939TIP3   OH272231   0.360   3.649   1.341  0.4573  0.0905 -0.3342
16939TIP3    H172232   0.393   3.597   1.268  0.7100 -0.4917  0.1877
16939TIP3    H272233   0.398   3.736   1.328  0.9548 -0.1617 -0.5858
16940TIP3   OH272234   6.381   2.306  10.692  0.7516 -0.0188 -0.2746
16940TIP3    H172235   6.406   2.362  10.765  2.2875  1.0294 -1.5224
16940TIP3    H272236   6.442   2.233  10.695 -0.4938 -1.0578  0.6527
16941TIP3   OH272237   2.495   3.064  15.305  0.1346  0.5275 -0.1176
16941TIP3    H172238   2.406   3.073  15.272  0.1934  0.0600 -0.4128
16941TIP3    H272239   2.488   3.079  15.399 -0.3417 -0.0547 -0.0600
16942TIP3   OH272240   4.054   0.799   2.566  0.0642  0.3662  0.1553
16942TIP3    H172241   4.025   0.870   2.623  2.4367  1.7823 -0.2786
16942TIP3    H272242   3.979   0.780   2.510 -2.4040 -1.0886  3.5686
16943TIP3   OH272243   5.951   0.828   1.380 -0.3366  0.4570  0.0651
16943TIP3    H172244   5.970   0.907   1.330 -0.7036  1.0154  0.7820
16943TIP3    H272245   6.036   0.803   1.418 -0.4912  1.4344  1.1223
16944TIP3   OH272246   0.164   5.349   3.960 -0.0474 -0.5014  0.2388
16944TIP3    H172247   0.110   5.270   3.946 -0.5624 -0.1446  0.1743
16944TIP3    H272248   0.163   5.362   4.055 -1.4147  0.4136  0.1236
16945TIP3   OH272249   2.048   2.584   1.285  0.4546  0.4110 -0.1751
16945TIP3    H172250   1.988   2.559   1.356  1.9939 -1.2097  0.6301
16945TIP3    H272251   1.992   2.631   1.223 -1.3249  0.3176  1.2509
16946TIP3   OH272252   3.010   2.766  11.380 -0.3147  0.5368  0.4467
16946TIP3    H172253   2.921   2.744  11.411 -1.7431 -0.8211 -3.9561
16946TIP3    H272254   2.998   2.844  11.326  1.5203  1.1784  0.8881
16947TIP3   OH272255   3.010   0.797  12.793  0.0862 -0.8583  0.4460
16947TIP3    H172256   2.925   0.753  12.798 -1.1408  1.4657  1.3302
16947TIP3    H272257   3.002   0.856  12.718  0.8599 -0.4697  0.6612
16948TIP3   OH272258   0.626   0.357  11.550  0.2590  0.3247 -0.1675
16948TIP3    H172259   0.716   0.345  11.580 -0.0847 -0.2759  0.6566
16948TIP3    H272260   0.618   0.300  11.474 -0.0650 -1.3947  1.0969
16949TIP3   OH272261   1.645   2.763  14.325  0.1153 -0.5530 -0.1352
16949TIP3    H172262   1.623   2.799  14.239 -0.6947  0.1759  0.3565
16949TIP3    H272263   1.598   2.679  14.328 -0.3115 -0.3220 -0.2012
16950TIP3   OH272264   4.716   0.231  15.184  0.6111  0.0504 -0.1422
16950TIP3    H172265   4.724   0.158  15.246  3.5338 -0.7353 -1.3110
16950TIP3    H272266   4.704   0.190  15.099 -0.4922  1.0562 -0.5052
16951TIP3   OH272267   0.187   1.151   1.309 -0.2396 -0.4396 -0.0043
16951TIP3    H172268   0.239   1.072   1.321  0.1347 -0.5481 -1.9911
16951TIP3    H272269   0.096   1.121   1.315 -0.0943 -0.8974 -0.0540
16952TIP3   OH272270   0.094   2.586   2.362 -0.1068  0.1545  0.3834
16952TIP3    H172271   0.043   2.666   2.351  0.4483  0.3600 -0.8015
16952TIP3    H272272   0.031   2.516   2.345 -0.5756  0.3137  1.3523
16953TIP3   OH272273   2.355   1.288  15.347 -0.0301 -0.1550 -0.4047
16953TIP3    H172274   2.334   1.195  15.342 -1.1986  0.0964 -0.5551
16953TIP3    H272275   2.419   1.303  15.277  0.4682 -0.9067 -0.1217
16954TIP3   OH272276   6.481   5.281  13.944 -0.5776  0.2876 -0.0267
16954TIP3    H172277   6.387   5.292  13.936 -0.6913 -0.9232 -0.5532
16954TIP3    H272278   6.503   5.212  13.882  0.2270 -1.4740  2.1041
16955TIP3   OH272279   4.281   6.706  10.826 -0.0088  0.3140 -0.2258
16955TIP3    H172280   4.356   6.744  10.873  1.2499 -1.5264 -0.6499
16955TIP3    H272281   4.282   6.751  10.741  0.5812  0.3719 -0.1978
16956TIP3   OH272282   3.685   3.943  16.397  0.4898 -0.0120 -0.0889
16956TIP3    H172283   3.610   3.961  16.340  0.3240  0.2081  0.1998
16956TIP3    H272284   3.760   3.979  16.349  0.4639 -0.5162 -0.5293
16957TIP3   OH272285   5.681   3.982  13.642  0.1597 -0.5578  0.4826
16957TIP3    H172286   5.702   4.018  13.728 -0.4826  1.0061  0.0339
16957TIP3    H272287   5.607   3.923  13.658  1.0453 -1.5058  1.2022
16958TIP3   OH272288   6.425   1.080  16.438 -0.3858 -0.0226  0.1435
16958TIP3    H172289   6.439   0.985  16.438  1.7602  0.1907 -2.2425
16958TIP3    H272290   6.481   1.112  16.509  1.0488 -0.3550 -0.7942
16959TIP3   OH272291   1.257   1.705  14.374  0.1368 -0.1875 -0.2889
16959TIP3    H172292   1.239   1.647  14.448 -0.1257  0.4287  0.1329
16959TIP3    H272293   1.310   1.776  14.411 -0.7655  0.6072 -0.4886
16960TIP3   OH272294   6.438   5.059  16.426  0.8267 -0.6103 -0.1256
16960TIP3    H172295   6.487   5.135  16.395  0.0047  0.3495  0.8348
16960TIP3    H272296   6.361   5.055  16.369  0.7017 -0.5164  0.0355
16961TIP3   OH272297   4.636   3.913   2.257  0.3907  0.0573  0.4032
16961TIP3    H172298   4.704   3.972   2.289 -1.3018  2.1233  0.4103
16961TIP3    H272299   4.638   3.922   2.162  0.3546 -0.1333  0.3837
16962TIP3   OH272300   1.877   2.671  15.903  0.0008  0.0355  0.4101
16962TIP3    H172301   1.841   2.754  15.875 -0.3476 -0.4265 -0.5467
16962TIP3    H272302   1.823   2.645  15.978  0.3496  0.8346  0.9475
16963TIP3   OH272303   0.557   6.278  17.139  0.0575 -0.5733  0.8547
16963TIP3    H172304   0.541   6.366  17.106  0.0204 -0.9962 -0.3026
16963TIP3    H272305   0.519   6.277  17.226 -2.5771 -0.3074 -0.1979
16964TIP3   OH272306   6.775   6.105  16.856  0.1207  0.2502  0.2971
16964TIP3    H172307   6.830   6.035  16.889  1.9019  1.5493  0.2014
16964TIP3    H272308   6.833   6.160  16.803 -1.5050  1.0797 -0.7395
16965TIP3   OH272309   1.071   4.669   3.197  0.4171 -0.3361  0.2063
16965TIP3    H172310   1.125   4.642   3.122 -1.5600 -0.2734 -1.3370
16965TIP3    H272311   1.124   4.648   3.274  2.1991 -1.1880 -1.1713
16966TIP3   OH272312   5.075   1.529   1.110  0.6633 -0.1382 -0.5307
16966TIP3    H172313   5.107   1.471   1.179 -0.4035  0.0374  0.1494
16966TIP3    H272314   4.983   1.504   1.099 -0.6283  2.9530  1.5605
16967TIP3   OH272315   6.666   0.676  12.430  0.2039 -0.0938  0.3503
16967TIP3    H172316   6.676   0.608  12.364 -0.8775 -1.0993  1.1857
16967TIP3    H272317   6.651   0.629  12.512  1.0581  1.1277  1.2476
16968TIP3   OH272318   4.468   0.667  12.815 -0.1637 -0.1122  0.4021
16968TIP3    H172319   4.396   0.628  12.766  0.3875  1.0183 -1.4049
16968TIP3    H272320   4.543   0.611  12.794 -0.0403  0.0576  0.3930
16969TIP3   OH272321   0.157   3.433   5.818  0.5442  0.2279 -0.3037
16969TIP3    H172322   0.154   3.521   5.855 -2.4810 -0.1285  0.5715
16969TIP3    H272323   0.155   3.375   5.894  2.0511 -0.6358 -0.8874
16970TIP3   OH272324   2.742   4.792  12.546  0.2620  0.4455 -0.3186
16970TIP3    H172325   2.805   4.748  12.603  0.0157 -0.7616 -0.9457
16970TIP3    H272326   2.784   4.874  12.522  0.7202  0.6030  0.9117
16971TIP3   OH272327   2.597   5.793   5.119  0.5742 -0.0934 -0.1194
16971TIP3    H172328   2.537   5.844   5.066  1.1695 -2.2146 -3.0986
16971TIP3    H272329   2.545   5.718   5.149  0.9477 -0.3000  0.0210
16972TIP3   OH272330   5.996   4.711   1.597  0.5004  0.3454 -0.4961
16972TIP3    H172331   5.994   4.807   1.598  0.5101  0.3500  1.0652
16972TIP3    H272332   5.909   4.684   1.626 -0.7024 -0.2115 -4.1688
16973TIP3   OH272333   3.578   2.916   4.419 -0.3621 -0.0204  0.0248
16973TIP3    H172334   3.646   2.981   4.401 -0.5056  0.0386 -0.3152
16973TIP3    H272335   3.496   2.962   4.403 -0.4728 -0.1924  0.0936
16974TIP3   OH272336   2.330   0.097  14.022  0.4802  0.1488  0.1024
16974TIP3    H172337   2.314   0.030  13.956  1.4664 -0.3527  0.3369
16974TIP3    H272338   2.263   0.163  14.007 -0.7322 -1.0356  0.0674
16975TIP3   OH272339   4.652   5.658  14.756  0.6539  0.1548  0.1255
16975TIP3    H172340   4.624   5.708  14.833 -0.6464  0.1789 -0.3358
16975TIP3    H272341   4.671   5.725  14.691 -1.4924  0.1009 -0.6294
16976TIP3   OH272342   4.962   0.547  11.742 -0.2827 -0.4079  0.7148
16976TIP3    H172343   4.934   0.620  11.687  0.5933 -0.2945  0.3935
16976TIP3    H272344   5.054   0.532  11.717 -0.2821 -1.2534  1.1721
16977TIP3   OH272345   2.323   2.910  14.159 -0.1210  0.3641 -0.1154
16977TIP3    H172346   2.396   2.956  14.119  1.5014 -1.6073  0.4533
16977TIP3    H272347   2.336   2.923  14.254  0.1541 -0.9327  0.0332
16978TIP3   OH272348   5.138   1.434   2.161  0.2184 -0.0958  0.6330
16978TIP3    H172349   5.057   1.484   2.149 -0.5529 -1.1676  1.2426
16978TIP3    H272350   5.197   1.470   2.095 -0.2722  1.6634  1.0831
16979TIP3   OH272351   5.115   2.209  15.992 -0.0643 -0.7615  0.2889
16979TIP3    H172352   5.097   2.151  15.919  2.2034 -2.1609  0.7414
16979TIP3    H272353   5.103   2.155  16.070  0.8910 -0.3065  0.7783
16980TIP3   OH272354   4.601   0.040  13.599  1.3100  0.1874  0.3841
16980TIP3    H172355   4.522  -0.014  13.600  0.6744  1.0807  0.8825
16980TIP3    H272356   4.602   0.082  13.686  0.5322  2.6951 -0.7276
16981TIP3   OH272357   2.353   2.686  12.785  0.3065 -0.2343  0.6230
16981TIP3    H172358   2.275   2.725  12.745  0.3338 -0.2800  0.5253
16981TIP3    H272359   2.327   2.671  12.876 -1.0037 -3.3364 -0.1283
16982TIP3   OH272360   4.672   2.203  14.683 -0.4149 -0.1960 -0.0259
16982TIP3    H172361   4.593   2.233  14.727  0.2770  1.2290  0.3109
16982TIP3    H272362   4.741   2.259  14.717  0.3733  0.0916 -1.9339
16983TIP3   OH272363   2.768   1.658   5.516  0.6336  0.2218 -0.2956
16983TIP3    H172364   2.698   1.719   5.492  0.8557  0.1925 -1.0333
16983TIP3    H272365   2.849   1.709   5.504  0.7091  1.1357  2.9968
16984TIP3   OH272366   1.334   5.814  10.655  0.0841 -0.4538  0.1637
16984TIP3    H172367   1.308   5.732  10.695 -2.2514  0.3124  0.3286
16984TIP3    H272368   1.383   5.788  10.577  2.3766 -1.9419  1.9627
16985TIP3   OH272369   5.626   4.507   0.386 -0.2106 -0.1545  0.1342
16985TIP3    H172370   5.688   4.509   0.459 -1.0404  1.1515  0.8390
16985TIP3    H272371   5.659   4.437   0.329  2.1674  0.8030  0.2227
16986TIP3   OH272372   5.175   0.378   4.488  0.2292 -0.0990 -0.5133
16986TIP3    H172373   5.119   0.432   4.543  0.6181 -0.5168  0.3138
16986TIP3    H272374   5.193   0.300   4.542  1.0681 -0.2617 -1.0157
16987TIP3   OH272375   5.582   1.407  13.231 -0.4701  0.1374  0.2511
16987TIP3    H172376   5.575   1.401  13.136  1.1575  1.9497 -0.0438
16987TIP3    H272377   5.492   1.397  13.263 -0.8828 -1.9959 -1.3204
16988TIP3   OH272378   3.534   4.473   2.790  0.3303  0.3259  1.0184
16988TIP3    H172379   3.544   4.555   2.742 -0.7302  1.2600  2.3047
16988TIP3    H272380   3.598   4.478   2.861  0.4036 -0.0649  0.9869
16989TIP3   OH272381   4.425   1.931   3.913  0.5747 -0.0995 -0.4818
16989TIP3    H172382   4.415   1.846   3.955  1.3085  1.3753  3.0689
16989TIP3    H272383   4.518   1.936   3.890  0.2567 -0.7367 -2.0319
16990TIP3   OH272384   0.346   3.488   1.061  0.1472  0.6011 -0.5442
16990TIP3    H172385   0.254   3.509   1.049  0.4159  2.4433  0.3417
16990TIP3    H272386   0.389   3.519   0.981 -0.2788 -2.7499 -2.2332
16991TIP3   OH272387   6.626   3.548  14.568 -0.0574 -0.0382  0.0119
16991TIP3    H172388   6.620   3.573  14.660 -1.1692  0.0803 -0.0870
16991TIP3    H272389   6.586   3.621  14.521  2.3983  0.9444 -0.7612
16992TIP3   OH272390   3.044   3.668   1.396  0.0968 -0.5653 -0.1328
16992TIP3    H172391   3.108   3.726   1.356 -1.6486  0.9337 -0.8762
16992TIP3    H272392   3.012   3.614   1.323 -0.9264  0.1079 -0.2031
16993TIP3   OH272393   4.237   4.131   2.000  0.7673  0.0819 -0.7402
16993TIP3    H172394   4.299   4.183   2.051  0.7743 -0.0453 -0.6155
16993TIP3    H272395   4.291   4.084   1.937  0.6816  0.7863 -1.3410
16994TIP3   OH272396   6.083   2.210  11.762 -0.0861  0.0125 -0.2198
16994TIP3    H172397   6.047   2.241  11.679 -0.9230  1.1091  0.5227
16994TIP3    H272398   6.148   2.276  11.786  1.1673 -1.0188 -0.6541
16995TIP3   OH272399   0.155   4.566   1.904  0.2590 -0.2544 -1.1408
16995TIP3    H172400   0.161   4.646   1.852  1.6350 -1.1057 -2.3904
16995TIP3    H272401   0.244   4.531   1.904  0.4310 -0.0813  2.2538
16996TIP3   OH272402   5.034   1.804   2.984 -0.0258  0.0795 -0.2999
16996TIP3    H172403   5.112   1.774   2.938 -1.4984  0.7009 -3.4644
16996TIP3    H272404   4.973   1.731   2.977  0.0920 -0.2973  1.9157
16997TIP3   OH272405   3.724   6.786   4.882 -0.3140 -0.4905  0.3193
16997TIP3    H172406   3.792   6.795   4.948  1.0045  0.6536 -1.1227
16997TIP3    H272407   3.642   6.799   4.930  0.5625 -0.1045  1.7867
16998TIP3   OH272408   6.252   4.855   6.405  0.2299 -0.0236 -0.4271
16998TIP3    H172409   6.219   4.942   6.425  0.9021  0.2538 -0.5184
16998TIP3    H272410   6.194   4.822   6.337 -1.2261 -0.4195  0.9431
16999TIP3   OH272411   0.939   3.277   2.149 -0.6839 -0.2965  0.0079
16999TIP3    H172412   0.942   3.299   2.056  0.5403  0.4144  0.1855
16999TIP3    H272413   0.904   3.188   2.152  1.6905 -1.3867 -1.3758
17000TIP3   OH272414   2.389   4.510  13.440  0.0069 -0.0488  0.2439
17000TIP3    H172415   2.446   4.569  13.490 -0.8905  0.3736  0.7826
17000TIP3    H272416   2.448   4.442  13.407  0.9188  0.6920  0.3106
17001TIP3   OH272417   0.032   3.608  16.526  0.1404  0.3038 -0.1820
17001TIP3    H172418  -0.059   3.614  16.495  0.6096 -0.5139 -1.8830
17001TIP3    H272419   0.067   3.696  16.514 -0.0927  0.3304 -0.7283
17002TIP3   OH272420   0.946   2.179   1.416  0.1953 -0.1444 -0.4415
17002TIP3    H172421   0.882   2.114   1.446 -1.5012  1.2644 -0.7873
17002TIP3    H272422   0.900   2.228   1.347  2.2325 -0.0634 -1.8286
17003TIP3   OH272423   1.141   2.819  16.015  0.6322 -0.8533 -0.6404
17003TIP3    H172424   1.085   2.741  16.018 -0.1159 -0.3105  0.0085
17003TIP3    H272425   1.137   2.848  15.924 -1.0200 -0.2222 -0.3969
17004TIP3   OH272426   1.480   3.245  11.747  0.0027  0.0777 -0.6064
17004TIP3    H172427   1.387   3.246  11.771  0.2820 -1.0114  0.6323
17004TIP3    H272428   1.499   3.153  11.727  1.6409 -0.4622  2.7934
17005TIP3   OH272429   2.284   2.305   0.654  0.5250  0.1065 -0.1316
17005TIP3    H172430   2.190   2.321   0.662  0.5435 -0.1281  0.6424
17005TIP3    H272431   2.315   2.375   0.596 -0.1874 -0.0584 -0.7300
17006TIP3   OH272432   6.120   1.862   5.704  0.4179  0.0709 -0.4596
17006TIP3    H172433   6.047   1.915   5.737  0.1953 -1.3853  1.5465
17006TIP3    H272434   6.079   1.788   5.661  0.6838 -0.7671  0.6962
17007TIP3   OH272435   0.059   2.546  13.170  0.1230 -0.1675 -0.2668
17007TIP3    H172436   0.094   2.477  13.115  0.3216  0.1035 -0.4847
17007TIP3    H272437  -0.031   2.519  13.189  0.1709 -0.4355 -0.4265
17008TIP3   OH272438   4.555   6.689  16.359 -0.0480  0.2018  0.0728
17008TIP3    H172439   4.548   6.740  16.440 -0.9180 -1.1622  0.9030
17008TIP3    H272440   4.625   6.626  16.377  1.0025  1.0590 -0.9317
17009TIP3   OH272441   5.026   5.299  13.355 -0.1513  0.2976 -0.2396
17009TIP3    H172442   4.950   5.243  13.337 -1.6325  1.6320  1.5377
17009TIP3    H272443   5.078   5.250  13.419 -1.7447  1.0997  1.7633
17010TIP3   OH272444   5.089   2.084   0.176 -0.0927  0.1642 -0.3168
17010TIP3    H172445   5.057   2.004   0.218 -1.9994  1.4956  0.9601
17010TIP3    H272446   5.158   2.054   0.117  0.0452 -2.2684  0.9365
17011TIP3   OH272447   0.044   4.893   2.175  0.6208 -0.1710  0.5307
17011TIP3    H172448   0.103   4.947   2.121  0.7379  0.1077  0.9339
17011TIP3    H272449  -0.034   4.883   2.121  1.7316 -2.1875 -0.8486
17012TIP3   OH272450   3.183   2.820  16.012 -0.0759  0.1547  0.1188
17012TIP3    H172451   3.098   2.780  16.032 -0.0823  0.4202  0.6269
17012TIP3    H272452   3.247   2.758  16.047 -0.0956  1.3964  2.5722
17013TIP3   OH272453   6.556   0.210   5.302  0.1252 -0.3298  0.0027
17013TIP3    H172454   6.498   0.242   5.233  1.3217 -1.4097 -1.5484
17013TIP3    H272455   6.570   0.118   5.282  0.5162 -0.6836  1.6998
17014TIP3   OH272456   5.455   3.558   0.792 -0.0992  0.0836 -0.9864
17014TIP3    H172457   5.365   3.561   0.758 -0.7262  2.1797  0.6775
17014TIP3    H272458   5.449   3.501   0.869 -0.5414  1.9856  0.4359
17015TIP3   OH272459   3.940   1.767  13.997 -0.8378 -0.2274 -0.1349
17015TIP3    H172460   3.951   1.816  14.078 -1.2983  0.1729 -0.3127
17015TIP3    H272461   3.882   1.821  13.943  0.5208  0.1634 -1.2696
17016TIP3   OH272462   0.890   5.900  15.157 -0.1788  0.3869  0.2282
17016TIP3    H172463   0.822   5.859  15.103 -0.7655  2.2997 -0.5841
17016TIP3    H272464   0.913   5.833  15.222 -2.4441 -0.5356  0.1850
17017TIP3   OH272465   0.920   5.239  13.822  0.2777  0.1006 -0.1639
17017TIP3    H172466   0.896   5.261  13.912 -1.3331 -1.1900 -0.2435
17017TIP3    H272467   0.986   5.170  13.830  1.8268  1.5253  0.0062
17018TIP3   OH272468   1.380   2.224  14.888 -0.6082 -0.0924 -1.1137
17018TIP3    H172469   1.381   2.130  14.906 -0.2939  0.3669  1.7470
17018TIP3    H272470   1.459   2.239  14.836  0.5919 -1.1222  0.3401
17019TIP3   OH272471   1.665   6.790   4.785  0.1609 -0.1134  0.2303
17019TIP3    H172472   1.712   6.830   4.711  2.9496 -1.4913  1.1171
17019TIP3    H272473   1.663   6.697   4.764  0.6528 -0.4732  1.7160
17020TIP3   OH272474   2.489   1.959  15.427  0.0406 -0.0330 -0.3476
17020TIP3    H172475   2.511   1.867  15.442 -0.8291 -0.6538 -2.4877
17020TIP3    H272476   2.557   1.991  15.367  0.2973  0.7180  0.3205
17021TIP3   OH272477   0.021   5.452   0.307 -0.1670  0.2554 -0.2191
17021TIP3    H172478   0.001   5.362   0.332  0.5441  0.1384 -0.0593
17021TIP3    H272479   0.115   5.452   0.291 -0.0270  1.1457  0.5284
17022TIP3   OH272480   5.808   4.534   0.644 -0.0019 -0.2254  0.4858
17022TIP3    H172481   5.750   4.462   0.670 -0.1300 -0.5500 -0.6348
17022TIP3    H272482   5.893   4.511   0.681  0.4279 -1.9492 -1.3504
17023TIP3   OH272483   4.836   3.038   1.303 -0.4957 -0.2791  0.3703
17023TIP3    H172484   4.925   3.004   1.298  0.1571  1.3470  0.4955
17023TIP3    H272485   4.838   3.098   1.378 -1.1771  1.2212 -0.7843
17024TIP3   OH272486   3.109   5.282  11.734 -0.2479  0.0321  0.3185
17024TIP3    H172487   3.049   5.208  11.732 -1.7978  1.2546 -1.1376
17024TIP3    H272488   3.053   5.359  11.746  0.5833  1.5103 -3.7865
17025TIP3   OH272489   4.947   5.501  12.864  0.5276 -0.2527 -0.4272
17025TIP3    H172490   4.865   5.500  12.913  1.3818 -0.1815  1.0809
17025TIP3    H272491   4.934   5.438  12.793 -0.2055 -1.6182  0.8718
17026TIP3   OH272492   6.123   6.425  10.851  0.2203  0.1957 -0.5081
17026TIP3    H172493   6.186   6.494  10.830 -0.4388  0.4022 -1.9150
17026TIP3    H272494   6.081   6.404  10.768 -2.6040  1.1021  0.5675
17027TIP3   OH272495   4.412   1.007   4.835  0.2991 -0.2227 -0.6884
17027TIP3    H172496   4.379   1.067   4.901  0.3011 -0.0748 -0.8219
17027TIP3    H272497   4.337   0.991   4.778  1.0671  2.1374 -2.5190
17028TIP3   OH272498   3.319   4.538  14.859  0.0217  0.6728 -0.2498
17028TIP3    H172499   3.277   4.559  14.942  1.4067 -0.8254  0.8967
17028TIP3    H272500   3.261   4.472  14.819  0.2355  0.1033  0.3665
17029TIP3   OH272501   2.524   1.380  16.215 -0.1694 -0.1679  0.0523
17029TIP3    H172502   2.453   1.374  16.151 -0.3274  2.7734 -0.1547
17029TIP3    H272503   2.577   1.302  16.199 -1.9509 -1.1441 -1.4710
17030TIP3   OH272504   2.083   1.634   3.719  0.3092  0.3364 -0.5155
17030TIP3    H172505   2.122   1.573   3.657  1.3591  1.2324 -0.7646
17030TIP3    H272506   2.121   1.608   3.804 -0.4370 -0.3177 -0.3684
17031TIP3   OH272507   4.332   6.454   1.437 -0.6020 -0.3843 -0.0415
17031TIP3    H172508   4.297   6.455   1.348 -0.7375 -0.7769  0.0049
17031TIP3    H272509   4.364   6.364   1.449 -1.4918 -0.6291  0.6529
17032TIP3   OH272510   5.568   2.148   3.785  0.1503 -0.0786  0.0685
17032TIP3    H172511   5.503   2.163   3.716  2.0656  0.3064 -1.7608
17032TIP3    H272512   5.519   2.103   3.855 -2.2536  1.0107 -0.8012
17033TIP3   OH272513   2.619   2.207   1.732  0.3268 -0.1614  0.0125
17033TIP3    H172514   2.663   2.127   1.703 -0.1964 -0.7068  0.6861
17033TIP3    H272515   2.572   2.239   1.655  0.2845 -0.6822 -0.1801
17034TIP3   OH272516   4.714   3.988   4.924  0.1380 -0.1898  0.1429
17034TIP3    H172517   4.737   3.985   4.831  0.0558  0.9509  0.0812
17034TIP3    H272518   4.761   3.914   4.962  2.6295  1.0937 -0.2740
17035TIP3   OH272519   6.579   3.726   4.877 -0.1106 -0.2064 -0.1085
17035TIP3    H172520   6.550   3.636   4.864  1.1297 -0.8885  1.4353
17035TIP3    H272521   6.500   3.775   4.899 -0.3370 -1.9430  3.7989
17036TIP3   OH272522   2.196   6.724  16.568  0.2953  0.2285 -0.3085
17036TIP3    H172523   2.287   6.711  16.594 -0.1484 -0.9225  0.7678
17036TIP3    H272524   2.200   6.791  16.500  1.9802 -0.0915 -0.5720
17037TIP3   OH272525   5.791   0.897  13.898  0.2137 -0.0944 -0.8219
17037TIP3    H172526   5.838   0.840  13.959 -0.1244  0.7655  0.2663
17037TIP3    H272527   5.727   0.943  13.952 -0.8471 -0.1081 -2.0215
17038TIP3   OH272528   5.465   6.163   4.213 -0.2464 -0.0015 -0.4834
17038TIP3    H172529   5.460   6.256   4.192 -1.1002 -0.2961 -1.6821
17038TIP3    H272530   5.394   6.148   4.276  0.8972  0.4364  0.9817
17039TIP3   OH272531   4.379   5.752   4.230 -0.5968  0.0171 -0.0445
17039TIP3    H172532   4.291   5.754   4.267  0.0233 -0.2164  1.5283
17039TIP3    H272533   4.437   5.759   4.306  0.7809 -2.1702 -0.7904
17040TIP3   OH272534   5.126   4.226   1.876 -0.3173 -0.3012 -0.0333
17040TIP3    H172535   5.062   4.297   1.865 -1.2720 -1.0671  0.3945
17040TIP3    H272536   5.082   4.164   1.933  1.2785 -0.3221  1.2193
17041TIP3   OH272537   5.863   6.027  15.759  0.1409 -0.0482 -0.4468
17041TIP3    H172538   5.916   6.030  15.680 -1.8662 -1.0898 -1.9155
17041TIP3    H272539   5.776   6.002  15.729 -1.3385  1.9606  1.7941
17042TIP3   OH272540   3.376   2.782   2.475  0.4055 -0.1315 -0.8981
17042TIP3    H172541   3.298   2.728   2.464  0.4642 -0.4660  0.2039
17042TIP3    H272542   3.431   2.733   2.536  0.5102  1.0931  0.0405
17043TIP3   OH272543   2.081   1.676  16.844 -0.2708 -0.1790  0.6088
17043TIP3    H172544   2.161   1.683  16.790 -1.3781  1.1205 -0.9855
17043TIP3    H272545   2.031   1.606  16.803 -0.5008 -0.1342  0.8157
17044TIP3   OH272546   1.253   3.365  15.705 -0.2554  0.3758  0.5532
17044TIP3    H172547   1.183   3.428  15.688 -1.0873 -0.3480  1.2006
17044TIP3    H272548   1.274   3.329  15.619 -0.9295  0.3511  0.3917
17045TIP3   OH272549   5.377   3.450   5.507 -0.4490  0.1134 -0.6466
17045TIP3    H172550   5.361   3.466   5.414  2.6522 -0.8513 -1.4816
17045TIP3    H272551   5.300   3.486   5.551 -1.5063  1.6775 -3.4697
17046TIP3   OH272552   0.209   5.908  11.335 -0.0286  0.3189  0.4071
17046TIP3    H172553   0.255   5.936  11.415  1.7170 -0.2178 -0.3541
17046TIP3    H272554   0.121   5.944  11.344  0.6735  1.8431  1.7307
17047TIP3   OH272555   5.590   6.405  12.487  0.5125  0.7315  0.3753
17047TIP3    H172556   5.518   6.467  12.478 -0.2051 -0.1132  0.0908
17047TIP3    H272557   5.599   6.366  12.400  0.1540 -0.3873  0.8183
17048TIP3   OH272558   1.027   4.245   4.327 -0.3726 -0.6021 -0.4264
17048TIP3    H172559   1.053   4.173   4.384  0.0521  0.4824  0.8124
17048TIP3    H272560   1.018   4.206   4.240 -0.3206 -2.1591  0.2398
17049TIP3   OH272561   0.673   1.690   2.509  0.2696  0.1652  0.1525
17049TIP3    H172562   0.692   1.694   2.603  1.0612  0.5880 -0.0155
17049TIP3    H272563   0.581   1.715   2.502  0.2622  0.3365  0.7974
17050TIP3   OH272564   1.537   1.297  13.027 -0.3279 -0.2601  0.0178
17050TIP3    H172565   1.471   1.366  13.019  1.8121  2.1027  1.2764
17050TIP3    H272566   1.549   1.286  13.121  1.6447  0.0228 -0.1657
17051TIP3   OH272567   1.538   0.387   5.294  0.2897 -0.0006 -0.0875
17051TIP3    H172568   1.607   0.355   5.235  0.2508  0.0825 -0.1760
17051TIP3    H272569   1.471   0.319   5.291  1.0527 -0.8865  1.2162
17052TIP3   OH272570   0.999   2.300   2.477  0.3553 -0.0301 -0.1720
17052TIP3    H172571   0.920   2.332   2.520  1.9085  2.0498  1.3176
17052TIP3    H272572   1.028   2.373   2.422  2.4230  0.1356  1.0313
17053TIP3   OH272573   4.722   1.759  14.159 -0.3349  0.1941 -0.4425
17053TIP3    H172574   4.671   1.789  14.083 -0.5263 -0.5013 -0.5992
17053TIP3    H272575   4.783   1.695  14.122 -1.2242 -1.0277  0.1602
17054TIP3   OH272576   5.088   2.417   2.773  0.4718  0.5038  0.3091
17054TIP3    H172577   4.999   2.451   2.771 -0.2620 -1.3103  0.0544
17054TIP3    H272578   5.138   2.482   2.823 -0.7820  1.9793 -0.2844
17055TIP3   OH272579   5.734   5.738  11.566  0.2484  0.7370  0.1699
17055TIP3    H172580   5.794   5.664  11.571  0.5715  0.8411 -1.4799
17055TIP3    H272581   5.767   5.791  11.493 -1.7248  0.8865 -0.6758
17056TIP3   OH272582   2.975   0.039  15.741 -0.4552  0.7029  0.5625
17056TIP3    H172583   3.066   0.069  15.737  0.0050 -0.5705  0.7581
17056TIP3    H272584   2.982  -0.056  15.734 -1.8567  0.6498 -0.4082
17057TIP3   OH272585   2.978   4.193  13.190 -0.4195 -0.8524 -0.1707
17057TIP3    H172586   2.932   4.125  13.140  1.0877 -0.6149 -1.9695
17057TIP3    H272587   3.057   4.149  13.221  0.0622 -0.1923 -0.4676
17058TIP3   OH272588   1.605   5.019  13.624 -0.4030  0.1119 -0.5438
17058TIP3    H172589   1.615   5.107  13.589 -0.8255 -0.1842 -1.4650
17058TIP3    H272590   1.693   4.995  13.655 -0.6520  1.4763  1.3029
17059TIP3   OH272591   1.336   2.160  13.571 -0.0436 -0.5212 -0.2677
17059TIP3    H172592   1.312   2.106  13.496  1.2125  0.2232 -1.2366
17059TIP3    H272593   1.415   2.206  13.544  0.0301  0.3232  1.2523
17060TIP3   OH272594   2.410   1.520   0.202  0.1014  0.2794  0.0565
17060TIP3    H172595   2.353   1.481   0.135  0.7286  1.5882 -1.2910
17060TIP3    H272596   2.351   1.573   0.256 -0.6616 -1.9321  1.5491
17061TIP3   OH272597   5.153   2.585  12.178 -0.2558  0.5217 -0.1677
17061TIP3    H172598   5.083   2.632  12.133 -0.0427  0.8612 -0.1466
17061TIP3    H272599   5.230   2.642  12.169  0.0663  0.0634 -0.3581
17062TIP3   OH272600   0.176   5.631  15.690 -0.7762 -0.4380 -0.0667
17062TIP3    H172601   0.203   5.626  15.598 -0.5691  0.4661 -0.0622
17062TIP3    H272602   0.256   5.618  15.740 -0.2697  2.1945 -0.0542
17063TIP3   OH272603   0.329   4.617  14.031  0.1738 -0.1482  0.1137
17063TIP3    H172604   0.235   4.601  14.042  0.3816 -1.1933  0.4357
17063TIP3    H272605   0.336   4.650  13.941 -0.6288  1.1317  0.4895
17064TIP3   OH272606   0.727   4.338  16.020 -0.0406 -0.2596  0.1159
17064TIP3    H172607   0.705   4.414  16.073  2.0487 -0.7008  1.7379
17064TIP3    H272608   0.762   4.375  15.939  0.0235  0.4809  0.4715
17065TIP3   OH272609   4.357   1.570  15.861 -0.1332 -0.0027 -0.1654
17065TIP3    H172610   4.452   1.582  15.851 -0.2790  1.4001 -0.0512
17065TIP3    H272611   4.331   1.523  15.782  0.3228  1.7201 -1.4175
17066TIP3   OH272612   0.621   0.813  15.312  0.0764  0.7081  0.5537
17066TIP3    H172613   0.541   0.760  15.312 -0.1669  1.0793  0.3525
17066TIP3    H272614   0.676   0.772  15.379 -0.3460  0.5517  0.8082
17067TIP3   OH272615   5.743   3.282  16.837  0.0798  0.2064  0.7357
17067TIP3    H172616   5.802   3.207  16.841  2.1861  1.5552 -1.9536
17067TIP3    H272617   5.790   3.352  16.882  0.1310  1.0496 -0.5810
17068TIP3   OH272618   5.347   5.326   2.978 -0.0371 -0.5396 -0.2590
17068TIP3    H172619   5.304   5.247   2.944  1.8036 -1.4564 -0.5985
17068TIP3    H272620   5.321   5.395   2.917 -1.0599 -1.0431 -0.4136
17069TIP3   OH272621   0.397   0.145   4.598  0.0735 -0.3727 -0.3864
17069TIP3    H172622   0.357   0.229   4.617  1.1639  0.2978 -0.9581
17069TIP3    H272623   0.420   0.150   4.505  1.9076 -0.5201  0.0223
17070TIP3   OH272624   6.728   0.543   2.486  0.8889  0.2188  0.0113
17070TIP3    H172625   6.709   0.495   2.406  2.4324 -0.3442 -0.0525
17070TIP3    H272626   6.798   0.603   2.462 -0.1384  1.6367  0.4143
17071TIP3   OH272627   6.140   2.225  10.593  0.0406  0.0225  0.2502
17071TIP3    H172628   6.224   2.270  10.600  0.0858 -0.1442  0.8294
17071TIP3    H272629   6.162   2.132  10.596 -0.1946 -0.0180  0.8293
17072TIP3   OH272630   1.323   5.666   1.298 -0.4813  0.2151  0.5709
17072TIP3    H172631   1.414   5.636   1.298 -0.3883  0.3549 -1.3727
17072TIP3    H272632   1.285   5.628   1.377  1.2432  0.1255  1.4176
17073TIP3   OH272633   1.162   2.586  16.718 -0.3143 -0.2258 -0.4525
17073TIP3    H172634   1.251   2.587  16.684  0.1260 -0.5640  0.6646
17073TIP3    H272635   1.154   2.502  16.763 -0.5530  0.5919  1.0923
17074TIP3   OH272636   6.316   6.013  11.951 -0.0348  0.3773  0.6649
17074TIP3    H172637   6.379   6.014  12.023  0.9000  1.2209 -0.1284
17074TIP3    H272638   6.342   6.087  11.895  0.2171 -1.1182 -1.3328
17075TIP3   OH272639   5.289   3.224   5.112  0.1109  0.2186 -0.0748
17075TIP3    H172640   5.271   3.208   5.019  0.2540  1.1802 -0.2807
17075TIP3    H272641   5.215   3.277   5.142  0.6738  0.9698  0.0318
17076TIP3   OH272642   3.511   5.338   3.628 -0.1099 -0.5137  1.0198
17076TIP3    H172643   3.470   5.366   3.709  0.5976  0.2505  1.1231
17076TIP3    H272644   3.579   5.277   3.656  0.0721 -0.3221  0.9977
17077TIP3   OH272645   3.481   4.125  12.099 -0.3218  0.2395 -0.4854
17077TIP3    H172646   3.386   4.123  12.112  0.0080 -1.3953  3.1457
17077TIP3    H272647   3.507   4.033  12.103  1.4502  0.6776 -1.0649
17078TIP3   OH272648   3.264   1.530  15.250 -0.0225 -0.3395 -0.2341
17078TIP3    H172649   3.311   1.614  15.250  2.2391 -1.5094  1.0932
17078TIP3    H272650   3.230   1.521  15.161  3.3120  0.0752 -1.6697
17079TIP3   OH272651   0.366   0.044  13.420 -0.3367 -0.0517 -0.7303
17079TIP3    H172652   0.379   0.093  13.339 -1.3950 -0.1253 -0.9605
17079TIP3    H272653   0.288  -0.009  13.403 -1.6225  1.2035  0.9129
17080TIP3   OH272654   4.246   1.505  11.534 -0.2849  0.4470 -0.3562
17080TIP3    H172655   4.281   1.592  11.515  0.0094  0.2430 -0.7510
17080TIP3    H272656   4.313   1.462  11.587 -0.5086  0.5233 -0.0074
17081TIP3   OH272657   0.867   5.991   1.726  0.5121 -0.2821  0.2505
17081TIP3    H172658   0.779   5.991   1.689  0.1814 -2.7717  0.8241
17081TIP3    H272659   0.857   6.027   1.814  0.2732  0.3621 -0.0327
17082TIP3   OH272660   3.476   3.216   5.883  0.4559 -0.5902 -0.2900
17082TIP3    H172661   3.486   3.141   5.942  0.7510 -0.4370 -0.1410
17082TIP3    H272662   3.541   3.200   5.814  1.6996  0.3425  0.6082
17083TIP3   OH272663   1.258   2.348  12.964  1.1492  0.3586 -0.0371
17083TIP3    H172664   1.293   2.408  13.030  1.8566  0.9720 -0.9603
17083TIP3    H272665   1.273   2.391  12.880 -1.5544  0.5234 -0.5308
17084TIP3   OH272666   3.606   3.212   1.453  0.0959  0.1609  0.0937
17084TIP3    H172667   3.650   3.268   1.516  2.8014  0.2236 -1.7004
17084TIP3    H272668   3.660   3.133   1.448 -0.3376 -0.0760 -1.6959
17085TIP3   OH272669   5.957   4.728  16.631 -0.2099 -0.2526 -0.0539
17085TIP3    H172670   5.875   4.777  16.619 -0.1258 -0.0257  0.2721
17085TIP3    H272671   5.948   4.651  16.575  0.2277  0.8339 -1.6939
17086TIP3   OH272672   3.726   0.783  10.642  0.3203 -0.1013 -0.5265
17086TIP3    H172673   3.796   0.815  10.586  0.2137  0.2314 -0.4747
17086TIP3    H272674   3.754   0.806  10.731 -0.4207  1.1594 -0.5954
17087TIP3   OH272675   5.001   0.771  11.628  0.0585 -0.0322 -0.5263
17087TIP3    H172676   4.994   0.857  11.668  0.6342 -0.3434  0.2661
17087TIP3    H272677   5.089   0.769  11.590 -0.4455  0.2264 -1.7564
17088TIP3   OH272678   4.543   1.820  11.844 -0.1469  0.2920  0.4805
17088TIP3    H172679   4.585   1.906  11.838  0.0983  0.2182  1.0333
17088TIP3    H272680   4.451   1.837  11.826  0.0908  0.4747 -0.6169
17089TIP3   OH272681   4.485   5.170  16.703  0.3020  0.2889 -0.4034
17089TIP3    H172682   4.394   5.200  16.711  0.8106  1.5732  1.2141
17089TIP3    H272683   4.511   5.199  16.615 -0.5016  0.9354 -0.4479
17090TIP3   OH272684   6.142   4.292  13.109 -0.6475  0.3841 -0.4042
17090TIP3    H172685   6.145   4.314  13.016  0.2333 -0.0234 -0.4822
17090TIP3    H272686   6.088   4.213  13.114 -0.3716  0.1839 -0.6121
17091TIP3   OH272687   3.514   3.149  13.341  0.1530  0.6329  0.1850
17091TIP3    H172688   3.531   3.107  13.256 -1.3724  1.0131 -0.3569
17091TIP3    H272689   3.463   3.084  13.389  0.0243  0.8568  0.3523
17092TIP3   OH272690   4.361   5.204  17.209 -0.7011 -0.3930 -0.5552
17092TIP3    H172691   4.302   5.277  17.192 -0.1575 -0.1557 -1.5032
17092TIP3    H272692   4.378   5.208  17.304 -0.1894  1.0942 -0.6885
17093TIP3   OH272693   0.865   3.606  14.200 -0.3977 -0.0793  0.0244
17093TIP3    H172694   0.889   3.563  14.118  2.1716  0.9939  0.1096
17093TIP3    H272695   0.945   3.651  14.227 -1.7914  1.3412  2.0438
17094TIP3   OH272696   3.959   4.643   2.592  0.3502 -0.2945 -0.2823
17094TIP3    H172697   3.914   4.611   2.513 -0.6371 -0.8224  0.4728
17094TIP3    H272698   3.942   4.576   2.658  2.2282 -0.4699  0.0620
17095TIP3   OH272699   2.290   5.125  12.845  0.3832  0.3396 -0.6097
17095TIP3    H172700   2.268   5.080  12.927  1.7226  1.2787  0.2864
17095TIP3    H272701   2.325   5.056  12.788 -0.4819 -0.2994 -0.3945
17096TIP3   OH272702   1.081   5.154  11.795 -0.5445 -0.0472 -0.5563
17096TIP3    H172703   0.995   5.114  11.805 -0.5987  0.4421  1.3480
17096TIP3    H272704   1.136   5.110  11.860 -0.3876  2.2645  0.9878
17097TIP3   OH272705   0.177   6.498  12.728 -0.5735 -0.1380 -0.2265
17097TIP3    H172706   0.201   6.556  12.656  0.1839 -0.8965 -0.6135
17097TIP3    H272707   0.187   6.410  12.691 -0.3289 -0.5391  0.7616
17098TIP3   OH272708   2.561   4.494   5.124 -0.0248 -0.1726 -0.1066
17098TIP3    H172709   2.534   4.522   5.037 -1.2450  1.5842  0.7888
17098TIP3    H272710   2.499   4.424   5.147  0.5354 -0.9031 -0.7670
17099TIP3   OH272711   0.411   5.969  11.869 -0.2435 -0.4505  0.2498
17099TIP3    H172712   0.422   5.968  11.774  2.2958 -0.3194  0.4548
17099TIP3    H272713   0.490   6.013  11.901 -0.1189 -2.1216  2.5030
17100TIP3   OH272714   5.183   2.975  15.311  0.2124 -0.1927 -0.0395
17100TIP3    H172715   5.207   2.920  15.386 -0.5983 -0.7746 -0.1869
17100TIP3    H272716   5.159   2.913  15.242  0.6002  0.3391 -0.6662
17101TIP3   OH272717   1.094   4.799   2.275  0.3528 -0.4938 -0.2361
17101TIP3    H172718   1.077   4.838   2.360  2.3953 -0.2243  0.1070
17101TIP3    H272719   1.182   4.828   2.253 -1.2409  2.2441 -4.0354
17102TIP3   OH272720   6.647   1.856  11.015  0.4853 -0.0716  0.3757
17102TIP3    H172721   6.573   1.800  11.034  0.4576  0.1276  0.8490
17102TIP3    H272722   6.640   1.875  10.921  1.6270 -2.5056 -0.2736
17103TIP3   OH272723   6.686   1.365  10.710 -0.3482 -0.6704 -0.0923
17103TIP3    H172724   6.594   1.355  10.684  0.1290 -2.0115 -1.4511
17103TIP3    H272725   6.704   1.458  10.699 -1.7097 -0.2487  0.8877
17104TIP3   OH272726   4.554   2.319   5.214 -0.2102  0.0559  0.2235
17104TIP3    H172727   4.461   2.305   5.229  0.3962 -2.9806  1.7839
17104TIP3    H272728   4.581   2.381   5.281 -0.5015 -1.7733  2.1194
17105TIP3   OH272729   5.339   2.964   2.541  0.1442  0.0386  0.3333
17105TIP3    H172730   5.270   3.003   2.487 -0.2057 -0.7924  0.1486
17105TIP3    H272731   5.398   2.924   2.477  0.3829  0.0940  0.5226
17106TIP3   OH272732   1.542   1.415  12.616 -0.4781  0.4110  0.5061
17106TIP3    H172733   1.611   1.428  12.551 -0.8237  2.4329  0.5064
17106TIP3    H272734   1.577   1.449  12.697 -0.3472 -1.3989  1.2528
17107TIP3   OH272735   0.232   4.916  16.067 -0.3142 -0.1414  0.5119
17107TIP3    H172736   0.152   4.868  16.044 -0.1253 -0.8302  1.2277
17107TIP3    H272737   0.288   4.907  15.990 -1.7513  2.2914 -0.9349
17108TIP3   OH272738   3.454   6.021   1.987  0.2704 -0.1182  0.6793
17108TIP3    H172739   3.360   6.034   1.999  0.2357  0.5242 -0.1884
17108TIP3    H272740   3.492   6.107   2.006  0.4775  0.1576 -0.8590
17109TIP3   OH272741   5.881   1.730  11.070  0.0155 -0.1887  0.3527
17109TIP3    H172742   5.957   1.787  11.055 -0.2139  0.1798  0.5707
17109TIP3    H272743   5.884   1.711  11.164 -1.2061  1.3521  0.7422
17110TIP3   OH272744   4.862   2.012  12.967  0.8184  0.1051  0.2141
17110TIP3    H172745   4.799   1.940  12.974  1.7688 -0.7129  0.6824
17110TIP3    H272746   4.866   2.031  12.874  1.1736 -1.0459 -0.0232
17111TIP3   OH272747   2.715   0.720   4.590 -0.1116  0.0607  0.1364
17111TIP3    H172748   2.690   0.758   4.674 -0.0263  1.1240 -0.3132
17111TIP3    H272749   2.686   0.629   4.596  0.8322 -0.1677  1.7168
17112TIP3   OH272750   5.045   4.902   2.261 -0.4928  0.3274 -0.2976
17112TIP3    H172751   4.979   4.964   2.292 -1.8151 -1.2762  0.2306
17112TIP3    H272752   5.004   4.816   2.272  1.9320 -0.8020  0.7125
17113TIP3   OH272753   2.184   4.221  11.353  0.4469 -0.0964  0.0119
17113TIP3    H172754   2.261   4.240  11.407  1.9378 -1.0738 -1.6609
17113TIP3    H272755   2.176   4.126  11.355 -1.2589  0.0345  0.8225
17114TIP3   OH272756   1.506   5.443   5.338 -0.3239  0.7879 -0.1596
17114TIP3    H172757   1.556   5.364   5.317 -2.2588 -0.8582  1.0173
17114TIP3    H272758   1.526   5.460   5.430  0.2200  1.8063 -0.4560
17115TIP3   OH272759   3.546   3.677   6.756  0.7303 -0.2503  0.5973
17115TIP3    H172760   3.503   3.647   6.837  2.2573 -0.4619  1.3739
17115TIP3    H272761   3.603   3.605   6.732  0.6448  0.0143 -0.4202
17116TIP3   OH272762   6.691   5.388   0.651 -0.2433  0.0151  0.0076
17116TIP3    H172763   6.640   5.466   0.671  1.8605  1.1806  1.1378
17116TIP3    H272764   6.735   5.366   0.733 -1.8851 -3.3212  0.1761
17117TIP3   OH272765   6.426   5.259  14.973  0.5057 -0.0376  0.5001
17117TIP3    H172766   6.389   5.206  15.044  0.8876  2.3310  2.6280
17117TIP3    H272767   6.360   5.256  14.904  0.3116 -2.8064  0.6813
17118TIP3   OH272768   4.461   3.566  16.896 -0.2669  0.0333 -0.2049
17118TIP3    H172769   4.409   3.566  16.976 -1.2418  2.6566 -0.7559
17118TIP3    H272770   4.533   3.626  16.914  1.8572 -2.4110  0.0144
17119TIP3   OH272771   1.118   0.828   3.624 -0.0973  0.5305 -0.1215
17119TIP3    H172772   1.155   0.743   3.648  1.6721  1.1716 -0.4039
17119TIP3    H272773   1.023   0.815   3.629  0.1319 -0.9686  1.5394
17120TIP3   OH272774   1.145   4.390  15.748  0.0691 -0.1782  0.6601
17120TIP3    H172775   1.176   4.332  15.819  0.4057  0.6720  1.2191
17120TIP3    H272776   1.090   4.454  15.793  2.8703  2.3957  0.7323
17121TIP3   OH272777   2.791   4.829  11.962  0.2442 -0.3897  0.6195
17121TIP3    H172778   2.844   4.897  11.921 -0.0906 -0.7430 -0.4477
17121TIP3    H272779   2.791   4.851  12.055  1.0936  0.4028  0.4512
17122TIP3   OH272780   5.566   4.543   4.309 -0.2986  0.5227 -0.2289
17122TIP3    H172781   5.633   4.490   4.267 -0.2165  0.8110 -0.4669
17122TIP3    H272782   5.486   4.490   4.304  0.3176 -0.7044  1.8634
17123TIP3   OH272783   6.036   4.841   2.202  0.0594  0.3916  0.1078
17123TIP3    H172784   5.972   4.849   2.131  1.9221  2.1675 -1.5117
17123TIP3    H272785   6.068   4.751   2.196 -0.4846  0.2399 -0.6742
17124TIP3   OH272786   6.215   1.188   5.159 -0.0094  0.0828  0.0772
17124TIP3    H172787   6.297   1.168   5.114 -0.4719 -0.4717 -0.5239
17124TIP3    H272788   6.190   1.274   5.125 -0.0156 -0.0387 -0.2265
17125TIP3   OH272789   4.794   3.861  11.333 -0.1963 -0.4253 -0.3678
17125TIP3    H172790   4.711   3.818  11.313 -0.6178  0.2899 -0.2095
17125TIP3    H272791   4.837   3.872  11.249  0.4443 -2.1743 -0.2970
17126TIP3   OH272792   3.182   2.101  12.897 -0.4537 -0.5009  0.3086
17126TIP3    H172793   3.125   2.041  12.944  0.2447 -0.5603  1.1056
17126TIP3    H272794   3.177   2.183  12.947 -2.1568  0.4390 -1.3116
17127TIP3   OH272795   4.389   4.103   4.804  0.5654  0.5415 -0.1950
17127TIP3    H172796   4.429   4.071   4.724  0.8759 -0.2439  0.2620
17127TIP3    H272797   4.350   4.187   4.780  1.5351  0.7987 -0.9129
17128TIP3   OH272798   2.201   2.728  11.653 -0.2429  0.8235 -0.2200
17128TIP3    H172799   2.145   2.670  11.706  1.0520 -0.9742 -0.7565
17128TIP3    H272800   2.212   2.682  11.570  2.6687  0.6980  0.1388
17129TIP3   OH272801   2.926   5.631  12.704  0.4459 -0.3073 -0.1828
17129TIP3    H172802   3.000   5.662  12.756  1.6067 -1.8431 -0.8456
17129TIP3    H272803   2.910   5.700  12.640  0.4991  0.5638  0.7165
17130TIP3   OH272804   0.464   1.716  15.069 -0.3259 -0.3442 -0.5893
17130TIP3    H172805   0.444   1.781  15.001 -1.7252  1.0362  1.0481
17130TIP3    H272806   0.415   1.638  15.043  0.6405 -0.4850 -2.1056
17131TIP3   OH272807   1.583   5.464  14.429 -0.8864 -0.2311  0.3490
17131TIP3    H172808   1.667   5.426  14.453 -1.6124 -2.7153 -0.7276
17131TIP3    H272809   1.574   5.541  14.485  1.3978 -0.7646  1.5464
17132TIP3   OH272810   2.217   1.043  14.808  0.1723  0.1159  0.2386
17132TIP3    H172811   2.281   1.075  14.744  0.3691  0.7037  0.7165
17132TIP3    H272812   2.174   0.970  14.764  0.8345  0.0220 -0.2744
17133TIP3   OH272813   3.147   2.536  12.822  0.7312  0.2884  0.1406
17133TIP3    H172814   3.209   2.537  12.749  1.7589  1.6446  0.9829
17133TIP3    H272815   3.169   2.456  12.871  0.4630 -0.2840 -0.6424
17134TIP3   OH272816   2.041   4.525   2.785  0.7794  0.4089  0.2735
17134TIP3    H172817   2.109   4.466   2.819 -0.0414 -0.5602  0.3049
17134TIP3    H272818   2.056   4.526   2.691 -0.7186 -1.9522 -0.0813
17135TIP3   OH272819   2.244   0.417   5.438 -0.6182 -0.0815 -0.5402
17135TIP3    H172820   2.190   0.379   5.369  0.0010  1.1649 -1.7598
17135TIP3    H272821   2.181   0.450   5.502 -1.2546 -0.1252 -1.1268
17136TIP3   OH272822   4.562   2.996   0.996  0.3415  0.4871  0.1150
17136TIP3    H172823   4.645   3.021   0.956  1.5848 -2.0727  0.8765
17136TIP3    H272824   4.533   2.920   0.945  0.5194 -1.0775  2.2194
17137TIP3   OH272825   2.453   6.032   0.058 -0.0245  0.1788  0.3347
17137TIP3    H172826   2.393   6.039   0.132  0.1985 -0.6815  0.6111
17137TIP3    H272827   2.397   6.038  -0.020 -0.1012  2.6789  0.5063
17138TIP3   OH272828   0.791   4.975  16.453 -0.4237  0.1671  0.2994
17138TIP3    H172829   0.835   5.060  16.459 -1.1940  0.4729  2.6724
17138TIP3    H272830   0.793   4.940  16.542  0.1608 -2.4957 -0.6520
17139TIP3   OH272831   1.531   0.917  14.893  0.1261 -0.0574  0.3238
17139TIP3    H172832   1.616   0.900  14.851  0.3478 -1.9354  1.4129
17139TIP3    H272833   1.541   1.001  14.937  0.5645  0.9563 -1.6096
17140TIP3   OH272834   0.748   5.510  11.487 -0.2325 -0.1574  0.1458
17140TIP3    H172835   0.785   5.585  11.440 -0.6966 -0.5428 -0.8722
17140TIP3    H272836   0.820   5.477  11.540  0.1969  0.5331  0.0128
17141TIP3   OH272837   3.069   4.764  13.971  0.3167 -0.1173 -0.4528
17141TIP3    H172838   3.141   4.714  14.009 -0.1896  0.7383  1.8506
17141TIP3    H272839   2.996   4.703  13.967 -0.1192  0.1871  1.7347
17142TIP3   OH272840   6.127   2.931  12.095 -0.8057 -0.2907 -0.2529
17142TIP3    H172841   6.120   2.836  12.082  0.2324 -0.2871 -1.0121
17142TIP3    H272842   6.194   2.958  12.032 -1.0146  0.9327  0.0367
17143TIP3   OH272843   5.511   3.352   2.266 -0.4326 -0.3290 -1.0970
17143TIP3    H172844   5.488   3.259   2.264  0.7199 -0.6599  0.2473
17143TIP3    H272845   5.605   3.354   2.250 -0.2180  0.4951  0.1583
17144TIP3   OH272846   0.805   1.278   6.217 -0.9651 -0.3585  0.5432
17144TIP3    H172847   0.760   1.361   6.205 -2.0824 -0.9742  0.2609
17144TIP3    H272848   0.863   1.270   6.141 -2.8440 -1.0435 -0.8929
17145TIP3   OH272849   4.935   0.550  17.147  0.2324 -0.3499 -0.3084
17145TIP3    H172850   4.871   0.532  17.078 -1.0977  2.5417  0.0346
17145TIP3    H272851   4.886   0.541  17.228  1.2126 -1.5070  0.1941
17146TIP3   OH272852   2.284   6.704  12.533 -0.0059  0.3190 -0.0958
17146TIP3    H172853   2.352   6.640  12.553  0.3249  1.0074  1.1347
17146TIP3    H272854   2.230   6.707  12.612 -1.1728  0.1579 -0.8645
17147TIP3   OH272855   2.956   6.089  12.221  0.1897 -0.6761 -0.8076
17147TIP3    H172856   2.900   6.012  12.218 -0.5715 -0.1555 -0.2123
17147TIP3    H272857   2.996   6.092  12.134 -0.9518 -0.8829 -1.3643
17148TIP3   OH272858   5.326   6.755  15.902  0.2666 -0.0832 -0.5621
17148TIP3    H172859   5.323   6.760  15.998  0.8323  0.7582 -0.5848
17148TIP3    H272860   5.312   6.662  15.883 -1.5556 -0.0259  0.2554
17149TIP3   OH272861   3.569   0.894  11.648  0.1153  0.6263  0.1630
17149TIP3    H172862   3.550   0.809  11.688  1.7743  0.7797  1.3460
17149TIP3    H272863   3.540   0.884  11.557  0.0341 -1.1056  0.3432
17150TIP3   OH272864   6.655   5.516   2.454 -0.8664 -0.7806  0.0605
17150TIP3    H172865   6.701   5.592   2.489  3.0936 -1.8135 -2.3622
17150TIP3    H272866   6.664   5.449   2.522 -0.9873 -0.2585  0.6000
17151TIP3   OH272867   6.099   5.251   4.422 -0.1925 -0.1597  0.3305
17151TIP3    H172868   6.012   5.280   4.450 -0.3968  1.3456 -1.6487
17151TIP3    H272869   6.086   5.221   4.332  1.2141 -0.6614  0.2706
17152TIP3   OH272870   0.813   4.639   3.162  0.0363  0.0998 -0.3539
17152TIP3    H172871   0.902   4.669   3.179 -0.2694  1.6284 -1.2625
17152TIP3    H272872   0.812   4.548   3.192  1.9337  0.0145 -0.4412
17153TIP3   OH272873   1.438   4.781   3.890 -0.1742 -0.0536 -0.2445
17153TIP3    H172874   1.487   4.708   3.929  2.2072  0.6166 -1.7864
17153TIP3    H272875   1.505   4.843   3.863 -2.1316  3.0508  1.4807
17154TIP3   OH272876   4.822   1.360  16.596  0.1636  0.4504 -0.3457
17154TIP3    H172877   4.740   1.395  16.560  0.0212 -0.5598 -1.0623
17154TIP3    H272878   4.875   1.438  16.614 -0.9139  1.1208  0.0726
17155TIP3   OH272879   4.213   1.487  14.175 -0.6031  0.1652 -0.2814
17155TIP3    H172880   4.169   1.548  14.116 -0.9491 -0.6479 -0.8725
17155TIP3    H272881   4.165   1.405  14.165 -1.6836  0.3825  2.2887
17156TIP3   OH272882   3.991   5.150  14.139 -0.0669 -0.1102  0.0035
17156TIP3    H172883   4.008   5.081  14.202 -2.8972 -0.2566  0.7167
17156TIP3    H272884   3.907   5.187  14.165 -1.4637 -0.2335 -3.6976
17157TIP3   OH272885   2.112   4.093   2.661  0.3342 -0.4516  0.1679
17157TIP3    H172886   2.030   4.086   2.711  1.5262 -0.7340  2.1725
17157TIP3    H272887   2.136   4.003   2.642  0.6991 -0.4214  0.4808
17158TIP3   OH272888   5.935   5.089  10.889 -0.3009 -0.0227 -0.6996
17158TIP3    H172889   5.843   5.077  10.916 -0.0777 -0.5737 -0.1523
17158TIP3    H272890   5.936   5.174  10.844 -1.1840 -0.2650 -1.2033
17159TIP3   OH272891   1.424   5.428   3.655  0.1478 -0.3844  0.3282
17159TIP3    H172892   1.364   5.459   3.722 -0.2722 -1.6775  0.5757
17159TIP3    H272893   1.503   5.404   3.702 -0.3800 -1.9140  0.4757
17160TIP3   OH272894   4.886   4.623   1.254 -0.7734  0.7475  0.1518
17160TIP3    H172895   4.794   4.597   1.245 -0.7462  0.9855 -1.0394
17160TIP3    H272896   4.888   4.675   1.334 -1.8031  1.2168 -0.1013
17161TIP3   OH272897   1.295   4.817   3.617  0.2279  0.2214  0.4979
17161TIP3    H172898   1.372   4.778   3.660  0.0399 -0.2207  0.4306
17161TIP3    H272899   1.274   4.893   3.672  0.9072  0.5371  0.3370
17162TIP3   OH272900   6.771   3.804  15.096 -0.0742  0.3871  0.4673
17162TIP3    H172901   6.847   3.849  15.058  1.6760 -0.0039  3.2220
17162TIP3    H272902   6.756   3.730  15.037  0.7241  1.2931 -0.9473
17163TIP3   OH272903   2.128   5.673  12.347 -0.5066  0.0022 -0.3857
17163TIP3    H172904   2.222   5.676  12.333 -0.4202  2.2501  0.2806
17163TIP3    H272905   2.099   5.763  12.336 -2.6707 -0.6962 -0.9963
17164TIP3   OH272906   4.564   4.296   3.536 -0.6322  0.9341 -0.1614
17164TIP3    H172907   4.498   4.231   3.563 -0.4000  0.4105 -0.8262
17164TIP3    H272908   4.549   4.371   3.594 -0.1650 -0.1325  1.3956
17165TIP3   OH272909   5.996   4.778   6.205 -0.0576 -0.2770 -0.2368
17165TIP3    H172910   6.076   4.798   6.156  0.1878  0.2965  0.3943
17165TIP3    H272911   5.976   4.687   6.180  0.2233 -0.0997 -1.1660
17166TIP3   OH272912   5.148   3.275   1.261  0.1556 -0.3667  0.2431
17166TIP3    H172913   5.238   3.242   1.264  0.2776  0.0613  1.5234
17166TIP3    H272914   5.095   3.201   1.291  0.4249  0.4841  3.0653
17167TIP3   OH272915   0.387   4.639   5.284 -0.9360 -0.0833  0.6262
17167TIP3    H172916   0.329   4.633   5.207 -0.3782 -1.3200  0.2630
17167TIP3    H272917   0.333   4.679   5.352 -2.1314 -0.8888  0.1948
17168TIP3   OH272918   4.871   2.423   0.483  0.5348  0.6417 -0.3323
17168TIP3    H172919   4.903   2.467   0.404  0.7469 -0.4001 -0.8386
17168TIP3    H272920   4.929   2.349   0.495 -0.3267  0.0076  0.0278
17169TIP3   OH272921   3.980   0.436  17.025  0.9527  0.5648  0.2516
17169TIP3    H172922   3.949   0.526  17.030 -0.9281 -0.1274  2.8777
17169TIP3    H272923   3.902   0.383  17.038  2.2457 -1.4471  0.2085
17170TIP3   OH272924   0.933   4.602  15.272  0.2708  0.5122 -0.1293
17170TIP3    H172925   1.027   4.619  15.279  0.3805  0.8154 -1.9618
17170TIP3    H272926   0.924   4.548  15.193 -1.1266  0.7373 -0.1480
17171TIP3   OH272927   3.621   5.339  16.772 -0.3105 -0.6594 -0.5335
17171TIP3    H172928   3.574   5.381  16.844  0.6558  0.5454 -0.5852
17171TIP3    H272929   3.645   5.410  16.714  1.0084 -1.3270 -0.8445
17172TIP3   OH272930   5.750   1.249  14.855  0.1612 -0.3182  0.0048
17172TIP3    H172931   5.777   1.299  14.932  0.2570 -0.8032  0.2915
17172TIP3    H272932   5.789   1.295  14.781 -2.3442  1.9104 -0.0823
17173TIP3   OH272933   2.233   1.495   1.699 -0.2584 -0.6152  0.2538
17173TIP3    H172934   2.287   1.416   1.700  0.4268 -0.2556 -1.9143
17173TIP3    H272935   2.164   1.476   1.636  0.6517  0.9021 -1.3018
17174TIP3   OH272936   4.209   6.097  10.694 -0.7770 -0.2380  0.2829
17174TIP3    H172937   4.301   6.096  10.719 -0.6761 -0.9219 -0.1113
17174TIP3    H272938   4.173   6.015  10.727 -1.3042  0.1201  0.6258
17175TIP3   OH272939   6.689   3.920   4.071  0.0443  0.3252 -0.2393
17175TIP3    H172940   6.650   4.003   4.044  0.8671  1.0508  0.7229
17175TIP3    H272941   6.635   3.890   4.144  0.7783  0.9323  0.5757
17176TIP3   OH272942   2.222   4.220  15.631 -0.3131 -0.2328 -0.0765
17176TIP3    H172943   2.182   4.235  15.717 -1.2684 -0.2322 -0.5047
17176TIP3    H272944   2.289   4.154  15.647 -1.3345 -1.1731  0.4658
17177TIP3   OH272945   4.423   3.336  15.012 -0.1402  0.0941 -0.1142
17177TIP3    H172946   4.508   3.292  15.006  0.9774  2.1804 -0.5157
17177TIP3    H272947   4.441   3.417  15.058 -2.5890 -0.8523  2.8138
17178TIP3   OH272948   4.825   2.472   3.982  0.4857 -0.1221  0.2832
17178TIP3    H172949   4.918   2.468   4.006  0.3988 -0.2201  0.6042
17178TIP3    H272950   4.778   2.447   4.062  0.1639  0.5247  0.2988
17179TIP3   OH272951   1.256   3.211  14.510 -0.8805  0.3112  0.1470
17179TIP3    H172952   1.282   3.235  14.599 -0.9641 -0.6929  0.4640
17179TIP3    H272953   1.313   3.262  14.453  0.8743 -0.8355  0.8027
17180TIP3   OH272954   0.523   1.815   3.914 -0.5396  0.0300 -0.8698
17180TIP3    H172955   0.568   1.852   3.991  0.2858  0.1640 -1.4051
17180TIP3    H272956   0.459   1.755   3.951 -1.9176  1.9425  0.0513
17181TIP3   OH272957   1.080   2.389   4.072 -0.2541  0.0989 -0.1550
17181TIP3    H172958   1.121   2.321   4.126 -1.3969 -1.2983 -0.9632
17181TIP3    H272959   1.055   2.343   3.992 -0.1122  1.7404 -1.1816
17182TIP3   OH272960   1.434   2.730  12.166 -0.3784 -0.5801 -0.1967
17182TIP3    H172961   1.418   2.700  12.076 -2.2345  2.5342 -1.0796
17182TIP3    H272962   1.351   2.770  12.193  0.7145  0.2634  2.1922
17183TIP3   OH272963   4.673   0.373  13.740  0.6559  0.0021  0.5271
17183TIP3    H172964   4.712   0.458  13.716  2.7765 -0.6160  1.5462
17183TIP3    H272965   4.630   0.390  13.824  1.6252 -0.0305  1.0517
17184TIP3   OH272966   3.679   3.962  15.980 -0.0333  0.4427 -0.1759
17184TIP3    H172967   3.767   3.929  15.998 -0.2870  0.5414  1.3310
17184TIP3    H272968   3.623   3.885  15.982 -0.1206  0.5051 -0.2014
17185TIP3   OH272969   6.264   5.524  14.497 -0.4833  0.1271 -0.4800
17185TIP3    H172970   6.239   5.575  14.575 -0.2003 -1.8030  0.9634
17185TIP3    H272971   6.358   5.513  14.505 -0.6904 -1.5897 -0.0829
17186TIP3   OH272972   6.336   1.849  12.143  0.1970 -0.1379  0.8008
17186TIP3    H172973   6.274   1.782  12.168  0.1653 -0.3896  0.0660
17186TIP3    H272974   6.334   1.850  12.047  1.6381 -0.4596  0.7449
17187TIP3   OH272975   6.268   3.438   2.900  0.2684  0.1263  0.3155
17187TIP3    H172976   6.223   3.409   2.979 -2.1338 -1.8670 -1.6244
17187TIP3    H272977   6.295   3.358   2.856 -0.1239  1.0570 -1.7546
17188TIP3   OH272978   1.454   4.918   5.403  0.0678  0.5005 -0.0604
17188TIP3    H172979   1.428   4.841   5.352 -2.9148  0.6692  0.9708
17188TIP3    H272980   1.452   4.888   5.493  1.4711  1.1666  0.2086
17189TIP3   OH272981   5.481   3.871  12.054  0.2606  0.4076  0.6433
17189TIP3    H172982   5.550   3.820  12.096 -1.8856 -1.7047  1.9103
17189TIP3    H272983   5.445   3.813  11.987 -2.7731 -0.2473  2.6351
17190TIP3   OH272984   3.912   4.522  12.027  0.1501 -0.1820 -0.2231
17190TIP3    H172985   3.823   4.554  12.016  0.1917 -0.3622 -1.1683
17190TIP3    H272986   3.911   4.434  11.988  0.4362 -0.7031  0.8758
17191TIP3   OH272987   1.628   1.697  15.614 -0.4558  0.0595  0.3462
17191TIP3    H172988   1.680   1.733  15.686 -1.1885  1.4208  0.2176
17191TIP3    H272989   1.604   1.773  15.561  2.7407 -1.0902 -3.2257
17192TIP3   OH272990   0.045   1.607  14.011 -0.0476  0.1476  0.2729
17192TIP3    H172991   0.096   1.557  13.948  0.2588 -0.2514  0.8283
17192TIP3    H272992  -0.007   1.668  13.958  2.1492  1.6859 -0.2292
17193TIP3   OH272993   4.940   0.275  11.095 -0.8533 -0.5863  0.4024
17193TIP3    H172994   4.868   0.255  11.154 -0.3783 -0.4458  1.0376
17193TIP3    H272995   4.899   0.325  11.024 -1.8547 -2.6604 -0.6048
17194TIP3   OH272996   3.021   1.161   0.761  0.1265  0.1863  0.1644
17194TIP3    H172997   2.995   1.209   0.683 -1.0890 -0.8425 -0.0941
17194TIP3    H272998   3.116   1.171   0.764  0.1308  0.7449 -1.1074
17195TIP3   OH272999   0.579   1.436   1.317 -0.3104  0.5590 -0.0498
17195TIP3    H173000   0.494   1.404   1.288 -0.5375 -0.3259  1.4868
17195TIP3    H273001   0.633   1.357   1.326  0.6748  1.1021 -0.9494
17196TIP3   OH273002   2.848   3.291   6.723  0.4089 -0.4390 -0.0892
17196TIP3    H173003   2.912   3.222   6.740 -0.6180 -0.9098  2.1903
17196TIP3    H273004   2.892   3.372   6.749 -0.3268 -0.9133  3.0203
17197TIP3   OH273005   3.881   5.324   4.351 -0.3224  0.4160  0.2855
17197TIP3    H173006   3.960   5.271   4.336  1.1362  1.8887  2.3067
17197TIP3    H273007   3.818   5.262   4.388  0.6193 -0.3511  0.6631
17198TIP3   OH273008   6.045   1.438   1.501  0.0285  0.2419 -0.0216
17198TIP3    H173009   6.114   1.380   1.469 -1.3638 -0.8860 -1.1222
17198TIP3    H273010   6.036   1.415   1.594  0.4919 -0.2522 -0.0966
17199TIP3   OH273011   2.799   5.161  13.646  0.5440  0.1168  0.2932
17199TIP3    H173012   2.716   5.134  13.607 -0.4274  2.3877  0.6712
17199TIP3    H273013   2.799   5.121  13.733 -0.5907  0.8268  0.6326
17200TIP3   OH273014   2.317   5.657   5.844 -0.5073 -0.2055  0.6133
17200TIP3    H173015   2.388   5.655   5.779 -0.5437  2.4557  0.3946
17200TIP3    H273016   2.359   5.683   5.925 -0.4869 -3.4162  1.7573
17201TIP3   OH273017   1.096   3.032  12.189 -0.2672 -0.0700 -0.1489
17201TIP3    H173018   1.102   2.949  12.142  1.5420 -0.6397  0.9783
17201TIP3    H273019   1.053   3.091  12.128  1.3529 -0.9440 -2.2777
17202TIP3   OH273020   4.850   0.259  11.994  0.1829 -0.6990 -0.3348
17202TIP3    H173021   4.761   0.227  11.981 -0.2536 -0.4483  1.6924
17202TIP3    H273022   4.840   0.338  12.047  1.5354  0.2251 -1.3812
17203TIP3   OH273023   3.517   2.307   3.584 -0.3946 -0.4954  0.1081
17203TIP3    H173024   3.479   2.225   3.552 -4.3400  0.3701  1.9554
17203TIP3    H273025   3.484   2.373   3.523 -2.1943  0.2897  1.7976
17204TIP3   OH273026   2.883   0.364  13.109 -0.4839  0.4117 -0.2417
17204TIP3    H173027   2.808   0.304  13.111 -1.2358  1.3372  1.3142
17204TIP3    H273028   2.845   0.451  13.125  1.0645  0.6599  3.0742
17205TIP3   OH273029   2.890   5.394  15.059 -0.2052  0.7426  0.0136
17205TIP3    H173030   2.843   5.473  15.032 -0.9975  0.3688  0.2952
17205TIP3    H273031   2.982   5.413  15.038 -0.3937  1.7124  0.0289
17206TIP3   OH273032   3.903   3.649   0.104 -0.0099 -0.6055  0.4909
17206TIP3    H173033   3.960   3.572   0.098 -1.1005 -1.5705  1.8281
17206TIP3    H273034   3.854   3.636   0.185 -0.3321  1.4453  0.6830
17207TIP3   OH273035   6.508   6.509   0.699 -0.9915 -0.5188  0.1971
17207TIP3    H173036   6.577   6.446   0.678  1.2401  2.1735 -1.1650
17207TIP3    H273037   6.430   6.473   0.656  0.2224 -2.1980 -0.7526
17208TIP3   OH273038   5.421   2.205   0.197 -0.3518  0.0435 -0.3042
17208TIP3    H173039   5.416   2.144   0.124  0.5878 -2.2044  1.3900
17208TIP3    H273040   5.377   2.160   0.269  1.2230  0.8956  1.2819
17209TIP3   OH273041   5.954   2.311   0.293  0.7214  0.0036  0.4072
17209TIP3    H173042   5.907   2.228   0.284  1.3514 -0.6159  2.3155
17209TIP3    H273043   5.903   2.373   0.242  0.6175 -1.6879 -1.6819
17210TIP3   OH273044   3.527   1.402   0.599  0.0435  0.3551  0.6601
17210TIP3    H173045   3.526   1.331   0.662  1.2355 -0.3917 -0.1019
17210TIP3    H273046   3.534   1.481   0.652  0.1633 -0.1940  1.4855
17211TIP3   OH273047   4.069   1.957   3.237 -0.3201 -0.1638  0.0410
17211TIP3    H173048   4.045   2.049   3.250 -1.1476 -0.3155 -0.3756
17211TIP3    H273049   4.069   1.946   3.142 -0.5668 -0.6832  0.0985
17212TIP3   OH273050   4.181   5.978   1.832 -0.0746 -0.1625  0.1677
17212TIP3    H173051   4.149   6.068   1.826 -1.4193 -0.7257 -2.7782
17212TIP3    H273052   4.103   5.926   1.852  0.6709 -0.7426  1.7404
17213TIP3   OH273053   1.415   5.957  12.097  0.1437 -0.0610 -0.1546
17213TIP3    H173054   1.407   5.865  12.122 -1.7080  0.4225  1.2514
17213TIP3    H273055   1.487   5.990  12.152  1.2586 -0.7738 -1.1348
17214TIP3   OH273056   0.265   5.020  11.442 -0.5937 -0.7347 -0.0827
17214TIP3    H173057   0.297   5.008  11.352 -0.6841 -1.9418  0.0261
17214TIP3    H273058   0.298   5.106  11.468  1.1021 -1.1873 -0.5905
17215TIP3   OH273059   3.576   1.166  13.978 -0.3477  0.8988 -0.3353
17215TIP3    H173060   3.529   1.217  13.912 -2.1026 -0.2151  0.0043
17215TIP3    H273061   3.661   1.147  13.938 -0.4839  2.2114 -1.3116
17216TIP3   OH273062   5.117   6.075  12.977 -0.3767 -0.1468 -0.1177
17216TIP3    H173063   5.137   6.053  12.886 -2.2848  0.6896 -0.7980
17216TIP3    H273064   5.137   6.169  12.983  0.0720 -0.2738  0.4391
17217TIP3   OH273065   2.717   3.673   5.316  0.4342  0.1065 -0.0976
17217TIP3    H173066   2.687   3.663   5.226  0.7718 -2.5700  0.0160
17217TIP3    H273067   2.672   3.752   5.348 -0.1911  0.7316 -2.3646
17218TIP3   OH273068   4.679   3.314  14.176 -0.2666  0.1218  0.3540
17218TIP3    H173069   4.733   3.357  14.243  1.3052 -0.1088 -0.6992
17218TIP3    H273070   4.722   3.230  14.162 -0.4860  0.2275 -1.0278
17219TIP3   OH273071   2.666   1.739  15.484 -0.6563 -1.2163  0.1931
17219TIP3    H173072   2.608   1.670  15.517 -0.9500 -1.3464 -0.5680
17219TIP3    H273073   2.670   1.803  15.555 -1.0583 -1.6087  0.5800
17220TIP3   OH273074   2.190   0.756  16.586  0.5484 -0.0325  0.1160
17220TIP3    H173075   2.255   0.780  16.652  1.1687 -3.0184  0.7616
17220TIP3    H273076   2.219   0.670  16.554 -0.6848  0.5301 -2.8526
17221TIP3   OH273077   2.815   3.126   5.397 -0.6985 -0.3303  0.3327
17221TIP3    H173078   2.831   3.210   5.440  2.0123  0.2991 -1.6012
17221TIP3    H273079   2.720   3.123   5.384 -0.7986  3.1050 -0.7046
17222TIP3   OH273080   6.271   3.184  12.945  0.1300 -0.7183  0.0889
17222TIP3    H173081   6.288   3.188  13.039 -0.8915 -1.1644  0.3078
17222TIP3    H273082   6.303   3.268  12.911 -0.8879  0.1126  1.0819
17223TIP3   OH273083   3.190   4.859  11.829  0.4071 -0.4240 -0.5133
17223TIP3    H173084   3.234   4.815  11.902  1.0573 -0.7386 -1.0830
17223TIP3    H273085   3.154   4.787  11.777  0.0803 -0.2042 -0.5952
17224TIP3   OH273086   5.982   1.008   0.921  0.1568  0.1885 -0.2630
17224TIP3    H173087   5.896   0.994   0.882 -0.5756  1.9350  0.6103
17224TIP3    H273088   6.000   1.101   0.905  1.4492  0.0756  0.4207
17225TIP3   OH273089   3.482   5.344   4.624  0.7203 -0.2345  0.1251
17225TIP3    H173090   3.515   5.385   4.704  0.8952  0.6501 -0.3909
17225TIP3    H273091   3.387   5.343   4.635  0.7387 -0.0324  0.2975
17226TIP3   OH273092   1.293   6.375  13.116 -0.1763 -0.1186 -0.3093
17226TIP3    H173093   1.299   6.323  13.036  0.9273 -0.5393  0.0365
17226TIP3    H273094   1.383   6.387  13.144 -0.3722  2.3825 -0.5956
17227TIP3   OH273095   4.436   6.683   1.678  0.6628  0.2341  0.0462
17227TIP3    H173096   4.475   6.677   1.591 -0.1055 -2.5626 -0.1782
17227TIP3    H273097   4.345   6.658   1.666  0.2227  0.9971  1.4806
17228TIP3   OH273098   1.231   3.150  17.089  0.2044  0.1538 -0.0727
17228TIP3    H173099   1.154   3.131  17.141  0.2002  2.1992  0.7838
17228TIP3    H273100   1.244   3.073  17.034 -2.6292 -0.1074 -0.4892
17229TIP3   OH273101   3.981   1.229   2.493 -0.5045 -0.1961  0.1088
17229TIP3    H173102   3.972   1.320   2.523 -0.2559 -0.1557  0.0643
17229TIP3    H273103   3.893   1.205   2.463 -0.5526  0.0606  0.0361
17230TIP3   OH273104   1.308   1.936   6.064 -0.3498 -0.6713  0.2862
17230TIP3    H173105   1.293   1.877   6.138  2.0116 -0.0716  1.3374
17230TIP3    H273106   1.373   1.891   6.011  0.1031  0.1717  0.1207
17231TIP3   OH273107   3.192   4.523  16.399 -0.1676  0.2406  0.2016
17231TIP3    H173108   3.182   4.429  16.380 -0.9897 -0.4565  3.4411
17231TIP3    H273109   3.110   4.562  16.371  0.0639 -0.0530 -0.9069
17232TIP3   OH273110   5.604   3.363   3.873  0.4439  0.4825  0.5434
17232TIP3    H173111   5.690   3.368   3.830  0.1600  1.1241  0.0248
17232TIP3    H273112   5.619   3.400   3.960  0.7017  0.5478  0.4741
17233TIP3   OH273113   6.525   3.428   5.956  0.0051  0.2787  0.0443
17233TIP3    H173114   6.472   3.379   5.893 -0.7187  0.2647  0.6518
17233TIP3    H273115   6.483   3.412   6.040  2.2378 -1.5352  0.9088
17234TIP3   OH273116   3.602   4.744  15.763  0.7538  0.0326  0.1737
17234TIP3    H173117   3.668   4.683  15.730  1.0714  0.7628 -0.6131
17234TIP3    H273118   3.624   4.827  15.720  0.0195  0.5666  0.8047
17235TIP3   OH273119   6.395   6.149   2.691 -0.2840  0.5984 -0.0142
17235TIP3    H173120   6.371   6.137   2.783 -0.2486  0.9385  0.0403
17235TIP3    H273121   6.464   6.216   2.693  1.7113 -1.3348 -0.0149
17236TIP3   OH273122   3.719   2.571  14.318 -0.1674 -0.6063 -0.3152
17236TIP3    H173123   3.650   2.637  14.319 -1.6523 -2.1061  0.3335
17236TIP3    H273124   3.715   2.533  14.230 -1.4133 -1.8832  0.2484
17237TIP3   OH273125   3.433   4.446   0.348 -0.0887 -0.1423  0.9560
17237TIP3    H173126   3.479   4.522   0.383  0.4686  0.6669 -1.3348
17237TIP3    H273127   3.340   4.470   0.354  0.0965  1.0132 -0.2206
17238TIP3   OH273128   5.394   1.178   3.316 -0.2972 -0.7864 -0.1380
17238TIP3    H173129   5.470   1.210   3.266 -1.0335 -0.2668 -0.9674
17238TIP3    H273130   5.330   1.154   3.249 -1.3818  0.0741  0.5407
17239TIP3   OH273131   6.209   2.733  16.178 -0.3427 -0.1701 -0.5955
17239TIP3    H173132   6.119   2.709  16.198 -0.3590 -0.2552 -0.7795
17239TIP3    H273133   6.262   2.665  16.219 -0.4418 -1.5966 -2.7181
17240TIP3   OH273134   5.010   5.344   2.973 -0.3703  0.0033 -0.1607
17240TIP3    H173135   5.009   5.440   2.974 -0.5364  0.0642 -2.0138
17240TIP3    H273136   4.918   5.320   2.979 -0.3695 -0.0247 -0.2627
17241TIP3   OH273137   0.624   4.854  16.230  0.0375 -0.1177 -0.2986
17241TIP3    H173138   0.602   4.934  16.183 -3.6626  0.0540  1.3318
17241TIP3    H273139   0.687   4.882  16.297  1.8308  0.5141 -2.1510
17242TIP3   OH273140   6.546   1.441  13.864 -0.6011  0.1649 -0.5663
17242TIP3    H173141   6.488   1.391  13.807 -1.1706  0.8215 -0.5736
17242TIP3    H273142   6.488   1.495  13.917 -0.1255 -0.7890  1.0091
17243TIP3   OH273143   3.564   3.328   2.193  0.3316 -0.4828  0.5997
17243TIP3    H173144   3.659   3.338   2.191  0.7097 -3.2690 -0.7994
17243TIP3    H273145   3.533   3.379   2.118  0.7437  0.2448  0.9189
17244TIP3   OH273146   1.771   5.226   4.076 -1.0185 -0.0117  0.1264
17244TIP3    H173147   1.700   5.165   4.060 -0.8812 -0.7024  1.9245
17244TIP3    H273148   1.844   5.171   4.105 -1.0803  1.0025  2.3770
17245TIP3   OH273149   5.885   4.143  16.386 -0.3328 -0.5369 -0.4396
17245TIP3    H173150   5.935   4.068  16.355  0.5897 -0.0490 -0.1412
17245TIP3    H273151   5.906   4.213  16.324 -0.6460 -0.3232 -0.3085
17246TIP3   OH273152   5.788   6.254   0.181  0.0049  0.0728  0.3674
17246TIP3    H173153   5.799   6.209   0.265  0.7125  1.0551  0.8290
17246TIP3    H273154   5.743   6.191   0.125  0.9976 -1.2140  0.9729
17247TIP3   OH273155   4.106   0.108   3.961 -0.1456 -0.5082  0.1548
17247TIP3    H173156   4.186   0.161   3.965  1.8216 -3.3066  0.4577
17247TIP3    H273157   4.090   0.082   4.052 -0.3360 -1.4149 -0.1248
17248TIP3   OH273158   6.167   2.822  14.669 -0.0635 -0.3493 -0.2195
17248TIP3    H173159   6.225   2.780  14.733  1.2239 -0.1250 -1.1994
17248TIP3    H273160   6.084   2.832  14.716  0.7362 -0.4704  1.3090
17249TIP3   OH273161   2.719   3.403  17.081  0.1877 -0.4107 -0.6853
17249TIP3    H173162   2.701   3.424  16.989  0.3934  0.4415 -0.5441
17249TIP3    H273163   2.805   3.443  17.098 -1.1879  2.2395  0.7104
17250TIP3   OH273164   3.899   5.725   4.546  0.4218  0.5063 -0.9074
17250TIP3    H173165   3.882   5.806   4.594 -1.3475  0.9236 -2.1197
17250TIP3    H273166   3.885   5.656   4.610  0.8560  1.1266 -0.1325
17251TIP3   OH273167   3.119   3.009  13.737  0.4574  0.2961  0.8710
17251TIP3    H173168   3.074   3.053  13.809 -0.1394 -1.0139  1.3244
17251TIP3    H273169   3.125   3.075  13.669  0.3470  1.3317  1.8382
17252TIP3   OH273170   2.383   1.161  16.617  0.6535  0.2627  0.3078
17252TIP3    H173171   2.470   1.195  16.595 -0.3570  1.0529 -2.8372
17252TIP3    H273172   2.338   1.235  16.656  0.1925  1.0616 -1.6388
17253TIP3   OH273173   4.114   5.963   5.940 -0.4971  0.5623  0.3206
17253TIP3    H173174   4.108   6.031   5.872 -1.1371  0.9386  0.7383
17253TIP3    H273175   4.034   5.974   5.991 -0.4044 -0.2467  0.6494
17254TIP3   OH273176   5.727   0.678  12.776  0.0882  0.2771  0.4138
17254TIP3    H173177   5.813   0.690  12.736 -0.4953  1.3366 -0.5718
17254TIP3    H273178   5.670   0.739  12.730 -1.1342 -0.1737  1.2714
17255TIP3   OH273179   4.587   1.369   2.762  0.1168  0.2009 -0.3992
17255TIP3    H173180   4.607   1.458   2.732 -0.5811  0.0445 -1.3528
17255TIP3    H273181   4.626   1.365   2.850  1.1871  1.0529 -0.8063
17256TIP3   OH273182   1.442   3.379   5.785 -0.7287 -0.1502 -0.2106
17256TIP3    H173183   1.397   3.434   5.850 -1.8848 -0.3800 -0.7780
17256TIP3    H273184   1.380   3.308   5.769 -0.9489  0.4684 -2.3289
17257TIP3   OH273185   6.219   1.568   5.730  0.2415 -0.3129 -0.2204
17257TIP3    H173186   6.235   1.621   5.651  0.0008  0.7950  0.4579
17257TIP3    H273187   6.306   1.547   5.763  0.3375  0.5192  0.0656
17258TIP3   OH273188   0.690   0.905  10.541  0.1860 -0.4644  0.0813
17258TIP3    H173189   0.716   0.874  10.455 -2.0560 -1.9824 -0.1322
17258TIP3    H273190   0.595   0.894  10.543  0.1400 -0.2449  2.6569
17259TIP3   OH273191   0.228   6.466  17.233  0.1493  0.0569 -0.0499
17259TIP3    H173192   0.296   6.443  17.170 -0.8147  1.5610 -1.6992
17259TIP3    H273193   0.266   6.536  17.286 -0.0016  0.7239 -0.8085
17260TIP3   OH273194   0.633   0.665   0.012  0.7053  0.0771  0.5732
17260TIP3    H173195   0.629   0.584   0.062  1.5407 -0.9973 -1.0051
17260TIP3    H273196   0.727   0.680  -0.003  0.4608 -0.2307 -1.5271
17261TIP3   OH273197   5.007   3.194  16.311 -0.2718  0.2189  0.3810
17261TIP3    H173198   4.966   3.175  16.395 -0.4124 -0.5633  0.1477
17261TIP3    H273199   4.954   3.264  16.274 -0.2077  0.5662  0.9445
17262TIP3   OH273200   5.155   3.447  13.161  0.3273 -0.6965 -0.4440
17262TIP3    H173201   5.161   3.542  13.153  0.0471 -0.7689 -1.6540
17262TIP3    H273202   5.187   3.428  13.250 -2.0545  0.7407  0.8143
17263TIP3   OH273203   1.422   0.820   0.140  0.4375  0.5514  0.4510
17263TIP3    H173204   1.483   0.888   0.113  0.9110 -0.2749 -0.6703
17263TIP3    H273205   1.343   0.836   0.088  0.4161  0.4717  0.4576
17264TIP3   OH273206   1.223   6.243  14.384 -0.5349 -0.0061 -1.0847
17264TIP3    H173207   1.220   6.174  14.317  1.8064 -1.8220  0.4918
17264TIP3    H273208   1.176   6.205  14.458  2.2626 -0.7953  0.4166
17265TIP3   OH273209   6.311   5.081  15.139  1.3622 -1.2413  0.0311
17265TIP3    H173210   6.346   4.997  15.108  0.3752 -1.4317 -0.5946
17265TIP3    H273211   6.292   5.066  15.232  3.5716 -0.9115  0.5968
17266TIP3   OH273212   0.106   6.468  16.799 -0.4613 -0.1203  0.2401
17266TIP3    H173213   0.166   6.523  16.849 -0.1088 -0.9835  0.7905
17266TIP3    H273214   0.151   6.454  16.715 -0.9017  1.0459 -0.2182
17267TIP3   OH273215   5.220   5.265  13.585  0.4114  0.6042  0.0556
17267TIP3    H173216   5.165   5.243  13.661  1.2828 -0.0048  0.5274
17267TIP3    H273217   5.302   5.218  13.601  0.5103  0.2502 -1.4065
17268TIP3   OH273218   1.917   2.782   0.922  0.3620 -0.5226  0.0355
17268TIP3    H173219   1.880   2.739   0.999  0.0700 -0.3013  0.0232
17268TIP3    H273220   1.933   2.872   0.951 -0.3109 -0.2753 -0.3309
17269TIP3   OH273221   1.640   6.578  12.192  0.1934  0.4029  0.2227
17269TIP3    H173222   1.648   6.573  12.097 -0.5951 -0.0386  0.1712
17269TIP3    H273223   1.617   6.489  12.219 -1.4281  0.9068  0.6244
17270TIP3   OH273224   2.840   3.313   3.295  0.0825 -0.2335 -0.0137
17270TIP3    H173225   2.867   3.344   3.209  1.7167 -1.1652  0.1130
17270TIP3    H273226   2.918   3.322   3.350 -0.3904 -1.3259  0.8862
17271TIP3   OH273227   3.734   0.172  10.294  0.3497  0.7973 -0.4923
17271TIP3    H173228   3.742   0.266  10.309  2.5857  0.4861  0.5743
17271TIP3    H273229   3.801   0.151  10.229 -0.2363 -0.0503 -0.8536
17272TIP3   OH273230   5.629   1.961   1.206  0.1905 -0.2176  0.2008
17272TIP3    H173231   5.684   1.948   1.284  0.6117 -0.6675 -0.1669
17272TIP3    H273232   5.540   1.945   1.237  0.4048 -0.9502  0.4682
17273TIP3   OH273233   6.336   2.995   3.973 -0.0470  0.1688  0.0599
17273TIP3    H173234   6.256   2.969   4.018  0.4705 -0.7977  0.4499
17273TIP3    H273235   6.332   2.948   3.889  0.7695 -1.0220  0.6611
17274TIP3   OH273236   0.817   3.965  12.121  0.0626  0.1909  0.0785
17274TIP3    H173237   0.724   3.987  12.128  0.0228  0.8744 -1.8893
17274TIP3    H273238   0.828   3.934  12.031  1.6976 -0.1132  0.3459
17275TIP3   OH273239   4.692   5.023   3.410 -0.5536  0.0515 -0.6592
17275TIP3    H173240   4.683   4.928   3.417 -1.4635  0.1569 -0.1109
17275TIP3    H273241   4.717   5.051   3.498 -3.5216  0.5984  0.1222
17276TIP3   OH273242   2.060   5.703  16.346 -0.0719 -0.3207  0.2137
17276TIP3    H173243   2.111   5.755  16.284  0.0249 -1.1187 -0.3945
17276TIP3    H273244   2.090   5.613  16.332 -1.5739 -0.7989 -0.1013
17277TIP3   OH273245   4.176   2.696   4.456 -0.1728  0.1342 -0.5320
17277TIP3    H173246   4.096   2.704   4.405 -0.7760  0.4570  0.4374
17277TIP3    H273247   4.226   2.776   4.437 -0.9057  0.7838  0.2442
17278TIP3   OH273248   5.522   3.278   4.371 -0.6433  0.1258 -0.2252
17278TIP3    H173249   5.559   3.210   4.316 -0.6810  1.7923 -2.4615
17278TIP3    H273250   5.439   3.242   4.402 -0.4235 -1.0166 -0.9118
17279TIP3   OH273251   0.217   1.137   0.688 -0.4621 -0.4736 -0.1795
17279TIP3    H173252   0.175   1.169   0.768 -0.5119 -0.0756 -0.3636
17279TIP3    H273253   0.151   1.082   0.646 -0.5264 -0.4735 -0.0785
17280TIP3   OH273254   2.795   2.479   1.176  0.0664 -0.8563 -0.4648
17280TIP3    H173255   2.748   2.397   1.159 -0.0946 -0.7040 -0.7702
17280TIP3    H273256   2.825   2.507   1.090 -0.6331 -0.1417 -0.4954
17281TIP3   OH273257   2.325   3.835  16.259  0.2563  0.1249  0.0524
17281TIP3    H173258   2.267   3.759  16.268 -0.2669  0.6185  1.0939
17281TIP3    H273259   2.331   3.871  16.347  0.4126  1.3555 -0.4357
17282TIP3   OH273260   1.613   3.658  15.995 -0.7951  0.2446 -0.0801
17282TIP3    H173261   1.693   3.607  15.985  0.0335  1.5382 -0.3296
17282TIP3    H273262   1.560   3.634  15.919 -0.9674 -1.1432  0.4546
17283TIP3   OH273263   3.728   5.499  15.904 -0.0725 -0.3636 -0.4366
17283TIP3    H173264   3.771   5.421  15.938  0.9616 -0.0734 -1.0280
17283TIP3    H273265   3.660   5.466  15.846 -1.2741 -0.8446  1.1917
17284TIP3   OH273266   3.661   5.093  13.741 -0.2236 -0.6203  0.2596
17284TIP3    H173267   3.700   5.020  13.788 -1.0259 -0.7232  0.7740
17284TIP3    H273268   3.585   5.056  13.697 -0.5607 -0.1288  0.4147
17285TIP3   OH273269   3.828   5.789   4.058  0.2965  0.1790  0.7348
17285TIP3    H173270   3.917   5.796   4.023  0.1778  1.4023  0.6206
17285TIP3    H273271   3.836   5.820   4.148  0.1272 -0.5089  0.9907
17286TIP3   OH273272   6.220   2.438  15.824  0.0599 -0.3543 -0.3962
17286TIP3    H173273   6.301   2.488  15.836  0.5279 -0.6851 -1.9874
17286TIP3    H273274   6.176   2.444  15.909  2.3788 -1.3235  0.9843
17287TIP3   OH273275   2.510   1.203   4.005 -0.2030  0.1541 -0.2316
17287TIP3    H173276   2.494   1.284   4.052 -0.1581 -0.1534  0.3241
17287TIP3    H273277   2.597   1.175   4.035 -0.1496 -0.0158 -0.5407
17288TIP3   OH273278   3.605   5.771   5.634 -0.1314 -0.1806  0.0633
17288TIP3    H173279   3.537   5.792   5.698 -0.8983 -0.9920 -0.4607
17288TIP3    H273280   3.575   5.690   5.593 -0.2456  0.8992 -2.1376
17289TIP3   OH273281   2.507   0.007   2.263  0.2554  0.0121 -0.1509
17289TIP3    H173282   2.542   0.089   2.298  1.8690 -1.3866  1.6952
17289TIP3    H273283   2.478  -0.042   2.340  1.7268 -2.2124 -0.9394
17290TIP3   OH273284   0.803   6.209  17.017  0.5164  0.6188 -0.2549
17290TIP3    H173285   0.717   6.227  17.056  0.4130 -1.9275  0.8576
17290TIP3    H273286   0.865   6.253  17.076  0.1197  0.0971  0.5639
17291TIP3   OH273287   0.566   5.597  11.684 -0.5069 -0.4875  0.1737
17291TIP3    H173288   0.623   5.558  11.618  0.9522 -0.1639  1.2027
17291TIP3    H273289   0.599   5.564  11.767 -2.7313 -1.4198  0.7556
17292TIP3   OH273290   6.731   1.805  12.487 -0.0191  0.0181  0.3189
17292TIP3    H173291   6.714   1.818  12.581 -0.4131 -1.2936  0.4429
17292TIP3    H273292   6.816   1.846  12.473  1.3763 -2.1366  1.8637
17293TIP3   OH273293   5.739   5.697  13.911  0.1147 -0.0260  0.8245
17293TIP3    H173294   5.706   5.754  13.842 -0.5226 -2.2506 -0.8177
17293TIP3    H273295   5.668   5.634  13.927  1.6564 -1.8753  0.7726
17294TIP3   OH273296   5.019   1.576   4.376 -0.5740  0.5558 -0.0414
17294TIP3    H173297   5.079   1.619   4.437  0.5182 -0.1104 -0.6112
17294TIP3    H273298   5.046   1.607   4.290 -1.9052  1.2465 -0.2338
17295TIP3   OH273299   5.350   5.260   1.675  0.1901 -0.5611  0.3480
17295TIP3    H173300   5.304   5.209   1.742 -1.3462  1.4657  0.9570
17295TIP3    H273301   5.318   5.225   1.592 -1.2176 -0.3232  0.7500
17296TIP3   OH273302   0.067   5.942  13.179  0.2077 -0.7528  0.0735
17296TIP3    H173303   0.009   5.996  13.233 -0.8103 -1.1307 -0.6131
17296TIP3    H273304   0.145   5.995  13.166 -0.0792 -0.1349  0.8071
17297TIP3   OH273305   0.653   5.144  11.509 -0.6253 -0.1712 -0.6162
17297TIP3    H173306   0.717   5.197  11.558 -1.7488 -0.1799  0.9404
17297TIP3    H273307   0.702   5.112  11.434  0.6607  1.4102 -0.5252
17298TIP3   OH273308   6.486   6.449  10.895  0.4452  0.5225 -0.1297
17298TIP3    H173309   6.443   6.378  10.848  0.5689 -1.1349  2.0683
17298TIP3    H273310   6.575   6.451  10.860  0.2977 -0.0855 -0.5497
17299TIP3   OH273311   1.565   0.548  16.002  0.2622 -0.1632  0.6760
17299TIP3    H173312   1.491   0.488  16.012 -0.9903  1.2683  0.4099
17299TIP3    H273313   1.598   0.530  15.914 -0.6142  0.0770  0.2894
17300TIP3   OH273314   0.168   6.100  17.180  0.3014  0.3731  0.4496
17300TIP3    H173315   0.124   6.015  17.186 -1.8477  1.5168  1.7278
17300TIP3    H273316   0.200   6.104  17.089  1.0382 -2.0411  0.5383
17301TIP3   OH273317   3.673   0.279  12.967 -0.9014  0.3987 -0.2480
17301TIP3    H173318   3.697   0.188  12.982 -1.2840 -0.0527 -2.1060
17301TIP3    H273319   3.682   0.321  13.052  1.0017 -0.9726  0.2856
17302TIP3   OH273320   1.585   3.297   5.180  0.4998 -0.3039  0.3598
17302TIP3    H173321   1.679   3.307   5.165  0.2304  1.0051 -0.5482
17302TIP3    H273322   1.575   3.309   5.274  0.8897  2.9014  0.0776
17303TIP3   OH273323   0.812   1.819   2.295  0.5833  0.6070  0.5059
17303TIP3    H173324   0.767   1.799   2.377 -0.8588  0.8163 -0.1936
17303TIP3    H273325   0.751   1.791   2.227  1.5571  0.8520 -0.5048
17304TIP3   OH273326   3.257   2.711   2.027 -0.5327  0.0025 -0.0259
17304TIP3    H173327   3.348   2.720   1.998  0.0127 -2.0931  0.8201
17304TIP3    H273328   3.206   2.754   1.960  1.0179  0.1340 -1.1816
17305TIP3   OH273329   5.994   1.965  14.792  0.2813 -0.3268 -0.5393
17305TIP3    H173330   5.935   2.034  14.821  0.6282 -0.4365  0.4882
17305TIP3    H273331   6.039   2.001  14.716  0.1420  0.4198 -0.2705
17306TIP3   OH273332   0.519   1.100   1.140 -0.0360 -0.5442 -0.0273
17306TIP3    H173333   0.475   1.175   1.100  0.6711 -1.5150 -2.9194
17306TIP3    H273334   0.607   1.132   1.161  0.5470 -0.6968 -2.0349
17307TIP3   OH273335   2.615   0.038   4.418  0.1153  0.1223  0.4750
17307TIP3    H173336   2.546   0.087   4.463  0.3426 -1.0728  2.2235
17307TIP3    H273337   2.696   0.063   4.464  0.3648 -1.0594  0.6999
17308TIP3   OH273338   1.888   4.890  16.213 -0.0382  0.1590  0.3961
17308TIP3    H173339   1.950   4.914  16.282  0.8090  1.4322 -0.7499
17308TIP3    H273340   1.942   4.858  16.141 -0.9517 -1.8249  0.5434
17309TIP3   OH273341   4.766   0.031  13.879 -0.0453  0.3763  0.4425
17309TIP3    H173342   4.677   0.057  13.903  0.5501  1.4316  1.6157
17309TIP3    H273343   4.812   0.024  13.962  2.0645  3.9369 -0.2309
17310TIP3   OH273344   6.227   0.517  17.004  0.0564 -0.3719 -0.0106
17310TIP3    H173345   6.319   0.518  16.977  0.1262  0.3920  0.2230
17310TIP3    H273346   6.223   0.577  17.078 -0.8138  0.4177 -0.6717
17311TIP3   OH273347   2.297   0.935  16.770  0.1737  0.2014  0.4757
17311TIP3    H173348   2.333   1.006  16.717  0.8241  1.0103  1.9373
17311TIP3    H273349   2.340   0.944  16.855 -0.0019 -1.7358  0.8229
17312TIP3   OH273350   0.804   5.081   4.459  0.0533  0.4014  0.4989
17312TIP3    H173351   0.815   5.022   4.385 -1.1654 -2.2103  2.2696
17312TIP3    H273352   0.713   5.109   4.454  0.2913  1.1842  0.3758
17313TIP3   OH273353   5.216   3.984  10.685 -0.6342  0.1687  0.1734
17313TIP3    H173354   5.177   4.055  10.736 -2.0221 -0.4057 -0.0223
17313TIP3    H273355   5.249   3.923  10.750 -1.6481 -0.1665  0.3855
17314TIP3   OH273356   4.812   3.716   4.980  0.1629 -0.0340  0.3312
17314TIP3    H173357   4.792   3.707   4.887  1.6249  0.3235 -0.0468
17314TIP3    H273358   4.771   3.639   5.020  0.8520 -1.0735 -0.8540
17315TIP3   OH273359   6.409   2.209  15.903  0.2869  0.0090  0.4868
17315TIP3    H173360   6.504   2.214  15.919  0.1340  0.9092  1.1683
17315TIP3    H273361   6.378   2.299  15.912 -0.8702 -0.4868  1.7185
17316TIP3   OH273362   6.356   1.980   5.675  0.0463 -0.1702 -0.2916
17316TIP3    H173363   6.275   1.930   5.667 -0.0765 -0.3665  1.6350
17316TIP3    H273364   6.343   2.035   5.752  1.0219  1.2613 -1.0915
17317TIP3   OH273365   1.378   2.430  16.872 -0.4468 -0.0372 -0.2092
17317TIP3    H173366   1.413   2.480  16.798 -1.5891 -1.6244 -1.9488
17317TIP3    H273367   1.371   2.493  16.943  0.8639  1.5346 -1.3970
17318TIP3   OH273368   5.592   6.534  13.950 -0.3704  0.1185  0.4682
17318TIP3    H173369   5.664   6.502  13.897 -2.1957 -1.8489 -0.9847
17318TIP3    H273370   5.530   6.571  13.887 -1.2570  0.4725  1.5145
17319TIP3   OH273371   4.916   5.493   2.332  0.0018 -0.4767  0.0240
17319TIP3    H173372   4.967   5.489   2.251  0.4872 -0.3808  0.3153
17319TIP3    H273373   4.981   5.511   2.400 -0.3647 -0.7974  0.4676
17320TIP3   OH273374   4.906   5.218   2.088  0.0594 -0.1628  0.1841
17320TIP3    H173375   4.848   5.153   2.127 -0.1572  1.0527  2.0305
17320TIP3    H273376   4.847   5.284   2.051  0.2800 -0.4748 -0.7459
17321TIP3   OH273377   5.638   5.348  14.914  0.0330  0.1309  0.6751
17321TIP3    H173378   5.722   5.310  14.886 -0.3448  0.4805 -1.0397
17321TIP3    H273379   5.578   5.274  14.913  0.0336  0.1313  0.6062
17322TIP3   OH273380   1.589   5.795  10.797 -0.4355  0.7488  0.8592
17322TIP3    H173381   1.512   5.832  10.755  0.0435  0.8924  0.0830
17322TIP3    H273382   1.570   5.702  10.805 -0.7214  0.7970  0.7292
17323TIP3   OH273383   1.254   6.012  10.848  0.2521 -0.3107 -0.1124
17323TIP3    H173384   1.319   6.023  10.917 -0.5290  1.7334  0.3770
17323TIP3    H273385   1.285   5.938  10.796  1.7746 -0.7794  1.3950
17324TIP3   OH273386   6.748   2.653  15.015  0.3255 -0.0454 -0.1482
17324TIP3    H173387   6.808   2.610  15.076 -0.2960  0.8338  1.1025
17324TIP3    H273388   6.661   2.623  15.041  0.0647  0.1974 -0.7165
17325TIP3   OH273389   1.735   4.503   5.183 -0.5541 -0.7689  0.4532
17325TIP3    H173390   1.717   4.594   5.206 -1.1468 -1.2213  1.9055
17325TIP3    H273391   1.799   4.508   5.112  1.2373  0.7467  2.0724
17326TIP3   OH273392   2.411   2.565   1.139  0.0606 -0.5606 -0.0717
17326TIP3    H173393   2.335   2.573   1.083  0.5829 -0.6307 -0.8057
17326TIP3    H273394   2.429   2.471   1.143  1.9024 -0.3919 -2.4095
17327TIP3   OH273395   0.895   5.238  15.019 -0.0430 -0.2631 -0.4590
17327TIP3    H173396   0.911   5.148  14.992 -0.4021 -1.0565  1.7453
17327TIP3    H273397   0.982   5.280  15.014  0.6055 -1.4045  0.7243
17328TIP3   OH273398   5.208   5.822   6.172  0.3541  0.0667  0.1072
17328TIP3    H173399   5.257   5.868   6.105 -0.4477  1.5353  0.4771
17328TIP3    H273400   5.243   5.733   6.171  2.2540  0.7778 -0.3498
17329TIP3   OH273401   5.771   1.756  15.826 -0.4442  0.0519 -0.8018
17329TIP3    H173402   5.737   1.716  15.746  1.4942 -0.1307 -1.6010
17329TIP3    H273403   5.750   1.692  15.895  0.3253 -1.1524 -1.6423
17330TIP3   OH273404   5.648   1.020  15.531  0.0623  0.3735  0.1027
17330TIP3    H173405   5.559   0.998  15.560  0.6396 -0.7205  1.1569
17330TIP3    H273406   5.671   0.952  15.468 -0.2388  1.2930 -1.0253
17331TIP3   OH273407   5.055   0.811   4.550  0.0192  0.0031 -0.2755
17331TIP3    H173408   4.969   0.805   4.592  0.5454 -1.0701  0.7008
17331TIP3    H273409   5.078   0.904   4.555 -0.5818  0.1201  0.4920
17332TIP3   OH273410   0.707   4.217   1.472  0.0558 -0.2755  0.1340
17332TIP3    H173411   0.755   4.294   1.442  0.9578 -0.7879  0.2027
17332TIP3    H273412   0.769   4.145   1.461 -0.9401 -1.0844 -0.4224
17333TIP3   OH273413   6.349   3.859  12.024  0.1767  0.7891  0.0752
17333TIP3    H173414   6.292   3.901  11.960  0.4366  1.2912  0.1733
17333TIP3    H273415   6.318   3.891  12.109 -0.8051 -0.6229  0.2928
17334TIP3   OH273416   1.849   0.496   1.646 -0.2415  0.1259  0.3529
17334TIP3    H173417   1.940   0.468   1.636  0.2505  2.2691 -2.3014
17334TIP3    H273418   1.854   0.576   1.699 -0.7663 -0.4097  1.2473
17335TIP3   OH273419   0.525   3.019  11.638 -0.0254 -0.0051 -0.4167
17335TIP3    H173420   0.536   3.047  11.547  0.5720 -1.2830 -0.7605
17335TIP3    H273421   0.437   2.981  11.641 -0.6345  1.3901 -0.0756
17336TIP3   OH273422   5.881   5.231   4.637 -0.0419 -0.1634 -0.2735
17336TIP3    H173423   5.842   5.308   4.678 -0.2571  0.4341 -1.5553
17336TIP3    H273424   5.874   5.163   4.703 -0.6117  0.7013  0.5851
17337TIP3   OH273425   0.863   2.338   4.353  0.5005 -0.7895  0.1293
17337TIP3    H173426   0.850   2.310   4.262 -1.2302 -0.3785  0.2134
17337TIP3    H273427   0.887   2.258   4.399 -0.4184 -1.3709 -0.3638
17338TIP3   OH273428   4.308   0.418  16.480  0.5159 -0.0224 -0.6503
17338TIP3    H173429   4.367   0.444  16.410 -0.8228 -0.2096 -1.8854
17338TIP3    H273430   4.259   0.344  16.444 -0.7512  0.3778  0.1847
17339TIP3   OH273431   4.400   5.959  12.024 -0.3223  0.2916 -0.5432
17339TIP3    H173432   4.423   6.004  12.106  0.7445 -0.6769 -0.2800
17339TIP3    H273433   4.373   5.872  12.051 -2.3456  0.7167 -1.0570
17340TIP3   OH273434   5.873   3.144  12.752  0.7203 -0.4581  0.1828
17340TIP3    H173435   5.898   3.147  12.844  1.4020  0.2061 -0.0219
17340TIP3    H273436   5.871   3.050  12.731 -1.3661 -0.7499  1.3663
17341TIP3   OH273437   1.187   0.700  12.814 -0.0824 -0.3094 -0.3183
17341TIP3    H173438   1.153   0.655  12.892  0.4029  1.2937  0.8637
17341TIP3    H273439   1.246   0.767  12.848  1.2624 -0.4797 -2.1585
17342TIP3   OH273440   1.256   4.327   3.523 -0.0959  0.0385  0.2063
17342TIP3    H173441   1.225   4.237   3.540 -3.9204  1.2839  0.8033
17342TIP3    H273442   1.248   4.371   3.607  1.0920  1.1561 -0.2349
17343TIP3   OH273443   1.929   4.507  13.052 -0.2811 -0.0824 -0.3834
17343TIP3    H173444   1.983   4.585  13.064  0.9309 -1.0346  0.6105
17343TIP3    H273445   1.865   4.511  13.122  0.6961 -0.6915  0.5748
17344TIP3   OH273446   6.017   4.421   3.985 -0.1363  0.0614  0.2281
17344TIP3    H173447   5.995   4.454   4.072 -0.9400  1.3381 -0.4304
17344TIP3    H273448   5.976   4.335   3.980 -0.9135  0.3978  0.7513
17345TIP3   OH273449   3.858   3.722  16.024  0.6246  0.4629 -0.2040
17345TIP3    H173450   3.901   3.638  16.039  0.4264  0.6403  1.6662
17345TIP3    H273451   3.926   3.778  15.987  0.3684 -0.8880 -2.9237
17346TIP3   OH273452   4.566   5.055   3.166 -0.0118  0.2906 -0.0422
17346TIP3    H173453   4.483   5.012   3.142  0.0714 -0.0481  0.2893
17346TIP3    H273454   4.561   5.066   3.261  0.3744  0.1679 -0.0072
17347TIP3   OH273455   3.309   1.971   1.417 -0.1206 -0.1377 -0.3131
17347TIP3    H173456   3.293   2.063   1.435  0.5731 -0.2232  0.7873
17347TIP3    H273457   3.397   1.968   1.380  0.2493 -0.4562  0.5749
17348TIP3   OH273458   4.718   1.228  11.446 -0.8195 -0.5045  0.0473
17348TIP3    H173459   4.688   1.292  11.382 -1.3613 -1.0207 -0.2232
17348TIP3    H273460   4.791   1.271  11.491 -1.7698  0.6779  0.5290
17349TIP3   OH273461   1.837   4.581  16.408 -0.1273  0.4914 -0.1001
17349TIP3    H173462   1.797   4.620  16.330 -0.4790  0.5752  0.1223
17349TIP3    H273463   1.885   4.652  16.449  0.5690  0.3034 -0.5714
17350TIP3   OH273464   2.500   3.990  16.560  0.0108 -0.1504  0.3580
17350TIP3    H173465   2.529   3.901  16.581 -0.9217 -0.7409 -0.7824
17350TIP3    H273466   2.522   4.041  16.638  0.0688 -1.4935  1.2516
17351TIP3   OH273467   6.116   0.799   4.548 -0.6423 -0.1245  0.1555
17351TIP3    H173468   6.040   0.741   4.538 -0.8942  0.1215  0.6638
17351TIP3    H273469   6.080   0.884   4.570 -0.3548  0.5651 -1.7952
17352TIP3   OH273470   5.902   5.002  11.301  0.0748 -0.2627  0.9186
17352TIP3    H173471   5.866   5.087  11.325 -0.6792 -0.7577  1.6367
17352TIP3    H273472   5.939   4.968  11.383  0.3519 -0.6295  0.6456
17353TIP3   OH273473   4.790   2.964  13.293  0.0646  0.2777 -0.3348
17353TIP3    H173474   4.830   3.050  13.285  0.4152  0.1629  0.1639
17353TIP3    H273475   4.863   2.905  13.312 -0.4331  0.2110  1.5704
17354TIP3   OH273476   3.805   1.995  12.574  0.3795  0.7899 -0.0152
17354TIP3    H173477   3.812   2.019  12.481  1.4789  1.9866  0.3521
17354TIP3    H273478   3.816   1.900  12.574 -1.7549  0.4875 -1.2832
17355TIP3   OH273479   5.761   2.602   1.266 -0.3231  1.0199 -0.1054
17355TIP3    H173480   5.690   2.542   1.289 -1.4964  2.3537 -0.0740
17355TIP3    H273481   5.840   2.549   1.271 -1.3573 -0.6541 -0.6650
17356TIP3   OH273482   0.574   5.464   0.965  0.2428  0.4447  0.4240
17356TIP3    H173483   0.652   5.504   1.004 -0.3908  0.8441  1.3158
17356TIP3    H273484   0.524   5.537   0.929 -0.0459  0.2638  0.4523
17357TIP3   OH273485   3.806   2.788   1.856 -0.3307  0.1459 -0.1621
17357TIP3    H173486   3.826   2.700   1.825 -0.3156 -0.0473  0.3887
17357TIP3    H273487   3.891   2.825   1.881 -0.1861  0.7266 -1.4157
17358TIP3   OH273488   1.524   5.325   4.842 -0.4820 -0.0112  0.0307
17358TIP3    H173489   1.434   5.335   4.870 -0.6093  0.9509 -0.6613
17358TIP3    H273490   1.523   5.347   4.749  0.8099  2.2402  0.4761
17359TIP3   OH273491   2.032   1.648   2.296  0.6290  0.3764  0.0866
17359TIP3    H173492   2.014   1.737   2.266 -1.0965  0.8202  2.1619
17359TIP3    H273493   2.067   1.603   2.220 -0.6203  2.2081 -1.6648
17360TIP3   OH273494   1.017   1.168  11.478  0.2513  0.1707 -0.1316
17360TIP3    H173495   0.928   1.174  11.445 -0.3489 -2.1992  0.8617
17360TIP3    H273496   1.072   1.154  11.401 -0.6969 -1.8779 -0.4804
17361TIP3   OH273497   1.293   5.912   2.218 -0.0640  0.3004 -0.3386
17361TIP3    H173498   1.350   5.843   2.252 -0.7145 -0.5018 -0.8538
17361TIP3    H273499   1.247   5.945   2.295 -0.0377 -0.1034 -0.1462
17362TIP3   OH273500   2.766   4.704   6.392 -0.3667  0.4857  0.5967
17362TIP3    H173501   2.773   4.610   6.379  0.2233  0.6466 -0.3835
17362TIP3    H273502   2.677   4.718   6.426 -0.3732 -0.4348  0.9733
17363TIP3   OH273503   0.792   5.752  11.335  0.7343  0.2579  0.0937
17363TIP3    H173504   0.712   5.717  11.295  2.0434 -0.3596 -2.1523
17363TIP3    H273505   0.800   5.841  11.299  0.3207  0.8847  1.4817
17364TIP3   OH273506   5.916   3.965  17.131 -0.2315 -0.6210  0.3123
17364TIP3    H173507   5.915   4.061  17.127  1.3729 -0.6011 -0.4058
17364TIP3    H273508   5.849   3.943  17.196 -0.2086  1.0101  0.9314
17365TIP3   OH273509   6.512   1.653   3.927 -0.2888 -0.4038  0.1845
17365TIP3    H173510   6.490   1.746   3.930 -0.0280 -0.3606  2.0854
17365TIP3    H273511   6.605   1.652   3.902 -0.4380 -0.1910 -0.3939
17366TIP3   OH273512   3.759   3.392  10.465 -0.2386  0.0220 -0.1742
17366TIP3    H173513   3.814   3.470  10.473 -0.3047  0.0544 -0.0144
17366TIP3    H273514   3.683   3.421  10.415  0.0915 -0.1328 -0.7694
17367TIP3   OH273515   4.863   3.224   2.078 -0.2081  0.5378 -0.3734
17367TIP3    H173516   4.956   3.246   2.083 -0.2578  0.5127  1.0187
17367TIP3    H273517   4.860   3.129   2.090 -0.3668  0.4167 -1.2781
17368TIP3   OH273518   1.752   0.632  11.388  0.0235  0.2712 -0.1149
17368TIP3    H173519   1.783   0.629  11.298  0.7669 -1.3093  0.1575
17368TIP3    H273520   1.825   0.671  11.437  0.6578 -1.2003  0.1582
17369TIP3   OH273521   4.733   3.353  16.984 -0.1331  0.2452  0.2133
17369TIP3    H173522   4.711   3.446  16.990  1.1335  0.6264 -0.7156
17369TIP3    H273523   4.704   3.327  16.897 -2.0660 -0.7025  1.0835
17370TIP3   OH273524   0.089   2.873   4.700 -0.1508 -0.4281  0.3656
17370TIP3    H173525   0.059   2.960   4.727 -1.3522 -0.9856  0.9203
17370TIP3    H273526   0.153   2.848   4.766  0.0244 -0.0610  0.3356
17371TIP3   OH273527   2.387   4.157  11.543  0.4160  0.0910 -0.2549
17371TIP3    H173528   2.360   4.110  11.622 -0.6453 -0.5061 -0.9517
17371TIP3    H273529   2.442   4.095  11.496  0.3761  0.1473 -0.3762
17372TIP3   OH273530   1.345   3.535  13.341  0.0343 -0.2886  0.3258
17372TIP3    H173531   1.404   3.472  13.299  0.5678  0.6519 -0.3896
17372TIP3    H273532   1.273   3.482  13.375  0.4102 -1.2633 -0.3472
17373TIP3   OH273533   3.048   4.308  11.649  0.2652  0.1562  0.0560
17373TIP3    H173534   3.123   4.275  11.600 -0.6187  1.2511 -2.1465
17373TIP3    H273535   3.044   4.251  11.727  1.5246 -1.9025 -1.2779
17374TIP3   OH273536   3.934   0.391  13.080  0.8923 -0.0242  0.1249
17374TIP3    H173537   3.957   0.443  13.004 -0.2279 -1.9838 -1.6440
17374TIP3    H273538   3.899   0.455  13.143  0.6692  1.5004 -1.4727
17375TIP3   OH273539   4.669   0.653  15.377  0.0090  0.1174 -0.4979
17375TIP3    H173540   4.581   0.688  15.388 -0.7636 -0.9194 -2.8324
17375TIP3    H273541   4.670   0.617  15.288  2.2393 -1.5010  0.1021
17376TIP3   OH273542   6.765   3.541  12.602  0.4001  0.6642  0.0457
17376TIP3    H173543   6.683   3.551  12.555  0.8358 -0.1165 -0.9315
17376TIP3    H273544   6.815   3.620  12.582  0.2373  0.7287 -0.0990
17377TIP3   OH273545   1.856   4.598  12.754  0.1569 -0.1825  0.1788
17377TIP3    H173546   1.853   4.644  12.838 -0.9101 -1.3269  0.8078
17377TIP3    H273547   1.949   4.599  12.729  0.5485 -0.1308  1.5585
17378TIP3   OH273548   4.817   2.137  15.285  0.7107  0.2727  0.9736
17378TIP3    H173549   4.782   2.170  15.368 -0.1826  0.7697  0.4037
17378TIP3    H273550   4.747   2.151  15.221  1.7069  0.6995 -0.0580
17379TIP3   OH273551   1.699   0.569  11.903  0.1577 -0.0755  0.3244
17379TIP3    H173552   1.785   0.569  11.944 -0.2625  0.8804  1.2353
17379TIP3    H273553   1.669   0.660  11.908 -0.9570 -0.4101  0.1203
17380TIP3   OH273554   5.446   3.992   2.289 -0.3501 -0.4322 -0.3582
17380TIP3    H173555   5.431   4.084   2.265  1.0112  0.1477  0.8064
17380TIP3    H273556   5.466   3.948   2.207 -1.3507  0.2292 -0.9785
17381TIP3   OH273557   1.717   6.573  13.890  0.5410 -0.3879  0.0089
17381TIP3    H173558   1.764   6.490  13.894 -0.9598 -1.2996 -0.6573
17381TIP3    H273559   1.639   6.554  13.839  0.0521  1.3898  0.0432
17382TIP3   OH273560   2.748   0.053   3.065  0.4016 -0.2438 -0.1380
17382TIP3    H173561   2.782  -0.031   3.095 -0.5893  0.1265  2.2600
17382TIP3    H273562   2.816   0.116   3.087  0.9328 -0.3222 -1.4816
17383TIP3   OH273563   3.206   5.593   1.289 -0.0018 -0.2211 -0.0179
17383TIP3    H173564   3.253   5.663   1.335 -1.8462 -0.5409  2.6424
17383TIP3    H273565   3.127   5.636   1.255  1.1510 -0.0830 -2.7125
17384TIP3   OH273566   1.108   1.981   5.845 -0.4047  0.5482 -0.7497
17384TIP3    H173567   1.130   2.017   5.931  1.7113 -0.4221 -0.8235
17384TIP3    H273568   1.167   2.026   5.784  0.7596 -1.3690 -1.1279
17385TIP3   OH273569   2.511   1.129   0.291 -0.2234  0.1392  0.2763
17385TIP3    H173570   2.450   1.120   0.218 -1.7387  0.4089  1.4548
17385TIP3    H273571   2.564   1.206   0.269  0.9303 -1.1095 -1.5744
17386TIP3   OH273572   6.530   3.293  16.395 -0.1497 -0.2407 -0.0652
17386TIP3    H173573   6.569   3.380  16.394 -0.7370  0.0457 -1.5816
17386TIP3    H273574   6.585   3.242  16.455  0.8610  0.8766 -0.0106
17387TIP3   OH273575   3.720   0.162  11.202 -0.0103  0.2867  0.4415
17387TIP3    H173576   3.649   0.120  11.154  0.7776 -1.4014  0.7030
17387TIP3    H273577   3.744   0.238  11.149 -0.5756 -0.3502 -0.7419
17388TIP3   OH273578   5.805   2.558  13.077 -0.2651 -0.1936 -0.5887
17388TIP3    H173579   5.766   2.479  13.114 -0.4301 -0.1878 -0.7494
17388TIP3    H273580   5.804   2.621  13.148  0.1089 -0.4179 -0.3817
17389TIP3   OH273581   4.904   0.900   2.179  0.1772 -0.7098  0.3163
17389TIP3    H173582   4.981   0.850   2.152  1.0474  1.4721 -1.6309
17389TIP3    H273583   4.937   0.987   2.199 -1.8640  0.6982 -1.8616
17390TIP3   OH273584   0.459   2.468  13.255  0.4380 -0.1299 -0.3975
17390TIP3    H173585   0.416   2.510  13.330  0.1828  0.4456 -0.8567
17390TIP3    H273586   0.427   2.378  13.257  2.0506 -0.7380  1.4173
17391TIP3   OH273587   5.738   3.945  14.177 -0.1563 -0.6267  0.0578
17391TIP3    H173588   5.757   3.912  14.089  2.1761  1.3984 -0.3333
17391TIP3    H273589   5.820   3.986  14.205 -1.0444 -0.5772  2.9187
17392TIP3   OH273590   4.240   0.980   5.586 -0.1944  0.0372 -0.2777
17392TIP3    H173591   4.279   1.020   5.508 -2.6061  1.1232 -1.0409
17392TIP3    H273592   4.268   0.889   5.584  2.2782  0.7407 -0.6806
17393TIP3   OH273593   0.709   0.031   4.936 -0.6474  0.0745  0.0818
17393TIP3    H173594   0.792  -0.008   4.966  0.5141  1.2463 -1.4615
17393TIP3    H273595   0.726   0.056   4.846 -2.2678  1.5853  0.1576
17394TIP3   OH273596   6.059   0.558  11.395 -0.7250 -0.5801  0.2495
17394TIP3    H173597   6.151   0.578  11.377 -0.6044 -1.0221  0.3596
17394TIP3    H273598   6.048   0.575  11.488 -1.0961  0.7476 -0.0236
17395TIP3   OH273599   2.620   6.158  13.406  0.0085 -0.1460 -0.1837
17395TIP3    H173600   2.570   6.091  13.452 -0.7926  1.2255  1.0532
17395TIP3    H273601   2.600   6.239  13.454  1.1642  0.9214 -1.4354
17396TIP3   OH273602   5.502   2.135   2.365 -0.3956 -0.6317  0.0458
17396TIP3    H173603   5.561   2.063   2.384  0.1635 -0.1477  0.1563
17396TIP3    H273604   5.511   2.194   2.440  0.9289  0.7073 -1.1192
17397TIP3   OH273605   2.596   6.068  17.012 -0.0734  0.4677 -0.0884
17397TIP3    H173606   2.677   6.118  17.008  0.8079 -0.8131  0.8891
17397TIP3    H273607   2.603   6.018  17.094 -1.0635 -0.9689 -0.8439
17398TIP3   OH273608   0.340   1.713   3.054  0.1088 -0.5049 -0.3117
17398TIP3    H173609   0.248   1.739   3.058  0.0796 -0.5831 -0.4629
17398TIP3    H273610   0.379   1.749   3.134  0.1075  0.1600 -0.6024
17399TIP3   OH273611   4.891   1.805  11.159  0.2001  0.1787 -0.4038
17399TIP3    H173612   4.963   1.847  11.111 -0.3920  0.8630 -0.7167
17399TIP3    H273613   4.835   1.768  11.090  0.3173 -0.4631 -0.1582
17400TIP3   OH273614   0.702   0.940   5.170 -1.0213 -0.1425  0.3043
17400TIP3    H173615   0.717   0.879   5.098  0.1809 -1.0635  1.2772
17400TIP3    H273616   0.779   0.997   5.170 -0.3951 -0.9377  1.5725
17401TIP3   OH273617   0.950   4.878  13.880 -0.1856 -0.4114  0.2297
17401TIP3    H173618   1.010   4.900  13.950 -1.2988  0.1798  1.0351
17401TIP3    H273619   0.875   4.837  13.924 -1.1599  0.4950 -0.5126
17402TIP3   OH273620   4.082   4.394  15.519 -0.2950 -0.0104  0.2307
17402TIP3    H173621   4.056   4.315  15.473  2.7096 -0.0459 -1.7162
17402TIP3    H273622   4.134   4.363  15.594 -0.7207  0.1333  0.5940
17403TIP3   OH273623   0.774   2.561   1.333 -0.2921 -0.4889  0.2739
17403TIP3    H173624   0.717   2.558   1.256 -0.0968 -2.2087  0.1416
17403TIP3    H273625   0.862   2.548   1.298  0.1051  1.1478  0.5796
17404TIP3   OH273626   3.736   4.426  15.869 -0.1513  0.0042  0.3482
17404TIP3    H173627   3.737   4.346  15.816 -1.7257 -0.0063  0.2800
17404TIP3    H273628   3.797   4.485  15.824 -0.0240 -0.6707 -0.3876
17405TIP3   OH273629   4.238   2.374  17.236  0.6744  0.2277  0.1107
17405TIP3    H173630   4.315   2.393  17.183  0.5042  3.0488  0.7205
17405TIP3    H273631   4.264   2.395  17.325 -0.1820 -0.8825  0.6579
17406TIP3   OH273632   4.152   1.983  15.123  0.4430 -0.2194  0.0834
17406TIP3    H173633   4.079   1.996  15.063  1.3190  0.9644 -0.7750
17406TIP3    H273634   4.127   1.907  15.175 -1.9074  0.7788  0.5702
17407TIP3   OH273635   6.156   6.332   3.397  0.2131 -0.2356 -0.6529
17407TIP3    H173636   6.208   6.413   3.404  1.5147 -0.7351 -3.4213
17407TIP3    H273637   6.221   6.263   3.385 -0.9794 -1.4667 -0.2550
17408TIP3   OH273638   5.878   3.988  15.416  0.3762  0.2993 -0.0387
17408TIP3    H173639   5.799   4.021  15.459  0.1044 -0.8281  0.3485
17408TIP3    H273640   5.941   3.979  15.486  1.4808  2.8759 -0.5871
17409TIP3   OH273641   6.550   0.633   4.262 -0.1421  0.2396 -0.2451
17409TIP3    H173642   6.540   0.672   4.348  1.4047  0.3597 -0.0944
17409TIP3    H273643   6.528   0.540   4.274  0.0660  0.2591  0.2690
17410TIP3   OH273644   2.247   6.694  13.840  0.2426 -0.0381  0.4410
17410TIP3    H173645   2.153   6.684  13.856  0.4829 -0.7280  1.5206
17410TIP3    H273646   2.280   6.604  13.840  1.0775  0.2630  1.2226
17411TIP3   OH273647   6.511   6.192   3.143  0.7488  0.1810  0.4508
17411TIP3    H173648   6.554   6.114   3.108  0.4707  0.7881 -1.3997
17411TIP3    H273649   6.548   6.204   3.230  1.6354 -1.3479  0.3149
17412TIP3   OH273650   5.038   5.121   3.385  0.2809  0.0881 -0.0408
17412TIP3    H173651   5.101   5.184   3.350  0.1393  0.3600  0.1850
17412TIP3    H273652   4.975   5.108   3.315  0.8970 -0.6272 -0.4843
17413TIP3   OH273653   0.918   5.418  15.223  0.1335  0.2809 -0.4429
17413TIP3    H173654   0.888   5.339  15.178 -0.1464  0.9417 -1.4316
17413TIP3    H273655   0.855   5.486  15.198  1.0399  1.0975 -0.5472
17414TIP3   OH273656   4.338   0.927  11.801  0.5067  0.0786  0.0996
17414TIP3    H173657   4.374   0.959  11.884 -1.0946  0.6957  0.5970
17414TIP3    H273658   4.304   1.005  11.759 -1.5578 -0.6374  0.3417
17415TIP3   OH273659   3.947   0.847  14.619 -0.1601  0.8317  0.3665
17415TIP3    H173660   4.000   0.812  14.548 -2.0089  1.6012 -1.5187
17415TIP3    H273661   3.902   0.771  14.656  1.7316  0.2567  1.6084
17416TIP3   OH273662   5.413   1.530   0.363  0.6817  0.5277 -0.2715
17416TIP3    H173663   5.421   1.478   0.443 -0.2133  1.3882  0.4154
17416TIP3    H273664   5.464   1.483   0.298 -0.3966 -1.4303  0.2034
17417TIP3   OH273665   0.590   5.001  13.536 -0.0595 -0.1620 -0.4747
17417TIP3    H173666   0.501   4.972  13.558  0.0798  0.5551  1.1906
17417TIP3    H273667   0.595   4.994  13.441 -1.9199 -0.1307 -0.6047
17418TIP3   OH273668   4.376   5.455  13.417  0.6006 -0.4416 -0.5619
17418TIP3    H173669   4.355   5.381  13.474  0.6643 -2.0823 -2.5711
17418TIP3    H273670   4.351   5.532  13.468  0.1958 -1.8378  1.4648
17419TIP3   OH273671   2.283   6.257  11.692  0.0811 -0.1047 -0.2059
17419TIP3    H173672   2.240   6.172  11.702 -2.0400  1.0916  1.9643
17419TIP3    H273673   2.244   6.295  11.614 -1.5573  0.2056  0.7187
17420TIP3   OH273674   5.804   4.079   5.708 -0.1669 -0.1546 -0.3644
17420TIP3    H173675   5.822   4.085   5.802  1.6201  2.2828 -0.7585
17420TIP3    H273676   5.885   4.042   5.672  0.0150  0.9776 -1.1397
17421TIP3   OH273677   6.346   1.249   0.147 -0.3019 -0.3652  0.2796
17421TIP3    H173678   6.382   1.220   0.230  0.4891  0.1895  0.1473
17421TIP3    H273679   6.251   1.248   0.159 -0.2440 -1.7315  0.6841
17422TIP3   OH273680   1.958   6.262   1.352  0.5172  0.1687  0.1213
17422TIP3    H173681   1.944   6.273   1.258 -2.1020 -0.5239  0.3675
17422TIP3    H273682   1.883   6.305   1.393  0.1503 -1.8882  1.7642
17423TIP3   OH273683   4.522   3.568   6.269  0.2891  0.1833 -0.0090
17423TIP3    H173684   4.467   3.593   6.343  0.8414 -0.4213  0.6124
17423TIP3    H273685   4.583   3.504   6.305  0.9740  0.3584 -0.8406
17424TIP3   OH273686   6.387   2.272  12.820 -0.3951 -0.0647 -0.5296
17424TIP3    H173687   6.336   2.192  12.823 -2.2299  1.0424  2.0779
17424TIP3    H273688   6.340   2.329  12.760 -1.0735  0.2156  0.2504
17425TIP3   OH273689   3.790   6.335   4.467 -0.2980  0.0074 -0.2930
17425TIP3    H173690   3.843   6.395   4.414  0.9683 -2.2698 -1.7739
17425TIP3    H273691   3.710   6.384   4.486  1.0541  2.5004 -0.5348
17426TIP3   OH273692   0.570   4.594   0.164  0.1204  0.7606  0.0415
17426TIP3    H173693   0.565   4.522   0.226 -0.3680  1.8840  1.3756
17426TIP3    H273694   0.495   4.581   0.106 -0.4771  0.6347  0.8088
17427TIP3   OH273695   1.011   3.529  14.534 -0.0387 -0.0959 -0.1051
17427TIP3    H173696   1.051   3.507  14.619 -0.9562 -0.1045  0.3381
17427TIP3    H273697   0.952   3.456  14.516 -0.5449  0.3648 -0.3015
17428TIP3   OH273698   5.823   3.772   0.346  0.3195 -0.1353 -0.1325
17428TIP3    H173699   5.790   3.862   0.336  0.4918  0.0091  0.5431
17428TIP3    H273700   5.886   3.761   0.275  0.8285  0.5267  0.2109
17429TIP3   OH273701   0.305   0.239  15.730  0.4451  0.2848 -0.4015
17429TIP3    H173702   0.279   0.277  15.646  3.2713  0.3605 -1.3385
17429TIP3    H273703   0.246   0.164  15.741 -0.7987  0.9867 -1.7958
17430TIP3   OH273704   6.663   4.352   4.486  0.0662 -0.2784 -0.5014
17430TIP3    H173705   6.715   4.305   4.551 -1.0861  0.5096  1.0537
17430TIP3    H273706   6.667   4.444   4.514 -0.0335  0.1607 -1.8579
17431TIP3   OH273707   5.007   0.385   2.316  0.1581  0.3080 -0.3854
17431TIP3    H173708   5.031   0.430   2.397  3.3381  0.3929 -1.2344
17431TIP3    H273709   5.020   0.292   2.336  0.1749  0.2733 -0.5587
17432TIP3   OH273710   3.178   3.023   6.085 -0.1060 -0.4740  0.3755
17432TIP3    H173711   3.120   3.064   6.149 -0.3256 -0.8402  0.4177
17432TIP3    H273712   3.126   3.022   6.004  0.1407 -0.0853  0.2102
17433TIP3   OH273713   5.638   5.118   5.169  0.1810 -0.1837  0.2446
17433TIP3    H173714   5.727   5.089   5.151  0.5949  1.1733 -0.0384
17433TIP3    H273715   5.600   5.049   5.223  1.2437 -0.9974 -0.0192
17434TIP3   OH273716   5.075   4.432  13.012  0.1113  0.0313 -0.1407
17434TIP3    H173717   5.070   4.340  12.987  2.4620 -0.3938  0.6786
17434TIP3    H273718   5.133   4.472  12.947  0.7401  0.4587  0.6644
17435TIP3   OH273719   4.447   1.103   1.631 -0.2120  0.0957  0.0744
17435TIP3    H173720   4.478   1.117   1.720 -0.2508  1.3198 -0.0961
17435TIP3    H273721   4.489   1.171   1.579  0.8623 -1.4035 -1.1112
17436TIP3   OH273722   3.114   5.605   5.490 -0.3713  0.7176 -0.4766
17436TIP3    H173723   3.056   5.617   5.566 -1.6948  0.6541 -1.4329
17436TIP3    H273724   3.114   5.691   5.447  1.4880  1.1544  0.3145
17437TIP3   OH273725   5.652   3.541   5.171 -0.1190  0.1437  0.2083
17437TIP3    H173726   5.653   3.463   5.227  3.3063 -0.0850  0.0350
17437TIP3    H273727   5.628   3.612   5.230 -0.0079 -0.5864  1.1542
17438TIP3   OH273728   2.628   0.908   5.930 -0.1334  0.0079  0.1251
17438TIP3    H173729   2.635   0.999   5.960 -0.2381  0.0314  0.0768
17438TIP3    H273730   2.537   0.884   5.946 -0.0925 -0.1057  0.1848
17439TIP3   OH273731   6.675   2.184  15.415  0.4505  0.0587  0.2495
17439TIP3    H173732   6.613   2.123  15.455 -0.2013  1.0785  0.8334
17439TIP3    H273733   6.620   2.253  15.377  0.9944 -1.1381 -2.9840
17440TIP3   OH273734   1.941   1.142  15.960  0.6514  0.0819 -0.1926
17440TIP3    H173735   1.880   1.074  15.989  1.0902 -0.5266 -0.6848
17440TIP3    H273736   1.947   1.202  16.035  2.2737 -1.7816  1.2561
17441TIP3   OH273737   1.888   2.726   4.917 -0.6665  0.0187 -0.6262
17441TIP3    H173738   1.825   2.672   4.871 -0.9132 -0.0364 -0.2297
17441TIP3    H273739   1.852   2.735   5.006  0.3765 -0.8636 -0.0862
17442TIP3   OH273740   4.616   6.424  16.579  0.3234 -0.1210  0.3717
17442TIP3    H173741   4.637   6.503  16.628  0.8337 -0.0859  0.0960
17442TIP3    H273742   4.542   6.385  16.627 -1.3627  1.6380 -0.6749
17443TIP3   OH273743   4.810   4.851   1.044 -0.3810  0.1389 -0.2591
17443TIP3    H173744   4.769   4.794   0.979  0.1995 -0.7180  0.0990
17443TIP3    H273745   4.904   4.843   1.026 -0.2692  0.5836  0.1217
17444TIP3   OH273746   0.478   4.619   5.952  0.4994 -0.7069  0.6711
17444TIP3    H173747   0.501   4.594   6.041  0.6796 -0.8398  0.5885
17444TIP3    H273748   0.387   4.589   5.942  0.6908 -1.2851  0.5957
17445TIP3   OH273749   4.075   2.958   3.618 -0.8858  0.1547 -0.5085
17445TIP3    H173750   4.024   2.997   3.547  0.1177  0.4993 -1.0656
17445TIP3    H273751   4.144   2.910   3.573 -0.1406  0.5133  0.2351
17446TIP3   OH273752   4.874   4.245   0.761 -0.3263  0.1865 -0.3721
17446TIP3    H173753   4.913   4.204   0.684  1.7555  1.2601  0.0378
17446TIP3    H273754   4.881   4.180   0.830 -0.9067 -0.2588 -0.7203
17447TIP3   OH273755   6.517   4.188  12.483 -0.3087 -0.0271 -0.3329
17447TIP3    H173756   6.540   4.210  12.573 -0.5711 -0.1881 -0.2250
17447TIP3    H273757   6.425   4.211  12.475 -0.1989  0.3105 -0.6634
17448TIP3   OH273758   2.411   6.326  15.079 -0.6605 -0.5023 -0.0578
17448TIP3    H173759   2.437   6.393  15.016 -0.9248 -0.0913  0.2646
17448TIP3    H273760   2.485   6.265  15.082 -0.7095 -0.6103 -0.8754
17449TIP3   OH273761   1.466   2.162   3.096 -0.5652  0.2391 -0.6574
17449TIP3    H173762   1.414   2.082   3.090 -0.8992  0.4624 -0.7394
17449TIP3    H273763   1.490   2.181   3.005 -0.8300  0.4614 -0.6785
17450TIP3   OH273764   6.593   4.238   3.287 -0.7841 -0.2091 -1.2013
17450TIP3    H173765   6.515   4.283   3.319  0.1724  0.7553 -0.1396
17450TIP3    H273766   6.590   4.250   3.192 -0.8359  1.7160 -1.0111
17451TIP3   OH273767   2.780   5.653   5.888 -0.4141  0.2939  0.4649
17451TIP3    H173768   2.802   5.701   5.968  0.9812 -2.2073  1.6892
17451TIP3    H273769   2.789   5.561   5.912  0.9055 -0.5621 -2.7917
17452TIP3   OH273770   2.905   1.742   2.301  0.0492 -0.4083  0.3115
17452TIP3    H173771   2.919   1.650   2.281 -2.1679 -0.2987 -2.2957
17452TIP3    H273772   2.810   1.752   2.308  0.3208  1.3514  2.6102
17453TIP3   OH273773   2.787   4.771  16.090 -0.1527  0.7209  0.1994
17453TIP3    H173774   2.756   4.814  16.170  0.9308  1.2918  0.3280
17453TIP3    H273775   2.780   4.677  16.109 -1.1961  0.8278  0.4361
17454TIP3   OH273776   5.112   0.272  10.351 -0.3560 -0.4369  0.0096
17454TIP3    H173777   5.134   0.183  10.381  2.5120 -0.0400 -0.5972
17454TIP3    H273778   5.107   0.264  10.256 -0.9310 -0.1057  0.0125
17455TIP3   OH273779   6.353   3.918  11.155  0.0314 -0.5245 -0.0569
17455TIP3    H173780   6.369   3.900  11.062 -1.6727 -0.2560 -0.4276
17455TIP3    H273781   6.266   3.883  11.171  0.0564 -0.0054  1.2920
17456TIP3   OH273782   6.676   4.509  13.812  0.3713  0.4379 -0.1267
17456TIP3    H173783   6.756   4.526  13.762 -0.1869 -1.1615 -1.6489
17456TIP3    H273784   6.617   4.579  13.785  1.7989  2.9424  2.5969
17457TIP3   OH273785   2.611   1.434   4.430 -0.1075 -0.2428 -0.6072
17457TIP3    H173786   2.538   1.447   4.369  0.6646  1.1149 -1.3175
17457TIP3    H273787   2.675   1.382   4.380  0.6246  1.0656 -1.1112
17458TIP3   OH273788   0.096   5.699   4.634  0.3276 -0.0943  0.0997
17458TIP3    H173789   0.096   5.738   4.547  1.5813 -0.1587  0.0594
17458TIP3    H273790   0.034   5.753   4.684 -1.9024 -1.2049 -1.2929
17459TIP3   OH273791   3.111   1.060   2.290 -0.9947 -0.0840 -0.3104
17459TIP3    H173792   3.195   1.026   2.259 -0.2462  1.3385  0.0676
17459TIP3    H273793   3.082   1.119   2.220 -1.1381  0.2640  0.0415
17460TIP3   OH273794   3.747   4.151  15.787  0.4545  0.4577  0.9102
17460TIP3    H173795   3.709   4.112  15.866  1.0993  1.2712  1.6451
17460TIP3    H273796   3.842   4.144  15.800  0.5722  0.0411 -0.0854
17461TIP3   OH273797   4.754   0.897   3.912  0.0127 -0.5472 -0.3423
17461TIP3    H173798   4.696   0.826   3.885  0.7017 -0.4983 -2.0553
17461TIP3    H273799   4.732   0.912   4.004 -1.5460 -1.6059 -0.5070
17462TIP3   OH273800   1.337   4.883  16.289 -0.2096  0.2703  0.3612
17462TIP3    H173801   1.296   4.956  16.243  1.5911  1.2320  0.1906
17462TIP3    H273802   1.336   4.910  16.381  0.6684  0.6244  0.2697
17463TIP3   OH273803   3.681   5.098  11.867  0.2456 -0.2158  0.5366
17463TIP3    H173804   3.714   5.015  11.835  3.3621  0.5816  1.3003
17463TIP3    H273805   3.650   5.144  11.789  0.5349 -1.2246 -0.1909
17464TIP3   OH273806   6.367   0.498   0.253  0.1123 -0.0019 -0.1958
17464TIP3    H173807   6.409   0.413   0.239 -3.1933 -2.0343  0.9687
17464TIP3    H273808   6.346   0.499   0.347 -3.4524  0.1530 -0.8565
17465TIP3   OH273809   6.292   4.058  12.267 -0.0117  0.3913  0.3962
17465TIP3    H173810   6.231   4.116  12.222  0.3529 -0.3166 -1.0626
17465TIP3    H273811   6.256   4.050  12.355 -0.8667  1.6447  0.1882
17466TIP3   OH273812   2.149   1.762  14.039 -0.2749  0.1281  0.0311
17466TIP3    H173813   2.144   1.682  14.090  0.7021  0.6597  1.0268
17466TIP3    H273814   2.060   1.779  14.010 -0.5616 -1.0691  0.1911
17467TIP3   OH273815   3.980   4.028   0.823  0.3203 -0.2895 -0.8701
17467TIP3    H173816   4.067   3.987   0.816 -0.2257 -1.3700 -1.4763
17467TIP3    H273817   3.999   4.122   0.828  1.4668 -0.4169 -2.2518
17468TIP3   OH273818   5.671   2.899   3.041  0.3214  0.3842 -0.5605
17468TIP3    H173819   5.625   2.941   3.114 -2.1089 -1.9344 -0.6005
17468TIP3    H273820   5.747   2.856   3.082  0.7727  1.6830  0.0355
17469TIP3   OH273821   5.005   0.844  11.239 -0.1100  0.2877  0.1515
17469TIP3    H173822   5.004   0.846  11.143 -1.5016  1.1951  0.1472
17469TIP3    H273823   4.960   0.925  11.265  0.8710  0.4115  1.5894
17470TIP3   OH273824   6.337   2.014   5.263  0.6677  0.3093  0.0727
17470TIP3    H173825   6.385   2.070   5.324 -1.2740  2.8375 -0.5511
17470TIP3    H273826   6.388   2.019   5.182 -0.0441  2.2303 -0.3149
17471TIP3   OH273827   3.458   6.141  12.597 -0.6014 -0.1769  0.1614
17471TIP3    H173828   3.384   6.112  12.543 -1.5791  1.2644  0.6658
17471TIP3    H273829   3.449   6.236  12.601 -0.7755 -0.2459  3.1600
17472TIP3   OH273830   5.650   5.838   1.372  0.1243  0.0549  0.1233
17472TIP3    H173831   5.699   5.905   1.324 -0.0713 -0.1522 -0.3623
17472TIP3    H273832   5.648   5.871   1.462  1.3333 -0.0211  0.2023
17473TIP3   OH273833   5.719   6.212   3.604 -0.4895 -0.0049  0.0119
17473TIP3    H173834   5.715   6.116   3.611 -0.4498  0.0739  1.3587
17473TIP3    H273835   5.774   6.228   3.527 -1.2468 -1.0501 -0.7894
17474TIP3   OH273836   3.227   3.741  11.728 -0.5182  0.4708  0.7488
17474TIP3    H173837   3.218   3.670  11.664 -1.8283  0.6707  0.7020
17474TIP3    H273838   3.256   3.816  11.677 -2.5423  0.9164  0.1629
17475TIP3   OH273839   1.355   5.188  15.587  0.4750 -0.1868 -0.0563
17475TIP3    H173840   1.275   5.134  15.587 -0.1565  0.7320 -0.2340
17475TIP3    H273841   1.358   5.225  15.675  1.2252 -0.9427  0.2553
17476TIP3   OH273842   5.841   2.856  12.577  0.2614 -0.3788  0.3147
17476TIP3    H173843   5.874   2.767  12.568 -0.5162 -0.7726  1.1494
17476TIP3    H273844   5.756   2.846  12.621  0.7211  0.8558  1.5623
17477TIP3   OH273845   0.582   3.222   0.972 -0.1558 -0.4511 -0.4985
17477TIP3    H173846   0.616   3.133   0.964  2.1342  0.1862  1.2558
17477TIP3    H273847   0.499   3.220   0.923 -1.8296 -4.3578  1.9517
17478TIP3   OH273848   3.675   3.348   1.672 -0.0136  0.1880 -0.1363
17478TIP3    H173849   3.622   3.308   1.742 -1.3272  0.8260 -0.7253
17478TIP3    H273850   3.757   3.373   1.715 -0.4889 -0.1235  0.9910
17479TIP3   OH273851   5.189   5.854   2.920  0.1747  0.0369  0.4017
17479TIP3    H173852   5.122   5.799   2.960 -0.4867 -1.4467 -2.4615
17479TIP3    H273853   5.271   5.821   2.954 -0.2773 -2.1391 -0.4497
17480TIP3   OH273854   5.698   2.189   4.134  0.4389 -0.4516  0.9252
17480TIP3    H173855   5.639   2.116   4.115 -0.0132  0.0357  0.4416
17480TIP3    H273856   5.785   2.154   4.115  0.2359 -0.9006  0.8038
17481TIP3   OH273857   0.203   6.257  16.278  0.0928  0.3341  0.4626
17481TIP3    H173858   0.215   6.172  16.319  0.4769  0.4537  0.5982
17481TIP3    H273859   0.126   6.246  16.223  1.0638 -0.5647 -0.7598
17482TIP3   OH273860   3.138   4.954  12.986  0.1308  0.3973  0.0215
17482TIP3    H173861   3.178   5.036  13.015  0.5410  0.3608 -0.4153
17482TIP3    H273862   3.099   4.916  13.064  0.9613  0.4376  0.4633
17483TIP3   OH273863   1.998   5.308   3.379 -0.0253 -0.0750  0.9153
17483TIP3    H173864   1.994   5.222   3.336 -1.4049  0.9659 -1.2547
17483TIP3    H273865   1.998   5.370   3.307 -1.2257  1.7986  2.4401
17484TIP3   OH273866   5.205   1.339   5.849 -0.4312 -0.3709 -0.4966
17484TIP3    H173867   5.239   1.282   5.779  0.2773  1.2552 -1.5341
17484TIP3    H273868   5.190   1.423   5.806 -1.7676  0.1537  0.9282
17485TIP3   OH273869   3.384   3.262   4.914 -0.1253 -0.4976  0.2403
17485TIP3    H173870   3.382   3.183   4.860 -0.1437  0.4965 -1.2696
17485TIP3    H273871   3.301   3.260   4.962 -1.7495  0.2730 -2.3416
17486TIP3   OH273872   3.730   6.229  14.722 -0.2103  0.1006  0.3406
17486TIP3    H173873   3.790   6.245  14.649 -0.0796  0.1858  0.4657
17486TIP3    H273874   3.772   6.272  14.797 -0.4227  0.1525  0.4313
17487TIP3   OH273875   3.146   6.221  15.779 -0.2196  0.6059  0.4030
17487TIP3    H173876   3.148   6.219  15.875 -1.5803 -1.8487  0.4517
17487TIP3    H273877   3.056   6.242  15.757 -0.5444 -1.2420 -0.2520
17488TIP3   OH273878   4.350   0.563   1.911  0.0944  0.5082 -0.3129
17488TIP3    H173879   4.311   0.491   1.960  1.4887 -0.0117  0.0835
17488TIP3    H273880   4.288   0.580   1.840 -0.8555 -0.2386  0.3122
17489TIP3   OH273881   4.508   3.708   6.029 -0.1398  0.1936 -0.0995
17489TIP3    H173882   4.484   3.669   6.113  1.8255 -0.7919  0.0749
17489TIP3    H273883   4.598   3.737   6.041  0.7683 -1.3608 -2.2665
17490TIP3   OH273884   1.654   2.665   3.993 -1.0002 -0.1487  0.4839
17490TIP3    H173885   1.647   2.752   4.033  1.7978  0.1305  0.5624
17490TIP3    H273886   1.587   2.613   4.037 -1.0088  1.2891  2.3073
17491TIP3   OH273887   3.108   4.101   0.064 -0.2702 -0.3478  0.6184
17491TIP3    H173888   3.056   4.155   0.124  0.4822  1.8010 -0.5264
17491TIP3    H273889   3.130   4.161  -0.008  2.9960 -1.3849  0.5990
17492TIP3   OH273890   5.397   2.715  12.425 -0.6712  0.1688 -0.0636
17492TIP3    H173891   5.315   2.723  12.376 -0.5571 -0.2086 -0.3199
17492TIP3    H273892   5.419   2.622  12.419 -0.4359  0.1961  0.3484
17493TIP3   OH273893   2.525   1.447  13.668 -0.3566 -0.8377  0.0754
17493TIP3    H173894   2.506   1.442  13.575  0.1352  2.4572 -0.3389
17493TIP3    H273895   2.514   1.540  13.690 -0.3261 -1.4545  3.2872
17494TIP3   OH273896   3.689   5.120  16.957  0.0984  0.2137  0.0227
17494TIP3    H173897   3.674   5.214  16.944  1.3570  0.2678 -1.3009
17494TIP3    H273898   3.682   5.082  16.869  1.2505 -0.6596  0.2808
17495TIP3   OH273899   2.276   2.232   5.222  0.0014  0.3485  0.8409
17495TIP3    H173900   2.365   2.225   5.256 -1.0149 -0.8707  3.5911
17495TIP3    H273901   2.256   2.143   5.190 -0.1198  0.7239 -0.1707
17496TIP3   OH273902   2.796   6.606  15.630  0.0782 -0.0287  0.0467
17496TIP3    H173903   2.750   6.608  15.714  0.2617 -0.8051  0.1685
17496TIP3    H273904   2.881   6.567  15.650  0.0280 -0.4473 -0.5456
17497TIP3   OH273905   2.693   3.364  16.809 -0.4065 -0.4196 -0.0694
17497TIP3    H173906   2.729   3.284  16.770 -1.5697 -1.1873  0.3342
17497TIP3    H273907   2.709   3.432  16.744 -0.7050 -1.2979 -1.0978
17498TIP3   OH273908   3.577   5.638  12.950 -0.4556 -0.4473  0.2147
17498TIP3    H173909   3.564   5.670  12.861  0.4673 -0.5737  0.0261
17498TIP3    H273910   3.518   5.693  13.003  0.2242  0.7831 -0.2572
17499TIP3   OH273911   5.348   5.262  11.869  0.4348 -0.0349 -0.6005
17499TIP3    H173912   5.297   5.235  11.945 -0.0611  1.2771 -0.4378
17499TIP3    H273913   5.436   5.275  11.902  0.6304 -1.1576 -0.6351
17500TIP3   OH273914   0.614   3.220   2.115  0.0521 -0.1255 -0.3587
17500TIP3    H173915   0.689   3.164   2.135  0.4370  0.9546  1.5288
17500TIP3    H273916   0.584   3.250   2.201 -1.4623  0.8488 -1.1917
17501TIP3   OH273917   5.245   5.915   0.246  0.2567 -0.0750 -0.0310
17501TIP3    H173918   5.310   5.891   0.180  0.0047 -1.1946  0.1044
17501TIP3    H273919   5.275   5.999   0.281  1.7400 -0.6553  0.1630
17502TIP3   OH273920   0.900   1.841   4.687 -0.4026 -0.3485  0.3185
17502TIP3    H173921   0.994   1.854   4.674 -0.7169  0.5058 -1.3364
17502TIP3    H273922   0.889   1.746   4.684  0.1758 -0.4034 -1.5971
17503TIP3   OH273923   1.927   2.493   5.609  0.5017  0.5344  0.3827
17503TIP3    H173924   2.022   2.482   5.605  0.3885 -0.2396 -0.7059
17503TIP3    H273925   1.896   2.460   5.525 -0.6945  1.2571  0.5192
17504TIP3   OH273926   3.037   6.294  12.717  0.3051  0.4212 -0.4954
17504TIP3    H173927   2.946   6.285  12.745 -0.0937  1.4568 -1.3651
17504TIP3    H273928   3.035   6.366  12.653  1.3118 -1.0859 -2.3349
17505TIP3   OH273929   2.499   1.104  14.360  0.0321  0.0870  0.1877
17505TIP3    H173930   2.492   1.190  14.319  0.3356 -0.1577 -0.3868
17505TIP3    H273931   2.532   1.047  14.291 -1.5067 -0.8002  0.1292
17506TIP3   OH273932   2.136   4.681  12.739 -0.0329 -0.1493  0.0924
17506TIP3    H173933   2.160   4.710  12.827 -0.0142 -0.6793  0.2619
17506TIP3    H273934   2.219   4.667  12.695 -0.0374 -0.6006  0.2259
17507TIP3   OH273935   2.787   0.959  11.675  0.0394  0.3239  0.3938
17507TIP3    H173936   2.865   0.990  11.628  1.6580 -0.3868  2.4369
17507TIP3    H273937   2.750   1.038  11.714 -0.6372  0.7477 -1.0435
17508TIP3   OH273938   3.116   3.591  12.074 -0.1703 -0.2935  0.9987
17508TIP3    H173939   3.047   3.609  12.011 -1.4021 -0.3924  2.2826
17508TIP3    H273940   3.178   3.536  12.025 -1.4263 -0.9584  0.0696
17509TIP3   OH273941   3.435   3.476  16.597  0.3296  0.0589  0.5256
17509TIP3    H173942   3.428   3.564  16.636 -0.9575  0.4600 -0.5510
17509TIP3    H273943   3.475   3.491  16.512  0.7048 -0.4917  0.6032
17510TIP3   OH273944   0.100   1.260   3.777  0.3567  0.1509  0.1535
17510TIP3    H173945   0.167   1.212   3.826 -0.1126 -0.3785  0.2778
17510TIP3    H273946   0.102   1.223   3.689  0.5604  0.4684  0.0232
17511TIP3   OH273947   4.782   4.460   0.899 -0.0905  0.2033 -0.5824
17511TIP3    H173948   4.850   4.527   0.893 -0.7792  1.0703  0.7977
17511TIP3    H273949   4.816   4.387   0.847  1.2356  1.1463 -1.1026
17512TIP3   OH273950   4.041   5.226   5.520 -0.0110 -0.0294  0.3942
17512TIP3    H173951   4.112   5.290   5.507 -0.6487  0.5174 -0.5454
17512TIP3    H273952   4.028   5.224   5.614  1.4877 -0.4045  0.6256
17513TIP3   OH273953   4.794   3.783  14.558  0.3988  0.7994 -0.2013
17513TIP3    H173954   4.793   3.774  14.463  0.8037  0.5595 -0.1835
17513TIP3    H273955   4.854   3.855  14.575  1.9885 -0.5090 -0.0304
17514TIP3   OH273956   1.071   3.527   0.090  0.1211  0.3639  0.8279
17514TIP3    H173957   1.007   3.458   0.072 -2.1224  1.7822  2.8144
17514TIP3    H273958   1.067   3.584   0.012 -1.0481  0.4055  0.8979
17515TIP3   OH273959   1.495   3.297   2.918 -0.4633 -0.3360 -0.5873
17515TIP3    H173960   1.508   3.366   2.853  0.8383  3.2552  3.0030
17515TIP3    H273961   1.580   3.254   2.925 -0.5934 -0.6949 -1.2198
17516TIP3   OH273962   1.411   2.363   4.497  0.2776 -0.1085 -0.6734
17516TIP3    H173963   1.424   2.353   4.592 -0.2906  2.0182 -0.3230
17516TIP3    H273964   1.499   2.379   4.463  0.1490  2.9218  0.1038
17517TIP3   OH273965   3.845   3.790   0.466 -0.0109 -0.3934  0.0207
17517TIP3    H173966   3.802   3.813   0.549 -0.7545 -0.6252 -0.2861
17517TIP3    H273967   3.789   3.830   0.399  0.4203 -0.4558 -0.3768
17518TIP3   OH273968   3.420   4.742   0.988 -0.1942  0.0677 -0.6633
17518TIP3    H173969   3.493   4.773   0.934 -0.5020  0.1414 -1.0466
17518TIP3    H273970   3.351   4.720   0.925 -0.9070  1.0554 -0.2697
17519TIP3   OH273971   5.187   6.592  13.549  0.1595 -0.2941 -0.5679
17519TIP3    H173972   5.192   6.626  13.460 -1.7154 -0.1010 -0.6390
17519TIP3    H273973   5.100   6.552  13.555 -0.1234  0.4812  1.4197
17520TIP3   OH273974   3.456   1.975  10.837  0.8815  0.3655  0.4826
17520TIP3    H173975   3.535   1.976  10.892  0.2219  1.1363  1.4321
17520TIP3    H273976   3.416   1.890  10.854  1.1926  0.2089  0.4420
17521TIP3   OH273977   2.543   0.477  12.721  0.1910  0.5773 -0.3306
17521TIP3    H173978   2.460   0.487  12.675  0.1435 -2.9916 -1.3236
17521TIP3    H273979   2.517   0.464  12.813 -0.6566 -2.2157 -0.8494
17522TIP3   OH273980   1.170   2.091  12.232  0.2291 -0.2709 -0.6569
17522TIP3    H173981   1.230   2.151  12.276 -0.2118 -0.3364  0.0624
17522TIP3    H273982   1.181   2.109  12.139  2.0607 -0.9481 -0.6168
17523TIP3   OH273983   6.409   3.869  13.604  0.4064 -0.0564 -0.2194
17523TIP3    H173984   6.468   3.922  13.657  0.5884  0.0056 -0.4831
17523TIP3    H273985   6.321   3.893  13.635  0.4459  0.9079 -0.7899
17524TIP3   OH273986   2.775   5.500   6.422  0.0092  0.4849 -0.2804
17524TIP3    H173987   2.842   5.490   6.490 -0.6911  0.7543  0.4585
17524TIP3    H273988   2.726   5.418   6.425 -0.6510  0.8844  0.2453
17525TIP3   OH273989   2.342   3.965   5.257 -0.1280  0.6530  0.4217
17525TIP3    H173990   2.268   3.911   5.282  0.9197 -0.8804  0.3210
17525TIP3    H273991   2.309   4.055   5.263 -1.8532  0.0313  0.7602
17526TIP3   OH273992   0.119   0.761   2.122  0.0391 -0.2306  0.0230
17526TIP3    H173993   0.026   0.743   2.136 -0.1426  0.7091  0.0655
17526TIP3    H273994   0.133   0.743   2.029 -0.6544  1.5111 -0.4576
17527TIP3   OH273995   1.462   1.248  12.391 -0.0824 -0.2964 -0.1040
17527TIP3    H173996   1.469   1.257  12.486 -0.4058  1.4294 -0.2008
17527TIP3    H273997   1.486   1.334  12.357  3.3683 -1.7444 -1.8320
17528TIP3   OH273998   3.317   0.510   5.008  0.4610  0.1504 -0.5921
17528TIP3    H173999   3.251   0.445   5.032  0.4355  0.2031 -0.5205
17528TIP3    H274000   3.396   0.458   4.990  1.1609  0.2314  1.8288
17529TIP3   OH274001   6.385   0.108   3.027  0.3742 -0.3752  0.1389
17529TIP3    H174002   6.389   0.100   3.122  1.8404 -1.6304  0.0110
17529TIP3    H274003   6.291   0.117   3.007 -0.0677 -1.4326  1.5994
17530TIP3   OH274004   6.449   4.478  12.991 -0.1763 -0.3652 -0.4695
17530TIP3    H174005   6.388   4.445  12.925  0.2356 -0.2476 -0.9116
17530TIP3    H274006   6.470   4.567  12.963  0.1389 -0.3767 -0.2760
17531TIP3   OH274007   6.755   1.039  11.809  0.1937  0.3390  0.6020
17531TIP3    H174008   6.687   1.100  11.781 -1.0124 -0.4887  1.6207
17531TIP3    H274009   6.726   0.954  11.777  0.5734 -0.0822  1.3462
17532TIP3   OH274010   0.195   1.077  13.642 -0.2749 -0.3646 -0.7212
17532TIP3    H174011   0.107   1.113  13.646 -0.0438  0.2204 -0.7620
17532TIP3    H274012   0.225   1.099  13.553  0.3456  0.4937 -0.3110
17533TIP3   OH274013   4.995   0.816  15.748 -0.0802 -0.1798 -0.0639
17533TIP3    H174014   4.963   0.793  15.835 -1.6253  0.4254 -0.4236
17533TIP3    H274015   4.916   0.816  15.693  0.9427 -1.1192 -1.5968
17534TIP3   OH274016   3.077   2.120   5.638  0.4056 -0.4284  0.4025
17534TIP3    H174017   3.087   2.215   5.648 -1.8533 -0.0867 -0.1603
17534TIP3    H274018   3.069   2.088   5.728  1.3672 -0.1491  0.6096
17535TIP3   OH274019   3.063   6.543  11.065  0.9621 -0.2629  0.6567
17535TIP3    H174020   3.141   6.491  11.082  2.1031  1.3508  0.5649
17535TIP3    H274021   3.080   6.586  10.981 -0.0024  0.1717  0.6619
17536TIP3   OH274022   1.994   2.661  16.182 -0.1888  0.2690  0.0545
17536TIP3    H174023   1.998   2.746  16.226 -0.4751  0.0826  0.4474
17536TIP3    H274024   1.900   2.643  16.174 -0.1331  0.1722 -0.3831
17537TIP3   OH274025   2.449   6.136   3.131  0.1768  0.8486  0.2048
17537TIP3    H174026   2.401   6.056   3.152  0.0409  1.3515  1.9399
17537TIP3    H274027   2.380   6.201   3.114  0.2659  0.4054 -2.3003
17538TIP3   OH274028   0.052   2.236  14.014  0.4799  0.0146  0.8794
17538TIP3    H174029   0.086   2.152  13.981 -0.2244 -1.2810  3.2279
17538TIP3    H274030  -0.030   2.248  13.966  1.1952  0.0372 -0.3814
17539TIP3   OH274031   6.040   5.776  15.232 -0.9326 -0.1643  0.3437
17539TIP3    H174032   6.077   5.693  15.261 -1.4106 -0.0598  1.3350
17539TIP3    H274033   5.994   5.809  15.310 -2.6170 -0.0339 -0.6712
17540TIP3   OH274034   1.063   1.687  15.038 -0.2686 -0.4470 -0.1807
17540TIP3    H174035   1.048   1.594  15.054 -1.1754  0.1174  3.1099
17540TIP3    H274036   0.982   1.718  14.997 -0.5543 -0.8369  0.0818
17541TIP3   OH274037   3.936   3.016   3.969 -0.3623 -0.0998  0.3718
17541TIP3    H174038   4.013   2.961   3.980  0.1057  0.6505  0.9687
17541TIP3    H274039   3.961   3.079   3.902 -0.3998  0.2339  0.6660
17542TIP3   OH274040   4.474   0.954   3.369 -0.1002 -0.0650 -0.3912
17542TIP3    H174041   4.391   0.990   3.337  0.3673 -0.3823 -2.0655
17542TIP3    H274042   4.465   0.860   3.358  1.0378 -0.0170 -2.1389
17543TIP3   OH274043   4.368   0.628  15.712  0.6353 -0.3216  0.4793
17543TIP3    H174044   4.398   0.631  15.621  1.0828 -1.5162  0.5608
17543TIP3    H274045   4.415   0.554  15.750  0.6527  0.3144  1.7664
17544TIP3   OH274046   5.420   6.063  13.009  0.1407 -0.2485 -0.2812
17544TIP3    H174047   5.378   6.120  12.945 -2.2523 -1.5395  0.0380
17544TIP3    H274048   5.410   5.974  12.973 -0.3107 -0.8927  1.3421
17545TIP3   OH274049   5.617   5.230  11.889 -0.3052 -0.2703  0.3489
17545TIP3    H174050   5.698   5.230  11.940 -0.4482 -1.9507  0.6293
17545TIP3    H274051   5.640   5.273  11.807  0.7333 -0.2803  0.6163
17546TIP3   OH274052   4.669   0.900   1.635 -0.1133  0.0066 -0.0195
17546TIP3    H174053   4.671   0.994   1.654 -2.9933  0.1228  0.0652
17546TIP3    H274054   4.635   0.860   1.715 -1.3724 -0.8028 -0.9290
17547TIP3   OH274055   0.448   5.264   1.182  0.9626  0.2190  0.3321
17547TIP3    H174056   0.508   5.314   1.127  2.2842 -0.9559  0.6597
17547TIP3    H274057   0.412   5.197   1.125  0.6341  0.3567  0.3697
17548TIP3   OH274058   2.618   2.499  16.618  0.0600  0.3982 -0.0427
17548TIP3    H174059   2.581   2.517  16.531  1.5425  0.6552 -0.6526
17548TIP3    H274060   2.656   2.582  16.645  0.5477  0.0417  0.3787
17549TIP3   OH274061   0.074   4.866  11.594 -0.1972  0.5393  0.8443
17549TIP3    H174062   0.156   4.911  11.576  0.2901 -0.9802 -1.0801
17549TIP3    H274063   0.032   4.857  11.509  0.1210 -3.2293  0.8956
17550TIP3   OH274064   5.465   5.005  12.460 -0.8025  0.2013  0.1469
17550TIP3    H174065   5.550   5.023  12.420 -0.5457 -0.4969  0.3624
17550TIP3    H274066   5.446   4.914  12.437 -1.3837  0.2766  0.2965
17551TIP3   OH274067   2.270   2.107  15.321  0.0056  0.2898  0.1773
17551TIP3    H174068   2.351   2.073  15.358  0.0599 -0.8673 -0.9356
17551TIP3    H274069   2.256   2.056  15.241 -1.7410  0.5570  0.2587
17552TIP3   OH274070   0.665   1.638   1.030  0.1767  0.1346  0.2061
17552TIP3    H174071   0.733   1.663   0.968 -1.4884  0.6007 -1.5248
17552TIP3    H274072   0.672   1.543   1.036 -0.1744 -0.0228 -1.4164
17553TIP3   OH274073   4.817   5.455  14.210 -0.2089  0.1332  0.2865
17553TIP3    H174074   4.768   5.523  14.162  0.0160 -0.3902 -0.7080
17553TIP3    H274075   4.904   5.456  14.170 -0.0165 -0.3246  0.6883
17554TIP3   OH274076   3.092   5.314  15.299  0.1514 -0.0156 -0.5213
17554TIP3    H174077   3.049   5.244  15.250 -0.1216 -0.8785  0.9129
17554TIP3    H274078   3.162   5.344  15.241  0.1384 -1.3128 -1.2490
17555TIP3   OH274079   0.937   4.840  12.769 -0.1310  0.1724 -0.3560
17555TIP3    H174080   0.997   4.909  12.742 -0.9795  1.7821  1.6116
17555TIP3    H274081   0.852   4.868  12.735 -0.5820  0.4283  0.9448
17556TIP3   OH274082   4.101   3.727   0.387 -0.7536 -0.1378 -0.3735
17556TIP3    H174083   4.008   3.745   0.378 -0.9674 -0.1029  1.5752
17556TIP3    H274084   4.108   3.676   0.468  1.0747  1.2862  0.4467
17557TIP3   OH274085   3.627   4.174   3.673  0.2676  0.1571  0.0593
17557TIP3    H174086   3.609   4.177   3.579 -0.6632 -1.2457  0.1689
17557TIP3    H274087   3.712   4.217   3.682 -1.1052  3.3682 -0.9830
17558TIP3   OH274088   5.630   5.595  15.546  0.1289 -0.3791 -0.2158
17558TIP3    H174089   5.641   5.681  15.586 -0.4212 -0.4027 -0.0088
17558TIP3    H274090   5.548   5.562  15.583  0.3074 -0.9657 -0.3392
17559TIP3   OH274091   2.604   3.119  16.680 -0.5475  0.8260 -0.1861
17559TIP3    H174092   2.625   3.098  16.589 -1.4584 -0.7708 -0.0618
17559TIP3    H274093   2.689   3.119  16.724 -0.2663 -0.0745 -0.7078
17560TIP3   OH274094   4.081   1.608  12.527  0.6372 -0.1797 -0.7111
17560TIP3    H174095   4.126   1.624  12.444 -1.1254  0.1159 -1.6473
17560TIP3    H274096   4.094   1.688  12.577 -0.1874  0.5485 -1.6256
17561TIP3   OH274097   4.202   6.010  14.510  0.9078 -0.5926 -0.0741
17561TIP3    H174098   4.155   6.076  14.561  1.0172  1.0477 -1.9416
17561TIP3    H274099   4.134   5.953  14.475  0.7059 -0.8210  0.6876
17562TIP3   OH274100   5.085   2.041  14.201  0.2955 -0.1695  0.2526
17562TIP3    H174101   5.057   2.009  14.287  0.3241 -0.5587  0.1203
17562TIP3    H274102   5.066   2.135  14.203 -0.5464 -0.3341  0.3596
17563TIP3   OH274103   4.697   6.391   2.701 -0.3824  0.2565 -0.2783
17563TIP3    H174104   4.693   6.370   2.794 -2.9660 -0.5054 -0.4682
17563TIP3    H274105   4.766   6.334   2.666 -0.8669 -1.0729  0.8207
17564TIP3   OH274106   0.236   6.580  14.592 -0.8242  0.3266 -0.2166
17564TIP3    H174107   0.307   6.554  14.651 -0.5925 -0.4950 -0.8288
17564TIP3    H274108   0.205   6.498  14.555  0.1315  0.9017 -2.4764
17565TIP3   OH274109   6.170   4.964  10.551  0.6162  0.2800 -0.0740
17565TIP3    H174110   6.230   4.975  10.624  0.3602 -1.5032  0.4449
17565TIP3    H274111   6.227   4.949  10.475  0.8993 -1.4656  0.4244
17566TIP3   OH274112   2.421   6.677  11.385 -0.1959  0.0969 -0.1453
17566TIP3    H174113   2.370   6.702  11.462  1.7468  1.3656  0.7898
17566TIP3    H274114   2.359   6.627  11.331 -1.1806 -2.4896  3.0253
17567TIP3   OH274115   3.144   5.283   2.483  0.4463 -0.1486 -0.2289
17567TIP3    H174116   3.193   5.209   2.446 -1.2073 -1.9978  1.0798
17567TIP3    H274117   3.147   5.268   2.578 -2.6733 -0.4657 -0.0680
17568TIP3   OH274118   3.534   2.266   5.139  0.1709  0.3440 -0.1364
17568TIP3    H174119   3.544   2.275   5.234  1.3876  0.8814 -0.3040
17568TIP3    H274120   3.443   2.291   5.122 -0.3348 -0.6306  0.9835
17569TIP3   OH274121   6.148   5.318   5.953  0.1040  0.2702 -0.1600
17569TIP3    H174122   6.099   5.379   5.899  1.4476  0.3197 -1.3794
17569TIP3    H274123   6.237   5.319   5.918  0.7719 -0.5322  1.3645
17570TIP3   OH274124   1.324   2.260   1.202 -0.5260 -0.3662 -0.2367
17570TIP3    H174125   1.331   2.334   1.262 -1.1490 -0.0475 -0.5504
17570TIP3    H274126   1.274   2.294   1.128 -2.1719 -1.5201  0.2890
17571TIP3   OH274127   1.667   1.859   5.440 -0.8567  0.5090 -0.0587
17571TIP3    H174128   1.734   1.873   5.373  0.7247 -0.4396  1.2678
17571TIP3    H274129   1.591   1.826   5.391  0.5934 -1.1689 -1.2806
17572TIP3   OH274130   4.443   4.245   4.404  0.4203  0.3470  0.3408
17572TIP3    H174131   4.523   4.240   4.458  1.2750 -0.2126 -0.9303
17572TIP3    H274132   4.413   4.155   4.398  0.6222  0.3296 -0.5222
17573TIP3   OH274133   6.276   3.641   3.425 -0.4711 -0.0494 -0.1473
17573TIP3    H174134   6.298   3.592   3.347  0.1592 -3.6085  2.0347
17573TIP3    H274135   6.360   3.671   3.460 -0.5203 -0.3047  0.2058
17574TIP3   OH274136   6.295   5.473  12.377  0.0664  0.0397  0.3471
17574TIP3    H174137   6.353   5.453  12.303 -0.2922 -0.6238  0.2286
17574TIP3    H274138   6.270   5.387  12.411  1.0215  0.3382  1.8811
17575TIP3   OH274139   2.901   0.737  11.461  0.2587 -0.1101  0.3251
17575TIP3    H174140   2.864   0.784  11.385 -0.3303 -0.5842  0.3123
17575TIP3    H274141   2.833   0.743  11.528  0.5556 -0.1636  0.6300
17576TIP3   OH274142   5.456   4.036  16.710 -0.1061  0.0770  0.2831
17576TIP3    H174143   5.364   4.010  16.714 -0.1038  0.0153 -0.0038
17576TIP3    H274144   5.504   3.953  16.702  0.0298  0.0564  1.1648
17577TIP3   OH274145   1.487   6.186  11.906 -0.3395 -0.0548 -0.6492
17577TIP3    H174146   1.494   6.102  11.952  1.7312 -0.1132 -0.9827
17577TIP3    H274147   1.545   6.177  11.831 -0.3371  1.5589 -0.8677
17578TIP3   OH274148   4.255   2.914   6.395 -0.2088  0.1107  0.1735
17578TIP3    H174149   4.349   2.909   6.417 -0.6590 -0.9838  2.1032
17578TIP3    H274150   4.223   2.992   6.440  0.0588  1.5564 -1.9727
17579TIP3   OH274151   6.503   2.611   4.386  0.0596  0.5258 -0.3978
17579TIP3    H174152   6.543   2.540   4.435  1.0154  0.5464 -1.1079
17579TIP3    H274153   6.520   2.689   4.439 -2.6566  0.0563  1.3506
17580TIP3   OH274154   4.967   6.503   1.232 -0.5150 -0.3885  0.7521
17580TIP3    H174155   5.059   6.488   1.251 -0.7367 -0.9676  1.4506
17580TIP3    H274156   4.924   6.421   1.258 -1.1641 -0.3180 -0.0433
17581TIP3   OH274157   6.283   0.692   5.241  0.2228  0.2723  0.0600
17581TIP3    H174158   6.250   0.693   5.331  0.5770 -0.2033  0.2064
17581TIP3    H274159   6.206   0.676   5.187  0.0226  0.4603  0.2874
17582TIP3   OH274160   3.599   1.156  17.145  0.0699  0.0941 -0.1309
17582TIP3    H174161   3.663   1.087  17.125 -1.8513 -1.5933 -0.7744
17582TIP3    H274162   3.579   1.145  17.237 -0.4762 -0.4359 -0.3087
17583TIP3   OH274163   0.441   6.563  13.202 -0.1702 -0.2897  0.1841
17583TIP3    H174164   0.535   6.548  13.206  0.0561  1.0747  0.5355
17583TIP3    H274165   0.424   6.588  13.111 -0.4306 -1.8254 -0.2178
17584TIP3   OH274166   4.999   0.510   0.515 -0.4747  0.4291 -0.5186
17584TIP3    H174167   4.908   0.535   0.534 -0.4191  0.0828  0.2597
17584TIP3    H274168   5.032   0.477   0.599  0.1583 -0.0770 -0.9584
17585TIP3   OH274169   3.001   0.914   5.559 -0.2560 -0.6663  0.3070
17585TIP3    H174170   2.925   0.918   5.501  0.6851  2.2249 -0.9604
17585TIP3    H274171   2.976   0.854   5.629 -3.2489 -0.6670 -0.6318
17586TIP3   OH274172   3.259   6.144  13.176  0.3380 -0.0653  0.5542
17586TIP3    H174173   3.251   6.063  13.226 -1.8109  0.8680  1.9122
17586TIP3    H274174   3.291   6.208  13.240  0.6214  0.4644 -0.1111
17587TIP3   OH274175   0.504   6.646  12.930 -0.0729 -0.1446 -0.4107
17587TIP3    H174176   0.580   6.683  12.975  0.3212 -1.7470  0.2909
17587TIP3    H274177   0.541   6.603  12.853 -0.2767 -0.7774 -0.1599
17588TIP3   OH274178   0.937   2.618  11.382  0.0010 -0.1895 -0.4961
17588TIP3    H174179   0.906   2.709  11.382 -1.3744 -0.6379 -0.7500
17588TIP3    H274180   1.008   2.617  11.447 -1.5104  0.5876  1.2772
17589TIP3   OH274181   5.870   2.288   0.855 -0.5475  0.4333 -0.1984
17589TIP3    H174182   5.886   2.360   0.916  0.4248 -0.5474  0.7527
17589TIP3    H274183   5.955   2.274   0.812 -0.8099  0.0594 -0.6052
17590TIP3   OH274184   1.138   6.593  11.432 -0.4186 -0.4947  0.0644
17590TIP3    H174185   1.053   6.629  11.405  0.6060  0.2511 -2.5312
17590TIP3    H274186   1.173   6.552  11.352  2.5233  1.0017  0.4343
17591TIP3   OH274187   2.670   5.551  16.569 -0.0373 -0.3186  0.4473
17591TIP3    H174188   2.670   5.565  16.664  3.2778 -0.9516  0.6519
17591TIP3    H274189   2.687   5.637  16.532  0.0608 -0.3086  0.5145
17592TIP3   OH274190   4.337   5.020   1.480 -0.3253  0.1967  0.3178
17592TIP3    H174191   4.261   4.965   1.459  0.6455 -1.0979  0.0680
17592TIP3    H274192   4.309   5.070   1.557 -1.4729 -0.1500  0.1523
17593TIP3   OH274193   3.700   1.526  17.206  0.5866  0.3790  0.3831
17593TIP3    H174194   3.621   1.502  17.254  0.5547  1.5080  0.9382
17593TIP3    H274195   3.670   1.584  17.136  0.7049 -0.7814 -0.6655
17594TIP3   OH274196   5.522   0.135  15.862  0.0008 -0.1779  0.3208
17594TIP3    H174197   5.447   0.080  15.881  2.4888 -3.4319  1.6496
17594TIP3    H274198   5.585   0.115  15.931  2.0325  2.5914 -0.5465
17595TIP3   OH274199   5.767   6.624  12.001 -0.2379 -0.0258  0.0527
17595TIP3    H174200   5.805   6.556  12.056  0.5349  0.1068 -0.3000
17595TIP3    H274201   5.693   6.658  12.052  0.8803  0.5864  1.3336
17596TIP3   OH274202   6.648   4.225  11.596  0.2316  0.0937  0.2805
17596TIP3    H174203   6.618   4.309  11.562 -1.9519 -0.9969 -0.6283
17596TIP3    H274204   6.582   4.199  11.660 -0.7648 -2.2504 -1.5622
17597TIP3   OH274205   3.029   0.620  14.601  0.1440 -0.2073  0.3384
17597TIP3    H174206   3.123   0.636  14.606  0.0597  0.2992  0.3352
17597TIP3    H274207   3.019   0.550  14.537  0.5718 -0.7385  0.8402
17598TIP3   OH274208   4.206   3.138  13.798  0.2406 -0.1860 -0.4283
17598TIP3    H174209   4.261   3.204  13.755  0.9299 -0.6949 -0.3517
17598TIP3    H274210   4.130   3.129  13.741  1.2852 -1.0772 -1.7453
17599TIP3   OH274211   1.702   6.102   3.547 -0.1657  0.2519  0.0416
17599TIP3    H174212   1.770   6.167   3.529  0.8976 -0.9860 -0.5788
17599TIP3    H274213   1.683   6.112   3.641  1.6259 -0.0458  0.4713
17600TIP3   OH274214   6.013   4.338  12.582  0.0345 -0.5492 -0.1824
17600TIP3    H174215   5.928   4.377  12.601  0.8567  0.2565  2.2009
17600TIP3    H274216   6.022   4.266  12.646  1.6215  0.1843  0.4908
17601TIP3   OH274217   0.718   5.602  15.710 -0.0764 -0.1960 -0.0071
17601TIP3    H174218   0.750   5.684  15.670 -0.9348  0.0114 -0.2966
17601TIP3    H274219   0.732   5.536  15.642  1.0458 -0.4024  0.3932
17602TIP3   OH274220   0.998   0.685   1.107 -0.0097  0.2801 -0.1415
17602TIP3    H174221   1.053   0.722   1.175  0.8016  0.9775 -1.1445
17602TIP3    H274222   1.060   0.653   1.040 -0.7725  2.3957 -1.9759
17603TIP3   OH274223   2.176   1.233  15.117 -0.1117 -0.1534 -0.0345
17603TIP3    H174224   2.172   1.310  15.060  0.7029  0.3337  0.5448
17603TIP3    H274225   2.206   1.267  15.201 -0.5517 -0.9816  0.4780
17604TIP3   OH274226   4.689   0.895  13.798  0.2746  0.5140 -0.0187
17604TIP3    H174227   4.728   0.830  13.740  1.1258  0.2711  0.8019
17604TIP3    H274228   4.594   0.880  13.791  0.3878  0.1610 -0.9429
17605TIP3   OH274229   2.385   3.582  15.537 -0.3814 -0.2529 -0.3439
17605TIP3    H174230   2.365   3.515  15.602  1.8389 -1.2143 -0.5734
17605TIP3    H274231   2.481   3.586  15.534 -0.4145  0.6528 -2.6493
17606TIP3   OH274232   2.406   6.740  12.153  0.1235  0.1627 -0.0820
17606TIP3    H174233   2.397   6.660  12.205 -1.4514  0.7322  0.5837
17606TIP3    H274234   2.350   6.804  12.198  0.9953  1.5117 -0.8583
17607TIP3   OH274235   4.988   0.028   2.802 -0.0567 -0.8092  0.6188
17607TIP3    H174236   4.962  -0.034   2.734  0.0159 -0.7313  0.5186
17607TIP3    H274237   4.913   0.087   2.810  0.9872  0.9964 -1.4920
17608TIP3   OH274238   0.884   4.569   1.824  0.3395 -0.0367 -0.5623
17608TIP3    H174239   0.826   4.603   1.756  1.4770  0.5624 -1.2739
17608TIP3    H274240   0.859   4.477   1.834  1.7320 -0.8559 -3.5825
17609TIP3   OH274241   4.797   3.494   4.728  0.3389 -0.5115 -0.8198
17609TIP3    H174242   4.762   3.565   4.674  0.4394 -0.7207 -1.1639
17609TIP3    H274243   4.746   3.418   4.702 -1.7146 -0.0674  1.5067
17610TIP3   OH274244   0.165   0.704   2.408  0.1870 -0.4686  0.3247
17610TIP3    H174245   0.251   0.672   2.380 -0.2839 -0.2154 -1.5474
17610TIP3    H274246   0.129   0.747   2.331 -0.4702  1.9623  1.8403
17611TIP3   OH274247   0.998   6.202  11.379 -0.7956  0.2636 -0.2059
17611TIP3    H174248   0.962   6.114  11.389 -1.2714  0.6044  1.4155
17611TIP3    H274249   1.042   6.220  11.462  0.0140  1.2412 -0.8210
17612TIP3   OH274250   1.278   1.519  14.590  0.0646 -0.0321  0.6117
17612TIP3    H174251   1.214   1.450  14.609  1.1580 -1.0774  0.6046
17612TIP3    H274252   1.360   1.485  14.626  0.8371  0.7995 -0.3477
17613TIP3   OH274253   4.847   5.767  15.867 -0.3908 -0.2149 -0.3192
17613TIP3    H174254   4.797   5.768  15.949 -1.3626 -0.1430 -0.9042
17613TIP3    H274255   4.898   5.686  15.873  1.9340  1.2438  1.7211
17614TIP3   OH274256   1.266   5.550  11.341 -0.4707 -1.0539 -1.3542
17614TIP3    H174257   1.264   5.455  11.332  2.2045 -1.1041 -2.4996
17614TIP3    H274258   1.352   5.568  11.379 -0.9166  0.9176 -1.2058
17615TIP3   OH274259   5.348   2.910  14.913  0.1541 -0.2772 -0.5091
17615TIP3    H174260   5.407   2.952  14.976 -1.5153 -0.2206  1.1008
17615TIP3    H274261   5.406   2.866  14.851  1.9068 -1.1251  1.5935
17616TIP3   OH274262   3.917   1.173  16.373 -0.1364 -0.1405 -0.5412
17616TIP3    H174263   3.992   1.205  16.322  1.0021 -0.2642  0.9956
17616TIP3    H274264   3.906   1.238  16.442  0.5542 -1.6617  1.0768
17617TIP3   OH274265   4.143   1.193  16.199 -0.3090 -0.0295 -0.3665
17617TIP3    H174266   4.137   1.158  16.110  0.2494 -0.1547 -0.3640
17617TIP3    H274267   4.193   1.127  16.247  1.1326  0.9370 -0.4599
17618TIP3   OH274268   5.306   5.665  11.558  0.1121 -0.3222 -0.6474
17618TIP3    H174269   5.347   5.749  11.577  0.8207 -0.4724 -1.4802
17618TIP3    H274270   5.359   5.627  11.489  0.2162 -1.7657  0.1814
17619TIP3   OH274271   6.110   4.575   3.525 -0.1556 -0.6018  0.7042
17619TIP3    H174272   6.049   4.513   3.564 -0.3903 -0.5231  0.4657
17619TIP3    H274273   6.189   4.569   3.580 -0.1077 -1.2397  0.5742
17620TIP3   OH274274   6.502   3.176  16.105 -0.4490  0.7578  0.1908
17620TIP3    H174275   6.516   3.219  16.190  0.6353  0.6982  0.0547
17620TIP3    H274276   6.419   3.129  16.115 -1.0806  1.9466  0.7246
17621TIP3   OH274277   0.059   2.734   0.223  0.1060 -0.0105 -0.2455
17621TIP3    H174278   0.097   2.759   0.140  1.7438  0.7417  0.6941
17621TIP3    H274279  -0.016   2.679   0.199  0.4240  0.3334 -2.1918
17622TIP3   OH274280   4.571   6.698   3.661 -0.3263  0.4369  0.3998
17622TIP3    H174281   4.531   6.763   3.718 -0.2892  0.7581  0.0676
17622TIP3    H274282   4.506   6.682   3.593 -0.2136  0.3592  0.3094
17623TIP3   OH274283   1.354   1.244   3.861 -0.3229  0.2931  0.4253
17623TIP3    H174284   1.317   1.331   3.876 -0.9403  0.0187  0.5596
17623TIP3    H274285   1.314   1.215   3.779  0.7520  0.5840 -0.2170
17624TIP3   OH274286   4.109   1.407   0.538 -0.6769  0.2362  1.1299
17624TIP3    H174287   4.048   1.345   0.577  2.4634 -2.6148  1.9450
17624TIP3    H274288   4.082   1.492   0.572 -2.8876 -1.1392  3.0763
17625TIP3   OH274289   2.094   4.887  11.687 -0.5297 -0.0285 -0.2769
17625TIP3    H174290   2.040   4.866  11.611  0.6116 -0.6082 -0.9404
17625TIP3    H274291   2.167   4.826  11.684  1.8185  2.5843 -1.1285
17626TIP3   OH274292   2.376   2.317  13.867 -0.2194  0.0867  0.1350
17626TIP3    H174293   2.421   2.395  13.835 -0.9361  0.0103 -1.1139
17626TIP3    H274294   2.443   2.249  13.868  0.1668  0.4643  0.2446
17627TIP3   OH274295   6.565   4.339   3.816 -0.3283 -0.0856 -0.1703
17627TIP3    H174296   6.651   4.342   3.775 -0.4020 -2.4935 -0.6363
17627TIP3    H274297   6.504   4.324   3.743 -0.9120 -0.3430  0.3566
17628TIP3   OH274298   0.364   0.179  14.889  0.4137 -0.2489 -0.0342
17628TIP3    H174299   0.383   0.192  14.797 -0.1867 -2.7097 -0.5735
17628TIP3    H274300   0.429   0.115  14.919  0.9665  0.9312  1.4330
17629TIP3   OH274301   3.914   1.364   1.789  0.1548 -0.1873 -0.3600
17629TIP3    H174302   3.973   1.301   1.831  1.2955 -0.3689 -2.1208
17629TIP3    H274303   3.873   1.314   1.718 -1.1737  0.2917  0.0433
17630TIP3   OH274304   5.234   1.026  17.133  0.2681 -0.1193 -0.0133
17630TIP3    H174305   5.319   1.069  17.137  1.7999 -2.9980  1.3170
17630TIP3    H274306   5.171   1.097  17.140  2.5281  2.0981 -0.7010
17631TIP3   OH274307   5.207   1.798  14.748  0.0172  1.0544 -0.3215
17631TIP3    H174308   5.195   1.747  14.668  0.2102 -1.4064  1.1261
17631TIP3    H274309   5.156   1.751  14.814  0.1544  2.8117  1.1014
17632TIP3   OH274310   3.286   0.254  16.809  0.3368  0.1303  0.0787
17632TIP3    H174311   3.191   0.265  16.819  0.3934  1.0020 -0.2375
17632TIP3    H274312   3.306   0.295  16.725  0.4020 -3.7949 -2.0729
17633TIP3   OH274313   4.443   5.523  10.956  0.2312  0.5171 -0.1183
17633TIP3    H174314   4.421   5.438  10.918 -2.3103  1.4382 -0.9517
17633TIP3    H274315   4.448   5.582  10.881  2.2138  1.0992  0.4251
17634TIP3   OH274316   2.781   0.433  10.402 -0.3242 -0.2361  0.0792
17634TIP3    H174317   2.847   0.371  10.371 -0.6171 -0.2717 -0.4886
17634TIP3    H274318   2.698   0.399  10.367 -0.3111  1.2982 -1.5847
17635TIP3   OH274319   3.248   1.538  10.629  0.0676  0.6645 -0.1370
17635TIP3    H174320   3.224   1.618  10.675 -0.3320 -0.0556  0.9754
17635TIP3    H274321   3.252   1.472  10.699  1.4017 -0.0625 -0.8793
17636TIP3   OH274322   2.727   0.409  15.617 -0.3585 -0.3565  0.0376
17636TIP3    H174323   2.634   0.393  15.605 -0.6307  1.0341  0.0805
17636TIP3    H274324   2.735   0.434  15.710 -0.3043  1.5923 -0.4532
17637TIP3   OH274325   1.534   5.557  12.920 -0.3917 -0.0024 -0.6886
17637TIP3    H174326   1.488   5.489  12.872  3.1118 -2.4692 -0.9093
17637TIP3    H274327   1.581   5.607  12.853  0.3101 -0.0329 -0.2341
17638TIP3   OH274328   5.100   6.096  14.023  0.3787  0.1879  0.0302
17638TIP3    H174329   5.116   6.008  14.056 -0.3350  0.2769  0.6395
17638TIP3    H274330   5.032   6.132  14.081  1.0502  1.3371  0.1337
17639TIP3   OH274331   3.037   1.555  12.055 -0.5932  0.2394  0.2282
17639TIP3    H174332   3.019   1.516  12.141  1.2348 -2.0244 -0.3103
17639TIP3    H274333   2.957   1.538  12.004 -0.7946 -0.5960  0.7920
17640TIP3   OH274334   5.211   6.061   2.264 -0.1575 -0.2252 -0.5510
17640TIP3    H174335   5.237   5.982   2.217 -2.8780 -1.0727 -0.8278
17640TIP3    H274336   5.251   6.133   2.215  0.6712 -1.3171 -1.5292
17641TIP3   OH274337   2.897   4.320  11.408 -0.1378 -0.8315  0.1952
17641TIP3    H174338   2.957   4.344  11.337  0.0608  2.1100  1.2122
17641TIP3    H274339   2.950   4.330  11.488 -1.1694 -1.1414  0.9372
17642TIP3   OH274340   4.282   1.377  15.001 -0.1629 -0.0570 -0.4894
17642TIP3    H174341   4.272   1.420  14.916 -2.7704 -0.6151 -0.5698
17642TIP3    H274342   4.339   1.303  14.985  0.1639  0.4066 -1.5344
17643TIP3   OH274343   4.963   6.300   3.751 -0.0277 -0.0609  0.6030
17643TIP3    H174344   4.915   6.383   3.747 -0.5062 -0.3359  0.5922
17643TIP3    H274345   5.025   6.305   3.678 -0.4032  0.0762  0.2871
17644TIP3   OH274346   0.451   6.597  15.285  0.0826 -0.5265  0.1016
17644TIP3    H174347   0.362   6.563  15.281  0.3124 -1.3662  1.6336
17644TIP3    H274348   0.480   6.581  15.375  2.1630 -1.2450 -0.6284
17645TIP3   OH274349   0.493   0.709  15.742  0.1454  0.1450 -0.3745
17645TIP3    H174350   0.402   0.682  15.728  0.4458 -0.3952 -1.3239
17645TIP3    H274351   0.544   0.654  15.683  1.2517 -0.5830  1.1958
17646TIP3   OH274352   5.177   3.528  15.430 -0.1600  0.3335  0.4937
17646TIP3    H174353   5.244   3.571  15.376 -0.6377  0.9004  0.3377
17646TIP3    H274354   5.126   3.601  15.467  1.3117  0.0629  3.2625
17647TIP3   OH274355   1.713   5.260   2.235  0.0435  0.4349 -0.0171
17647TIP3    H174356   1.696   5.332   2.175 -1.6625  0.0882 -0.0026
17647TIP3    H274357   1.682   5.182   2.188  0.3978 -0.0761  0.5854
17648TIP3   OH274358   5.773   6.498  15.646 -0.2853 -0.3859  0.3244
17648TIP3    H174359   5.765   6.418  15.593 -0.3161 -0.6385  0.7024
17648TIP3    H274360   5.796   6.566  15.583 -2.0296 -0.3188 -0.2847
17649TIP3   OH274361   1.616   6.611   5.655  0.0536 -0.1499  0.3793
17649TIP3    H174362   1.675   6.659   5.712 -1.2032  0.5534  1.1275
17649TIP3    H274363   1.540   6.590   5.710 -0.6867 -0.4640 -0.7207
17650TIP3   OH274364   6.631   3.103   4.297 -0.0052  0.4506 -0.8818
17650TIP3    H174365   6.669   3.021   4.331  1.1096  1.7069  1.1104
17650TIP3    H274366   6.706   3.161   4.286 -0.7161  1.0732 -2.7944
17651TIP3   OH274367   6.354   6.762   4.494  0.0708  0.2080  0.5077
17651TIP3    H174368   6.397   6.829   4.547 -1.1530  1.3745  0.0691
17651TIP3    H274369   6.262   6.766   4.520 -0.0796 -1.1019  0.2531
17652TIP3   OH274370   1.654   0.373  13.182 -0.1374 -0.3329 -0.3132
17652TIP3    H174371   1.614   0.455  13.211 -0.3545  0.4005 -2.5099
17652TIP3    H274372   1.633   0.367  13.089 -0.0610 -2.8775 -0.2455
17653TIP3   OH274373   5.080   0.933  13.597  0.2714  0.1889 -0.6092
17653TIP3    H174374   5.084   0.928  13.692 -0.0487  1.9441 -0.4725
17653TIP3    H274375   5.156   0.884  13.567  0.4122 -0.3293  0.5479
17654TIP3   OH274376   5.085   2.052   1.660 -0.0743 -0.1217  0.6601
17654TIP3    H174377   5.008   2.109   1.658  0.1375  0.1623 -1.4558
17654TIP3    H274378   5.090   2.015   1.572  2.6081  0.4599  0.4710
17655TIP3   OH274379   5.722   1.037  15.997  0.4077  0.4321 -0.1107
17655TIP3    H174380   5.637   1.008  15.963  0.2161  0.0895  0.6363
17655TIP3    H274381   5.756   0.960  16.043  0.5355  0.9672  0.7044
17656TIP3   OH274382   5.746   3.117  16.311 -0.1028  0.0501  0.0287
17656TIP3    H174383   5.767   3.139  16.220  1.2408 -1.1213  0.0225
17656TIP3    H274384   5.722   3.025  16.309 -1.4031  0.3467  0.6889
17657TIP3   OH274385   4.139   2.960   6.764  0.2594  0.0341  0.1593
17657TIP3    H174386   4.118   2.899   6.693  0.4592 -1.5315  1.3843
17657TIP3    H274387   4.059   3.010   6.777  0.0863  0.0497 -0.8781
17658TIP3   OH274388   2.698   1.786  11.814 -0.4890  0.0078 -0.0738
17658TIP3    H174389   2.781   1.823  11.784 -0.1422 -0.3491  0.4240
17658TIP3    H274390   2.713   1.767  11.907 -0.5326 -1.7052 -0.3853
17659TIP3   OH274391   0.784   6.495   1.616 -0.0724  0.1983  0.0664
17659TIP3    H174392   0.719   6.494   1.685 -1.1107 -1.3483 -0.8548
17659TIP3    H274393   0.759   6.568   1.560  0.3525  1.0102  0.9088
17660TIP3   OH274394   0.372   5.336   2.386 -0.1285  0.3525 -0.2126
17660TIP3    H174395   0.284   5.372   2.391  0.0623  0.7317  0.6728
17660TIP3    H274396   0.384   5.313   2.294 -1.7245 -1.1542 -0.1025
17661TIP3   OH274397   1.397   0.933  13.285 -0.4831 -0.4851 -0.6314
17661TIP3    H174398   1.465   0.972  13.231 -0.0018 -0.8790 -0.3212
17661TIP3    H274399   1.420   0.957  13.375 -2.3188  1.7872 -0.6665
17662TIP3   OH274400   2.737   0.026   1.279 -0.4291  0.0851  0.4987
17662TIP3    H174401   2.749  -0.051   1.333 -0.6285 -0.2045  0.1360
17662TIP3    H274402   2.824   0.044   1.243 -0.7221 -1.0513 -0.8522
17663TIP3   OH274403   5.852   4.923   2.006  0.1974  0.3529 -0.6917
17663TIP3    H174404   5.856   5.000   1.950 -1.4423  0.8930 -0.1317
17663TIP3    H274405   5.758   4.904   2.013  0.5016 -0.9337  0.2172
17664TIP3   OH274406   6.220   1.667  15.725 -0.0782  0.2966 -0.0917
17664TIP3    H174407   6.245   1.615  15.648  1.1454 -0.2249  0.6312
17664TIP3    H274408   6.166   1.607  15.777  0.4406  0.0991  0.2257
17665TIP3   OH274409   3.333   3.466   0.090  0.6207 -0.2991 -0.5900
17665TIP3    H174410   3.311   3.485  -0.001 -1.9990 -0.9568 -0.1814
17665TIP3    H274411   3.311   3.374   0.101  0.8367 -0.2101  0.7067
17666TIP3   OH274412   4.703   1.285  16.303  0.6939  0.2316 -0.2708
17666TIP3    H174413   4.672   1.339  16.375 -1.1828  1.3495 -1.8122
17666TIP3    H274414   4.788   1.321  16.279  1.0020  0.2984  0.9040
17667TIP3   OH274415   3.285   5.109   1.985  0.2036 -0.0750 -0.1889
17667TIP3    H174416   3.379   5.125   1.999  0.0807 -0.1734  0.8349
17667TIP3    H274417   3.243   5.193   2.003  0.2531  0.5893 -2.8073
17668TIP3   OH274418   3.371   3.433  15.451 -0.1441  0.5238 -0.1293
17668TIP3    H174419   3.462   3.405  15.458 -0.1402  0.5782  0.0241
17668TIP3    H274420   3.324   3.354  15.423 -0.3874 -0.0666  1.8208
17669TIP3   OH274421   5.897   4.541  11.525 -0.3398  0.2284 -0.1049
17669TIP3    H174422   5.891   4.602  11.599 -0.0120  1.3555 -0.9790
17669TIP3    H274423   5.869   4.593  11.450 -0.1071 -0.7304 -0.8591
17670TIP3   OH274424   6.182   3.789   1.228  0.4961 -0.6076 -0.4709
17670TIP3    H174425   6.123   3.825   1.162 -0.3853 -2.2637 -0.6262
17670TIP3    H274426   6.141   3.813   1.312  1.2305  0.8521 -0.4918
17671TIP3   OH274427   1.145   3.824   0.961 -0.3736 -0.1534  0.9315
17671TIP3    H174428   1.109   3.748   0.915  0.7017  0.2519 -0.7083
17671TIP3    H274429   1.079   3.893   0.950 -0.3360 -0.2014  0.3794
17672TIP3   OH274430   0.258   6.752  15.808  0.0368 -0.0449 -0.5091
17672TIP3    H174431   0.330   6.705  15.851 -0.7695  0.5029  1.5644
17672TIP3    H274432   0.179   6.718  15.849 -0.6793  1.6728 -0.3824
17673TIP3   OH274433   5.087   2.269   3.117  0.6077  0.4776 -0.3217
17673TIP3    H174434   5.017   2.229   3.169  2.1149 -0.1328  1.3485
17673TIP3    H274435   5.049   2.350   3.082 -0.2389  1.3992  2.5115
17674TIP3   OH274436   3.170   6.342  17.027 -0.0307 -0.4640 -0.7637
17674TIP3    H174437   3.093   6.397  17.038 -1.3924 -1.7062 -3.2836
17674TIP3    H274438   3.223   6.387  16.961  0.3448 -0.6584 -0.5990
17675TIP3   OH274439   4.332   0.537  13.083 -0.0012 -0.3492  0.0947
17675TIP3    H174440   4.399   0.599  13.113 -2.4047  2.5639 -0.1071
17675TIP3    H274441   4.347   0.531  12.989  0.6625 -0.6645  0.2092
17676TIP3   OH274442   0.216   0.322   6.080 -0.3657  0.5389  0.3221
17676TIP3    H174443   0.286   0.315   6.145 -0.5183  2.8578  0.8318
17676TIP3    H274444   0.140   0.281   6.122  0.2610 -0.6123  0.3833
17677TIP3   OH274445   1.183   3.472   2.683  0.5201  0.4143  0.4189
17677TIP3    H174446   1.205   3.389   2.725  1.7085  0.5333  0.0434
17677TIP3    H274447   1.222   3.467   2.596 -0.5002  0.8522 -0.0920
17678TIP3   OH274448   1.247   5.223  12.368  0.1376  0.0388  0.3958
17678TIP3    H174449   1.161   5.251  12.336 -0.0324 -1.0306 -0.1354
17678TIP3    H274450   1.309   5.268  12.310 -0.0648  0.5740  0.5844
17679TIP3   OH274451   4.039   2.554  11.317 -0.2841 -0.1156  0.2173
17679TIP3    H174452   4.095   2.605  11.374  0.6508 -0.8971  0.0191
17679TIP3    H274453   3.993   2.619  11.264  1.4647  0.5145 -0.5817
17680TIP3   OH274454   4.631   1.181   0.359 -0.2268  0.6741 -0.0094
17680TIP3    H174455   4.617   1.115   0.291  0.1125  0.6512 -0.0590
17680TIP3    H274456   4.724   1.175   0.380 -0.4324  0.2862  0.8630
17681TIP3   OH274457   4.731   0.099  16.257 -0.0423 -0.0520  0.6000
17681TIP3    H174458   4.673   0.030  16.288  0.4242 -0.9692 -0.5092
17681TIP3    H274459   4.819   0.069  16.278  0.2274 -0.2987 -0.8134
17682TIP3   OH274460   0.688   2.782  13.889 -0.2111 -0.3154 -0.7437
17682TIP3    H174461   0.726   2.815  13.971 -0.9952  0.7463 -0.7822
17682TIP3    H274462   0.752   2.807  13.822 -0.3691  0.3427 -0.6571
17683TIP3   OH274463   4.691   0.358   2.351 -0.2830 -0.2232 -0.7411
17683TIP3    H174464   4.696   0.377   2.445 -2.8836 -1.8951 -0.1553
17683TIP3    H274465   4.750   0.284   2.338  1.1400  0.8754 -0.7493
17684TIP3   OH274466   5.245   6.034   0.536  0.1486  0.0065  0.2351
17684TIP3    H174467   5.256   6.077   0.450 -1.8493 -0.3656 -0.2708
17684TIP3    H274468   5.174   6.083   0.577 -0.7570 -1.4960  0.5210
17685TIP3   OH274469   1.102   5.276  15.354  0.4764 -0.1439  0.1091
17685TIP3    H174470   1.036   5.338  15.321  0.9094 -0.1933 -0.8741
17685TIP3    H274471   1.064   5.242  15.435 -0.7374 -0.2113 -0.4665
17686TIP3   OH274472   4.580   6.072  12.569 -0.0573  0.2498 -0.1655
17686TIP3    H174473   4.495   6.087  12.527 -0.9055  0.8262  1.6326
17686TIP3    H274474   4.566   5.993  12.621  0.6780  0.0609 -0.2511
17687TIP3   OH274475   5.584   5.126  15.156  0.2952 -0.2151 -0.3322
17687TIP3    H174476   5.672   5.153  15.129  0.0615  0.4398 -0.4487
17687TIP3    H274477   5.580   5.033  15.133  0.2094  0.2392 -2.3067
17688TIP3   OH274478   1.515   4.682  17.202 -0.1726  0.3882  0.4060
17688TIP3    H174479   1.434   4.720  17.236 -1.3656 -2.5033  1.0187
17688TIP3    H274480   1.497   4.669  17.109  0.6737  2.2419 -0.0659
17689TIP3   OH274481   2.090   2.149   3.265  0.4358  0.3846  0.0364
17689TIP3    H174482   2.056   2.184   3.182  0.8317 -0.8044 -0.6435
17689TIP3    H274483   2.173   2.108   3.242  0.2283 -0.5536  0.8945
17690TIP3   OH274484   6.752   3.612   3.055  0.8945  0.1493  0.3946
17690TIP3    H174485   6.675   3.574   3.013  0.9926  2.0013 -1.6936
17690TIP3    H274486   6.748   3.582   3.146 -0.7280 -2.0513 -0.3245
17691TIP3   OH274487   2.661   0.686   5.413  0.3433  0.3925 -0.0928
17691TIP3    H174488   2.569   0.659   5.407  0.7869 -1.4035  0.7159
17691TIP3    H274489   2.666   0.765   5.359 -2.0757  1.6494  1.3389
17692TIP3   OH274490   1.800   1.496   2.649  0.0424  0.0404  0.2271
17692TIP3    H174491   1.710   1.527   2.654  0.0959  0.2389 -0.0041
17692TIP3    H274492   1.793   1.401   2.646 -0.0867 -0.0321  1.8845
17693TIP3   OH274493   5.035   0.077  10.886  0.6142  0.1519  0.0154
17693TIP3    H174494   4.990   0.135  10.825 -3.4733 -2.1119  0.5523
17693TIP3    H274495   5.038   0.126  10.968 -0.4368  0.5946 -0.1934
17694TIP3   OH274496   6.098   5.655  14.263 -0.1205  0.5949 -0.0852
17694TIP3    H174497   6.127   5.588  14.325 -1.2065 -0.0984 -0.2932
17694TIP3    H274498   6.154   5.645  14.187 -2.9028 -3.0845 -1.9632
17695TIP3   OH274499   3.423   1.475   0.368 -0.0660  0.5079  0.4460
17695TIP3    H174500   3.450   1.446   0.455  5.0005 -0.6022 -1.1296
17695TIP3    H274501   3.473   1.555   0.352 -1.0077  0.7921 -1.3512
17696TIP3   OH274502   0.632   2.874  16.863  0.2257 -0.0087 -0.0831
17696TIP3    H174503   0.697   2.944  16.871  0.5467 -0.0336 -1.9977
17696TIP3    H274504   0.562   2.913  16.811  0.0668 -0.8525 -0.5220
17697TIP3   OH274505   1.819   4.500   4.627  0.5625  0.5213 -0.1863
17697TIP3    H174506   1.850   4.567   4.566  2.3567 -0.2375 -0.1751
17697TIP3    H274507   1.766   4.442   4.573 -2.4761  2.7577  0.1245
17698TIP3   OH274508   2.373   3.344   1.954  0.2916  0.3991 -0.0914
17698TIP3    H174509   2.304   3.286   1.984  0.2057  0.9060  0.7338
17698TIP3    H274510   2.366   3.421   2.011  1.4837  0.4920 -0.0348
17699TIP3   OH274511   5.462   0.337   3.817  0.2118  0.1564 -0.1894
17699TIP3    H174512   5.409   0.270   3.862  0.8220  0.3763  0.8916
17699TIP3    H274513   5.427   0.420   3.850 -0.4370  0.4032 -1.4067
17700TIP3   OH274514   2.657   4.205   1.512  0.0117  0.9312 -0.1383
17700TIP3    H174515   2.744   4.225   1.547  0.1756  0.3468 -0.2049
17700TIP3    H274516   2.605   4.181   1.589  0.7278 -1.6610 -0.3703
17701TIP3   OH274517   4.884   1.475   0.435 -0.0394 -0.2733  0.4195
17701TIP3    H174518   4.918   1.419   0.506  0.8196  0.0005  0.2421
17701TIP3    H274519   4.946   1.548   0.431 -0.8564  0.4313  0.2982
17702TIP3   OH274520   2.568   2.311   3.598 -0.4144 -0.1543 -0.1707
17702TIP3    H174521   2.618   2.392   3.601  0.9853 -1.0026  0.5283
17702TIP3    H274522   2.481   2.337   3.567 -0.5119  1.8538  1.5382
17703TIP3   OH274523   2.854   0.177   5.798  0.3499  0.7710 -0.8136
17703TIP3    H174524   2.910   0.140   5.866 -0.6470  1.1859  0.2524
17703TIP3    H274525   2.823   0.101   5.749 -0.8743  0.2324  0.7275
17704TIP3   OH274526   4.156   5.811  17.206  0.6448  0.0553 -0.2217
17704TIP3    H174527   4.231   5.794  17.149  0.9893 -3.7843  1.0651
17704TIP3    H274528   4.195   5.838  17.290  0.5057 -0.3376 -0.0287
17705TIP3   OH274529   1.270   4.631   3.377 -0.0358 -0.6955  0.0734
17705TIP3    H174530   1.297   4.548   3.419  1.1065 -0.7624 -0.7408
17705TIP3    H274531   1.352   4.670   3.347 -0.4105  1.3409  1.4679
17706TIP3   OH274532   2.042   4.661   1.011 -0.0789 -0.7111  0.5997
17706TIP3    H174533   1.980   4.665   0.938 -1.2459  2.8830  1.5905
17706TIP3    H274534   2.127   4.651   0.969 -0.6796  1.5008 -1.3781
17707TIP3   OH274535   4.434   3.552   5.402  0.2309  0.1744 -0.1691
17707TIP3    H174536   4.437   3.560   5.497  1.5024 -0.8423 -0.0978
17707TIP3    H274537   4.511   3.500   5.380 -1.2834 -1.5874 -1.5524
17708TIP3   OH274538   2.694   1.184   0.574  0.5014  0.2478  0.0644
17708TIP3    H174539   2.670   1.098   0.540  0.9529  0.3308 -0.4776
17708TIP3    H274540   2.749   1.222   0.505  1.0760  0.5917  0.7050
17709TIP3   OH274541   6.303   3.624  11.796 -0.4547 -0.0215  0.1948
17709TIP3    H174542   6.294   3.543  11.747  0.7566  0.4919 -0.9400
17709TIP3    H274543   6.344   3.599  11.879  0.1716 -0.5357 -0.2657
17710TIP3   OH274544   1.366   0.644  12.080  0.2518  0.3838 -1.0171
17710TIP3    H174545   1.326   0.730  12.096  0.1144  0.0002  0.8905
17710TIP3    H274546   1.375   0.640  11.984 -2.0072  1.5035 -1.3524
17711TIP3   OH274547   1.062   3.516   5.365 -0.1214  0.0829 -0.0910
17711TIP3    H174548   1.111   3.470   5.434  1.5271 -0.7326 -1.6988
17711TIP3    H274549   1.116   3.505   5.286 -1.7759  1.2225 -1.4656
17712TIP3   OH274550   5.513   3.651  14.851 -0.2062 -0.3117  0.0957
17712TIP3    H174551   5.562   3.593  14.909 -1.1580  0.8959  2.2162
17712TIP3    H274552   5.431   3.605  14.833  0.0043 -0.5969 -0.1509
17713TIP3   OH274553   1.647   3.258   0.346  0.3381 -0.1872  0.6212
17713TIP3    H174554   1.690   3.341   0.366  0.3095 -0.0441  0.1122
17713TIP3    H274555   1.682   3.196   0.410  2.7425 -0.5362 -0.9028
17714TIP3   OH274556   1.761   4.692   3.176 -0.1494 -0.3044  0.4097
17714TIP3    H174557   1.791   4.615   3.223 -0.3499  0.2905  1.5510
17714TIP3    H274558   1.816   4.695   3.097  0.6242 -0.9824  0.9049
17715TIP3   OH274559   3.894   3.691  17.033 -0.0174  0.4070  0.0189
17715TIP3    H174560   3.916   3.599  17.045  0.7496  0.3556 -1.5431
17715TIP3    H274561   3.937   3.735  17.106  0.2563 -0.3841  0.3473
17716TIP3   OH274562   2.994   2.189   2.111  0.8367  0.1863  0.5092
17716TIP3    H174563   3.066   2.229   2.159  1.6003 -0.7057  0.1449
17716TIP3    H274564   3.022   2.099   2.097 -0.2222 -0.0958  0.0830
17717TIP3   OH274565   5.132   3.926   1.493  0.2077 -0.2738  0.4405
17717TIP3    H174566   5.114   3.909   1.586  0.4914 -1.5024  0.2987
17717TIP3    H274567   5.212   3.876   1.475 -0.0097 -0.2863 -0.5341
17718TIP3   OH274568   4.400   1.316   0.334 -0.0508 -0.5275  0.0726
17718TIP3    H174569   4.327   1.258   0.311  1.2946 -1.4692 -2.3408
17718TIP3    H274570   4.469   1.256   0.363  0.9888 -0.0915 -1.3689
17719TIP3   OH274571   3.966   5.712  11.112  0.1061  0.6979 -0.2084
17719TIP3    H174572   4.032   5.782  11.112  0.3087  0.5133  0.2335
17719TIP3    H274573   3.882   5.758  11.119  0.2137  0.9143 -0.3279
17720TIP3   OH274574   4.857   5.990   5.550  0.5874  0.1002  0.5022
17720TIP3    H174575   4.896   6.006   5.465  0.4155 -0.3646  0.3338
17720TIP3    H274576   4.766   5.969   5.532  0.2802  1.0299  0.8817
17721TIP3   OH274577   4.843   0.379   1.081  0.5179  0.0802  0.3718
17721TIP3    H174578   4.936   0.358   1.077  1.0795  2.3241  0.2530
17721TIP3    H274579   4.809   0.355   0.995  1.0109 -0.5743  0.3512
17722TIP3   OH274580   3.339   3.917  15.114  0.1512 -0.2207  0.5790
17722TIP3    H174581   3.327   3.844  15.054  0.9239  0.0679  0.0668
17722TIP3    H274582   3.250   3.950  15.129 -0.0837 -0.5200 -0.1172
17723TIP3   OH274583   5.877   3.964  13.000 -0.2683 -0.1021  0.0168
17723TIP3    H174584   5.832   3.987  12.919 -1.7314 -1.9573  0.2360
17723TIP3    H274585   5.963   3.933  12.973 -0.0460  1.0138 -0.6319
17724TIP3   OH274586   0.429   4.737   2.383  0.2273 -0.5631 -0.2473
17724TIP3    H174587   0.372   4.661   2.376  1.8524 -2.3892  3.5567
17724TIP3    H274588   0.509   4.704   2.424  2.8614  2.4451 -2.3840
17725TIP3   OH274589   0.929   2.079   2.242  0.3460  0.4284 -0.2083
17725TIP3    H174590   0.894   1.993   2.266  0.4065  0.3169 -0.5134
17725TIP3    H274591   0.932   2.128   2.324  3.2012 -0.8669  0.5547
17726TIP3   OH274592   4.593   4.411   2.610 -0.1861 -0.5874  0.0272
17726TIP3    H174593   4.596   4.457   2.693  1.7033 -2.4959  1.1040
17726TIP3    H274594   4.556   4.325   2.631  0.2622 -1.0824 -1.1182
17727TIP3   OH274595   0.238   6.690  11.442 -0.1887 -0.2696 -0.7065
17727TIP3    H174596   0.193   6.618  11.397  1.3423 -0.4731 -1.9884
17727TIP3    H274597   0.181   6.710  11.517 -3.1118  0.4034 -2.9175
17728TIP3   OH274598   4.711   2.453   4.229  0.0660  0.2066  0.0059
17728TIP3    H174599   4.751   2.367   4.246  0.4130 -0.0517 -1.8575
17728TIP3    H274600   4.622   2.445   4.264  0.8353 -0.0358  2.0658
17729TIP3   OH274601   1.108   0.923   0.540  0.3581 -0.3592  0.6030
17729TIP3    H174602   1.121   0.913   0.445  0.1309  1.7346  0.2889
17729TIP3    H274603   1.014   0.935   0.550  0.1287 -2.3804  1.3535
17730TIP3   OH274604   1.018   5.928   1.512 -0.1289  0.2641  0.3892
17730TIP3    H174605   0.968   5.942   1.593 -1.3210  1.5427 -0.5152
17730TIP3    H274606   1.051   5.839   1.519  0.3023  0.5439  2.5451
17731TIP3   OH274607   6.248   0.227   5.710 -0.2135 -0.2003  0.4393
17731TIP3    H174608   6.223   0.148   5.662 -0.6884  1.8716 -3.0991
17731TIP3    H274609   6.341   0.215   5.729 -0.7188 -2.4187  1.9122
17732TIP3   OH274610   2.616   0.199   2.410  0.5353 -0.0484  0.0168
17732TIP3    H174611   2.570   0.182   2.491 -1.3455  1.1227 -0.7501
17732TIP3    H274612   2.666   0.279   2.426 -0.4519  0.6199 -0.2054
17733TIP3   OH274613   5.352   4.475   1.888  0.5626  0.4766  0.1316
17733TIP3    H174614   5.273   4.432   1.921 -1.1138  2.1341 -1.5120
17733TIP3    H274615   5.403   4.404   1.849 -0.1678 -0.6057  1.0605
17734TIP3   OH274616   2.519   5.528   4.797 -0.4770 -0.3110 -0.3216
17734TIP3    H174617   2.468   5.577   4.862 -1.6494 -1.7313 -0.1116
17734TIP3    H274618   2.462   5.454   4.773  0.5553 -0.6523 -1.8378
17735TIP3   OH274619   5.976   3.781   4.377  0.0646  0.0297 -0.0223
17735TIP3    H174620   5.926   3.860   4.398  2.2310  1.4769  0.1256
17735TIP3    H274621   6.056   3.814   4.335  1.0082 -2.1042 -0.0486
17736TIP3   OH274622   6.748   5.605   4.868 -0.4313  0.0143  0.4903
17736TIP3    H174623   6.840   5.581   4.882 -0.1772  0.6881  0.0057
17736TIP3    H274624   6.703   5.521   4.857  0.3128 -0.2916 -0.3410
17737TIP3   OH274625   5.593   6.292  12.756  0.1106 -0.4138  0.8386
17737TIP3    H174626   5.558   6.219  12.704  1.5993 -0.8256  0.3749
17737TIP3    H274627   5.612   6.360  12.692 -1.2624  0.4207  1.2707
17738TIP3   OH274628   5.480   1.074  13.415 -0.3765  0.2892 -0.0552
17738TIP3    H174629   5.453   1.116  13.334  1.4879  2.7807  0.4893
17738TIP3    H274630   5.570   1.046  13.399 -0.4385 -0.4160  0.7431
17739TIP3   OH274631   0.680   4.649   1.641  1.0145 -0.4360  0.2122
17739TIP3    H174632   0.597   4.615   1.607  1.6112 -1.9714  0.1829
17739TIP3    H274633   0.719   4.698   1.568 -0.2823  1.1393  0.5328
17740TIP3   OH274634   3.185   2.834  12.216 -0.5494 -0.6758 -0.5129
17740TIP3    H174635   3.097   2.868  12.233 -0.4514 -1.3044  1.4901
17740TIP3    H274636   3.217   2.805  12.302  1.6277 -0.4501 -1.1784
17741TIP3   OH274637   3.711   0.735  12.707 -0.1645 -0.1719 -0.0431
17741TIP3    H174638   3.767   0.789  12.764  1.0902  0.2227 -1.5858
17741TIP3    H274639   3.675   0.668  12.766  0.6171  0.5617  1.3228
17742TIP3   OH274640   4.458   6.670   2.405 -0.1469 -0.3147  0.0227
17742TIP3    H174641   4.406   6.722   2.344 -1.4712 -1.6306 -0.0299
17742TIP3    H274642   4.542   6.656   2.361  0.4508  2.1528  0.2535
17743TIP3   OH274643   4.688   1.629   3.132 -0.2744  0.6354 -0.0795
17743TIP3    H174644   4.730   1.642   3.047  1.1505 -0.7197  0.3745
17743TIP3    H274645   4.760   1.622   3.194 -1.2219 -0.1690  0.9810
17744TIP3   OH274646   4.902   3.164   4.360  0.0249 -0.2138  0.7104
17744TIP3    H174647   4.966   3.235   4.358  1.1165 -1.0875  2.1606
17744TIP3    H274648   4.822   3.202   4.324  0.9134  1.3824  0.3510
17745TIP3   OH274649   6.243   3.513  14.955 -0.3740 -0.1368  0.1225
17745TIP3    H174650   6.302   3.460  14.901 -1.5092 -2.4182  0.9789
17745TIP3    H274651   6.274   3.499  15.044 -1.4107 -0.3242  0.4620
17746TIP3   OH274652   3.621   5.193   4.440  0.3969  0.8734  0.7530
17746TIP3    H174653   3.565   5.236   4.504 -0.0443  0.5705  0.5689
17746TIP3    H274654   3.592   5.226   4.355 -1.1784 -1.1113  0.4368
17747TIP3   OH274655   4.718   4.742   3.076 -0.0850  0.2931 -0.4885
17747TIP3    H174656   4.624   4.724   3.087 -0.1071 -1.8737 -3.0751
17747TIP3    H274657   4.762   4.667   3.116  0.6029  1.3246  0.7559
17748TIP3   OH274658   5.036   2.744  16.079  0.0361  0.4947  0.2642
17748TIP3    H174659   4.985   2.751  16.160  0.9473  0.0010  0.9047
17748TIP3    H274660   4.971   2.724  16.011 -0.5621 -0.5713  1.1282
17749TIP3   OH274661   2.531   6.048   3.523 -0.9469  0.0097  0.1258
17749TIP3    H174662   2.552   5.957   3.543 -2.3125 -0.3599  0.0333
17749TIP3    H274663   2.516   6.089   3.608 -0.3997  0.1296  0.1643
17750TIP3   OH274664   3.536   0.081  11.001  0.3114 -0.1993 -0.0160
17750TIP3    H174665   3.529  -0.014  11.001  0.8265 -0.2556 -1.2387
17750TIP3    H274666   3.456   0.111  10.957  0.4766 -0.1070 -0.2556
17751TIP3   OH274667   6.485   1.847   6.045 -0.6821  0.1302 -0.1038
17751TIP3    H174668   6.475   1.925   5.991  0.2870 -0.7771 -1.6791
17751TIP3    H274669   6.575   1.850   6.078 -0.7983 -0.0721  0.2434
17752TIP3   OH274670   5.834   1.259  15.252 -0.0426  0.2721 -0.4306
17752TIP3    H174671   5.850   1.325  15.184  0.6223  0.1453 -0.4076
17752TIP3    H274672   5.840   1.176  15.205 -0.3546  0.2069 -0.3584
17753TIP3   OH274673   0.427   1.845   3.302 -0.6189  0.0027 -0.1080
17753TIP3    H174674   0.367   1.864   3.374 -1.6137 -4.0677  0.4201
17753TIP3    H274675   0.485   1.777   3.336  1.4190  0.6531 -2.0381
17754TIP3   OH274676   1.741   3.059  13.922  0.4851  0.5431 -0.1817
17754TIP3    H174677   1.836   3.072  13.918  0.3780  1.8060  0.7087
17754TIP3    H274678   1.729   2.978  13.970  1.1119  0.0263 -0.8700
17755TIP3   OH274679   4.552   5.763  17.032 -0.0126 -0.2559  0.0443
17755TIP3    H174680   4.614   5.781  16.962 -1.9675  0.2790 -1.6804
17755TIP3    H274681   4.585   5.813  17.107  0.1397  2.4478 -1.6680
17756TIP3   OH274682   3.575   2.540  13.213  0.3996 -0.1301 -0.2711
17756TIP3    H174683   3.638   2.607  13.240  0.4651 -0.4122  0.2962
17756TIP3    H274684   3.561   2.488  13.292 -1.1391  0.4033 -0.1598
17757TIP3   OH274685   5.283   2.236   4.162 -0.0454 -0.0331  0.0597
17757TIP3    H174686   5.231   2.157   4.177 -0.5669  0.0822 -1.0282
17757TIP3    H274687   5.258   2.265   4.074  1.2824  0.4707 -0.1779
17758TIP3   OH274688   0.885   0.372   2.469  0.4176  0.4810  0.5781
17758TIP3    H174689   0.956   0.311   2.449 -0.0651 -0.1119  0.6275
17758TIP3    H274690   0.809   0.315   2.482 -0.4937  1.1930 -1.3127
17759TIP3   OH274691   6.354   4.087   5.192 -0.2551  0.1481 -0.4991
17759TIP3    H174692   6.344   4.087   5.287 -0.1439  1.1916 -0.4666
17759TIP3    H274693   6.447   4.072   5.177 -0.3722 -0.6496 -0.4766
17760TIP3   OH274694   4.664   3.286  10.822 -0.3863  0.1829 -0.1867
17760TIP3    H174695   4.724   3.321  10.756  0.3075 -0.2834  0.1850
17760TIP3    H274696   4.632   3.363  10.869  0.7132  0.3701  0.2790
17761TIP3   OH274697   1.251   2.133   2.828  0.0799  0.7812  0.3375
17761TIP3    H174698   1.162   2.133   2.793  1.0561  0.2926 -2.3695
17761TIP3    H274699   1.247   2.194   2.902 -2.4306  0.9430  0.1663
17762TIP3   OH274700   1.720   1.425  16.980  0.5645 -0.0766 -0.2780
17762TIP3    H174701   1.805   1.395  16.948  0.6742  0.2324 -0.2812
17762TIP3    H274702   1.741   1.493  17.045  0.3238 -0.0751 -0.1974
17763TIP3   OH274703   3.661   0.105   3.758  0.4881 -0.1678 -0.1275
17763TIP3    H174704   3.672   0.161   3.681 -1.2824  1.5739  0.7826
17763TIP3    H274705   3.655   0.017   3.723  1.0840  0.4342 -1.8486
17764TIP3   OH274706   3.527   5.460  16.376 -0.5173  0.0756 -0.1265
17764TIP3    H174707   3.490   5.449  16.288  0.9971  1.1171 -0.9497
17764TIP3    H274708   3.475   5.529  16.415 -1.0303 -0.2033 -0.3131
17765TIP3   OH274709   6.721   1.230  13.052 -0.1026 -0.2796  0.2988
17765TIP3    H174710   6.716   1.183  13.135  1.2974  1.0978  1.2247
17765TIP3    H274711   6.803   1.201  13.013  0.3173  0.6563  0.4472
17766TIP3   OH274712   6.633   1.912   3.095 -0.2675 -0.2349  0.5571
17766TIP3    H174713   6.712   1.922   3.042 -1.7319  0.9768 -1.5332
17766TIP3    H274714   6.665   1.916   3.186  2.0039  0.7851 -0.2017
17767TIP3   OH274715   4.749   0.664   2.832 -0.6028 -0.0435 -0.5625
17767TIP3    H174716   4.772   0.676   2.740 -0.5516 -0.3094 -0.5856
17767TIP3    H274717   4.781   0.743   2.876  1.3477 -0.8479 -0.4116
17768TIP3   OH274718   1.662   2.973   3.645 -0.5691 -0.5403 -0.0611
17768TIP3    H174719   1.733   2.909   3.638  0.1231  0.3229 -1.1877
17768TIP3    H274720   1.625   2.978   3.557 -0.7255  0.4862  0.0522
17769TIP3   OH274721   4.683   0.306  16.072 -0.1868 -0.1964 -0.3289
17769TIP3    H174722   4.762   0.300  16.019  0.0345  0.9995 -0.1635
17769TIP3    H274723   4.696   0.241  16.141  0.5454 -0.1877 -0.4469
17770TIP3   OH274724   5.250   0.322  14.019 -0.4039  0.1954 -0.2214
17770TIP3    H174725   5.206   0.399  13.983 -1.4328 -0.9911 -1.6416
17770TIP3    H274726   5.298   0.285  13.945  1.8312  0.6029  0.9432
17771TIP3   OH274727   2.256   0.433  13.719 -0.1342  0.2728 -0.3750
17771TIP3    H174728   2.251   0.418  13.813 -0.6602 -0.0041 -0.4419
17771TIP3    H274729   2.227   0.350  13.680 -1.3569  0.8680 -0.7649
17772TIP3   OH274730   4.499   2.749  15.177 -0.6414  0.5520 -0.0252
17772TIP3    H174731   4.424   2.793  15.136 -1.5875 -0.8369  0.1276
17772TIP3    H274732   4.535   2.814  15.237 -3.2248  0.5410  1.6937
17773TIP3   OH274733   5.855   5.603  13.294 -0.2696 -0.7296  0.3659
17773TIP3    H174734   5.881   5.663  13.224  0.0437 -0.1731  0.9483
17773TIP3    H274735   5.937   5.583  13.339 -0.1681 -2.5433 -0.5363
17774TIP3   OH274736   0.806   4.711  12.414 -0.1593  0.2192 -0.1681
17774TIP3    H174737   0.737   4.666  12.463 -0.2564  1.0844  0.4975
17774TIP3    H274738   0.886   4.661  12.435 -0.8499 -2.4099 -2.9448
17775TIP3   OH274739   4.510   3.936  13.717 -0.2656  0.5036 -0.4430
17775TIP3    H174740   4.537   3.891  13.797  2.3124  0.4511 -1.2392
17775TIP3    H274741   4.441   3.880  13.681 -0.2425 -0.4090  0.8452
17776TIP3   OH274742   1.883   0.687   3.305 -0.3772  0.2915 -0.6639
17776TIP3    H174743   1.973   0.660   3.288 -0.7088 -0.5534 -1.1767
17776TIP3    H274744   1.877   0.693   3.400  0.0962 -0.1219 -0.6021
17777TIP3   OH274745   5.812   4.243  10.958  0.2482 -0.4791 -0.0037
17777TIP3    H174746   5.773   4.318  10.913  1.2189 -0.5804 -1.0522
17777TIP3    H274747   5.837   4.183  10.888 -0.0665 -1.5723  0.7970
17778TIP3   OH274748   6.277   4.806  11.737 -0.4965  0.0551 -0.3694
17778TIP3    H174749   6.256   4.814  11.830 -0.6335  0.8889 -0.4674
17778TIP3    H274750   6.373   4.805  11.734 -0.4937 -0.2763 -0.1962
17779TIP3   OH274751   4.748   6.680   1.200 -0.2397 -0.4603 -0.5171
17779TIP3    H174752   4.815   6.621   1.237  0.1807  0.5578  0.4296
17779TIP3    H274753   4.671   6.625   1.191  0.2525 -1.2683 -0.0381
17780TIP3   OH274754   5.703   4.272   2.018  0.5128  0.1148 -0.6851
17780TIP3    H174755   5.711   4.234   2.105  0.6861  0.1635 -0.6791
17780TIP3    H274756   5.791   4.267   1.981  0.6576  0.9735 -0.4882
17781TIP3   OH274757   5.702   1.800  16.444  0.2792  0.3945 -0.1685
17781TIP3    H174758   5.737   1.723  16.489 -0.2869 -1.3376 -2.5053
17781TIP3    H274759   5.734   1.874  16.496  2.4886 -1.2981  1.0992
17782TIP3   OH274760   3.025   4.966   0.037 -0.0644  0.1009 -0.1833
17782TIP3    H174761   3.051   5.048   0.080  0.1619 -0.5151  0.8794
17782TIP3    H274762   3.103   4.938  -0.011  0.5017 -0.4825  1.0302
17783TIP3   OH274763   3.753   4.448   5.041  0.5983  0.0843  0.2692
17783TIP3    H174764   3.711   4.429   4.958 -0.5960 -0.7850  1.0463
17783TIP3    H274765   3.809   4.372   5.058  1.1710  0.4546  0.0625
17784TIP3   OH274766   3.981   6.671  11.139  0.2088 -0.4989  0.0650
17784TIP3    H174767   3.979   6.640  11.049 -0.8455 -1.6103  0.4434
17784TIP3    H274768   3.955   6.763  11.134 -0.9912 -0.8553 -0.6773
17785TIP3   OH274769   2.917   0.949  12.390  0.3842  0.4546  0.9208
17785TIP3    H174770   2.954   0.975  12.306  0.0946 -0.2614  0.5648
17785TIP3    H274771   2.844   1.011  12.403 -0.1011  0.0453  0.2324
17786TIP3   OH274772   5.858   3.257   2.385 -0.1315  0.1813  0.4941
17786TIP3    H174773   5.885   3.166   2.400 -0.4512  0.2376  1.5439
17786TIP3    H274774   5.862   3.268   2.290  1.4408 -0.4513  0.4400
17787TIP3   OH274775   3.178   3.686   3.189 -0.1343  0.1687 -0.5013
17787TIP3    H174776   3.117   3.671   3.116 -1.2477  0.4388  0.3458
17787TIP3    H274777   3.131   3.745   3.248  0.2824 -0.9325  0.9881
17788TIP3   OH274778   3.971   6.202   5.161 -0.1257  0.4784 -0.3249
17788TIP3    H174779   3.927   6.117   5.165  0.7627 -0.1889 -2.8310
17788TIP3    H274780   3.939   6.243   5.081  1.3215  1.4089 -0.4811
17789TIP3   OH274781   0.850   5.896   1.113  0.1878 -0.3413  0.4698
17789TIP3    H174782   0.893   5.969   1.158 -1.6750  0.5740  0.8523
17789TIP3    H274783   0.797   5.854   1.181 -0.6245 -0.5518 -0.2741
17790TIP3   OH274784   2.029   4.779  16.566  0.3593 -0.5285  0.4523
17790TIP3    H174785   2.058   4.712  16.627  0.4869 -0.8617  0.0272
17790TIP3    H274786   2.071   4.859  16.597  2.4801 -1.1424 -0.6255
17791TIP3   OH274787   4.001   1.127  13.212 -0.3498  0.7037 -0.2166
17791TIP3    H174788   4.079   1.126  13.157  0.3978 -1.0018  0.7899
17791TIP3    H274789   4.032   1.097  13.298 -1.9760  0.6869  0.4037
17792TIP3   OH274790   1.585   2.292  13.144  0.0549  0.1654  0.3077
17792TIP3    H174791   1.554   2.245  13.066 -1.1406  0.3128  0.6723
17792TIP3    H274792   1.613   2.223  13.204 -1.8493 -0.1551  0.9068
17793TIP3   OH274793   1.411   0.436  15.362 -0.5146  0.1629  0.3579
17793TIP3    H174794   1.454   0.515  15.330 -0.2526 -0.4793 -0.9894
17793TIP3    H274795   1.483   0.374  15.377 -0.6641  0.3603  1.9887
17794TIP3   OH274796   0.934   0.377   1.457 -0.3460  0.1659  0.3089
17794TIP3    H174797   0.872   0.439   1.419 -0.9909 -0.0880  0.9353
17794TIP3    H274798   0.955   0.318   1.385  0.6240  1.3466 -0.4253
17795TIP3   OH274799   0.151   3.526  11.687  0.3919 -0.6359 -0.2563
17795TIP3    H174800   0.126   3.619  11.687  0.7533 -0.5246  0.6529
17795TIP3    H274801   0.069   3.479  11.673 -0.1145 -0.2294  1.1264
17796TIP3   OH274802   4.344   6.768  13.394 -0.0611  0.0900 -0.0532
17796TIP3    H174803   4.420   6.752  13.338  0.0602  0.7960 -0.0995
17796TIP3    H274804   4.369   6.842  13.449  0.2378 -1.3055  1.7604
17797TIP3   OH274805   4.920   5.937  17.076 -0.6679  0.6770  0.0508
17797TIP3    H174806   4.942   5.910  17.165 -0.6811  0.0252 -0.1348
17797TIP3    H274807   4.846   5.881  17.052 -0.0306  0.1347 -0.7200
17798TIP3   OH274808   5.013   1.190  16.203 -0.0876 -0.0412  0.1280
17798TIP3    H174809   5.005   1.096  16.218  0.5232 -0.0712  0.2949
17798TIP3    H274810   4.975   1.204  16.117  0.8962 -0.6304 -0.4207
17799TIP3   OH274811   5.544   5.834   5.172 -0.2891  0.2115 -0.1865
17799TIP3    H174812   5.559   5.928   5.186  1.2298  0.2907 -1.9490
17799TIP3    H274813   5.467   5.831   5.114 -1.2133  0.2653  0.9960
17800TIP3   OH274814   6.535   4.575   1.543 -0.0831  0.4896  0.5743
17800TIP3    H174815   6.445   4.589   1.571  0.3715 -0.0593  2.4401
17800TIP3    H274816   6.586   4.572   1.624  1.4188 -0.6201 -0.3386
17801TIP3   OH274817   3.139   4.253   1.889  0.5241  0.0271 -0.5114
17801TIP3    H174818   3.173   4.340   1.867 -1.1479  0.8312 -0.1021
17801TIP3    H274819   3.202   4.192   1.851  1.6186  1.4120 -1.0125
17802TIP3   OH274820   6.262   1.633   2.626 -0.2119  0.6108  0.1486
17802TIP3    H174821   6.171   1.605   2.629 -0.4786  1.0468 -1.9877
17802TIP3    H274822   6.257   1.726   2.600  0.8205  0.2328 -1.6039
17803TIP3   OH274823   5.268   4.437   1.012 -0.4211  0.4128  0.5939
17803TIP3    H174824   5.226   4.515   1.049  0.6031  1.3355 -0.1201
17803TIP3    H274825   5.330   4.471   0.948  1.4550 -0.8829  1.6338
17804TIP3   OH274826   3.750   0.901   3.701 -0.0692 -0.1752 -0.6312
17804TIP3    H174827   3.840   0.887   3.731  0.6691 -0.4511 -2.7601
17804TIP3    H274828   3.754   0.984   3.653 -0.8701 -0.3435 -1.0027
17805TIP3   OH274829   2.746   2.541  15.150  0.0526  0.4479 -0.2145
17805TIP3    H174830   2.714   2.522  15.062  0.5974 -0.2630 -0.2639
17805TIP3    H274831   2.691   2.487  15.207 -0.3786  0.9955 -0.0947
17806TIP3   OH274832   2.610   1.067   3.079 -0.9374  0.2092  0.1384
17806TIP3    H174833   2.517   1.087   3.088 -0.4253  2.8313  0.4145
17806TIP3    H274834   2.644   1.136   3.022  0.7429 -1.1258 -0.5859
17807TIP3   OH274835   4.251   2.775   5.152  0.0404  0.1071  0.0670
17807TIP3    H174836   4.185   2.835   5.119 -0.4229 -0.3052  0.2321
17807TIP3    H274837   4.319   2.774   5.085 -0.1811  0.4325 -0.1629
17808TIP3   OH274838   4.945   1.690  13.379 -0.1545 -0.2369  0.0574
17808TIP3    H174839   4.861   1.732  13.398 -0.2535 -0.5530  0.3369
17808TIP3    H274840   4.925   1.629  13.307 -0.3374 -0.8679  0.6355
17809TIP3   OH274841   1.963   6.697  13.874 -0.3787  0.4392 -0.2716
17809TIP3    H174842   1.877   6.654  13.870 -1.6055  2.7291 -0.4931
17809TIP3    H274843   1.960   6.749  13.954  0.7232  0.7120 -0.3917
17810TIP3   OH274844   6.263   5.109   1.100 -0.1165 -0.5671 -0.6384
17810TIP3    H174845   6.186   5.115   1.044 -0.0667 -0.3288 -0.6817
17810TIP3    H274846   6.337   5.116   1.040 -0.0541 -1.0902 -0.6335
17811TIP3   OH274847   4.995   5.229   4.531  0.0711  0.1567 -0.0102
17811TIP3    H174848   5.085   5.195   4.538  0.1091  0.3763  0.6140
17811TIP3    H274849   5.003   5.306   4.475  0.0551 -0.5898 -1.0773
17812TIP3   OH274850   6.777   6.248   5.171  0.0828  0.0195  0.0429
17812TIP3    H174851   6.788   6.282   5.083  1.7643 -1.0315 -0.2070
17812TIP3    H274852   6.702   6.295   5.206 -1.0744 -0.0492 -2.1833
17813TIP3   OH274853   3.770   6.778   5.396 -0.1542  0.1044 -0.0221
17813TIP3    H174854   3.831   6.776   5.470  1.7211 -0.8090 -1.5070
17813TIP3    H274855   3.700   6.718   5.421 -0.5487  1.2079  1.7496
17814TIP3   OH274856   6.280   3.020  11.137 -0.3529 -1.0234  0.5032
17814TIP3    H174857   6.188   3.043  11.122 -0.1421 -1.1027 -1.0846
17814TIP3    H274858   6.328   3.100  11.118 -0.0207 -1.2602  0.3412
17815TIP3   OH274859   2.559   5.835  13.802 -0.0200 -0.2566  0.0662
17815TIP3    H174860   2.594   5.746  13.798  2.2577  0.5374  1.0169
17815TIP3    H274861   2.468   5.823  13.830 -0.4412 -2.3743 -1.8750
17816TIP3   OH274862   2.163   2.863   3.972  0.2841  0.2067  0.1857
17816TIP3    H174863   2.160   2.791   4.036  0.7523 -0.0497 -0.0779
17816TIP3    H274864   2.255   2.870   3.948  0.0995  0.2350 -0.5371
17817TIP3   OH274865   3.564   5.582   5.199  0.0438  0.4254  0.1390
17817TIP3    H174866   3.637   5.564   5.139 -0.0238 -0.9842  0.4423
17817TIP3    H274867   3.496   5.520   5.174 -0.7351  1.1442  0.4242
17818TIP3   OH274868   2.773   1.655  13.462 -0.1818 -0.4125  0.4730
17818TIP3    H174869   2.749   1.702  13.542  0.4469 -0.8582  0.9363
17818TIP3    H274870   2.711   1.685  13.396 -1.9684 -1.4920  1.5988
17819TIP3   OH274871   1.663   4.584   5.633 -0.4523  0.2766  0.7870
17819TIP3    H174872   1.623   4.516   5.579 -1.5614  0.0622  1.8303
17819TIP3    H274873   1.747   4.547   5.661 -0.7205 -0.3693  0.7441
17820TIP3   OH274874   2.493   3.323   3.043  0.4822 -0.1733 -0.1598
17820TIP3    H174875   2.507   3.298   2.952  0.9535 -0.3638 -0.0349
17820TIP3    H274876   2.545   3.261   3.094  0.7134  0.3143  0.2077
17821TIP3   OH274877   2.540   6.216   5.447  0.2850 -0.2998 -0.4366
17821TIP3    H174878   2.461   6.180   5.405  0.3772  0.1383 -1.0095
17821TIP3    H274879   2.528   6.311   5.441  0.2580 -0.2221  0.6386
17822TIP3   OH274880   5.361   0.235   0.193 -0.4228  0.3484 -0.2914
17822TIP3    H174881   5.412   0.221   0.272 -0.4265 -2.6154 -0.7031
17822TIP3    H274882   5.275   0.265   0.225 -0.8542 -2.0192  1.0028
17823TIP3   OH274883   3.268   6.214   3.165 -0.4157 -0.3652  0.2908
17823TIP3    H174884   3.228   6.129   3.149 -2.2895  0.2838  1.2243
17823TIP3    H274885   3.240   6.237   3.254 -0.2396  1.3619 -0.0593
17824TIP3   OH274886   4.566   2.491  14.563 -0.7481 -0.4997 -0.4478
17824TIP3    H174887   4.531   2.574  14.529 -0.3903 -0.6704 -1.2427
17824TIP3    H274888   4.503   2.425  14.533 -0.6020 -0.6110 -0.5091
17825TIP3   OH274889   3.740   5.366  14.647  0.3411 -0.1231 -0.2965
17825TIP3    H174890   3.720   5.442  14.593 -0.0172 -0.5692 -0.8039
17825TIP3    H274891   3.670   5.364  14.712 -0.4108 -0.7711 -1.0987
17826TIP3   OH274892   1.157   6.644  12.252  0.0395  0.6275  0.2187
17826TIP3    H174893   1.157   6.577  12.184 -1.4942  0.0082  0.8040
17826TIP3    H274894   1.247   6.677  12.252  0.4014 -0.2579 -1.2086
17827TIP3   OH274895   6.768   4.429  12.793  0.2116 -0.1102 -0.0783
17827TIP3    H174896   6.729   4.349  12.757  3.5089 -1.3306 -1.3485
17827TIP3    H274897   6.794   4.405  12.882 -0.1076  0.0621  0.0649
17828TIP3   OH274898   4.313   3.753   2.042  0.2818  0.4076  0.2499
17828TIP3    H174899   4.325   3.820   1.975  0.4245 -0.7542 -0.9231
17828TIP3    H274900   4.393   3.701   2.039 -0.0172 -0.1044  0.8101
17829TIP3   OH274901   5.794   2.371   0.015  0.0283  0.1157 -0.4489
17829TIP3    H174902   5.709   2.394  -0.024 -0.5660 -1.1159  0.0574
17829TIP3    H274903   5.853   2.440  -0.014 -0.3487 -0.7372 -3.6121
17830TIP3   OH274904   0.515   5.654  16.023 -0.3244 -0.0693 -0.2191
17830TIP3    H174905   0.557   5.735  15.996 -0.1681 -0.1164 -0.1205
17830TIP3    H274906   0.470   5.623  15.945  0.1531 -0.2254 -0.4404
17831TIP3   OH274907   5.949   5.419  16.076  0.6481  0.2547 -0.1721
17831TIP3    H174908   5.887   5.471  16.127 -2.2295 -3.6951  0.8317
17831TIP3    H274909   5.918   5.427  15.985  0.8812  0.9925 -0.1994
17832TIP3   OH274910   6.387   4.632  12.427 -0.7757  0.5834 -0.5302
17832TIP3    H174911   6.389   4.677  12.512  1.8472 -1.1024  0.4432
17832TIP3    H274912   6.328   4.558  12.441  0.4230 -0.2684  0.2201
17833TIP3   OH274913   6.393   6.701  15.422 -0.1347  0.0837 -0.6917
17833TIP3    H174914   6.447   6.695  15.343  0.2878 -0.3028 -0.3803
17833TIP3    H274915   6.418   6.784  15.462  0.0059  0.0518 -0.7113
17834TIP3   OH274916   2.287   2.048  11.988  0.3589 -0.1728 -0.4157
17834TIP3    H174917   2.332   2.086  12.063  0.4267 -0.6071 -0.2300
17834TIP3    H274918   2.330   1.963  11.975  0.7845  0.1705 -1.3488
17835TIP3   OH274919   3.689   1.821  10.656 -0.4189 -0.5705  0.1346
17835TIP3    H174920   3.642   1.852  10.733  1.1397 -1.1327  1.3638
17835TIP3    H274921   3.632   1.754  10.619 -0.9795 -0.6426  1.0910
17836TIP3   OH274922   0.823   2.518  11.803  0.5581  0.2471  0.0033
17836TIP3    H174923   0.866   2.601  11.821 -0.2777  0.5267  0.8314
17836TIP3    H274924   0.743   2.521  11.856  0.6156 -1.1715  0.2017
17837TIP3   OH274925   5.775   2.442   1.605  0.1537 -0.3473 -0.0517
17837TIP3    H174926   5.795   2.534   1.622  1.8598 -0.7434  0.3376
17837TIP3    H274927   5.680   2.437   1.605  0.0349  1.4320 -0.1976
17838TIP3   OH274928   5.704   0.840  13.495 -0.1433 -0.1870 -0.0398
17838TIP3    H174929   5.739   0.837  13.407 -2.6427 -2.6775 -1.1215
17838TIP3    H274930   5.742   0.764  13.539 -0.5388 -0.1938  0.3038
17839TIP3   OH274931   6.746   2.012  11.221 -0.0156  0.6713 -0.2621
17839TIP3    H174932   6.715   1.969  11.142  0.5082  0.7561 -0.5141
17839TIP3    H274933   6.706   1.963  11.292  0.1165  0.1208 -0.5631
17840TIP3   OH274934   1.896   3.149  11.980 -0.4699 -0.1415 -0.1551
17840TIP3    H174935   1.968   3.210  11.999  1.0724 -1.0916 -2.5402
17840TIP3    H274936   1.892   3.094  12.058  1.2015  0.1498  0.1950
17841TIP3   OH274937   2.042   5.239   4.942 -0.3794 -0.3413  0.5743
17841TIP3    H174938   1.946   5.236   4.935 -0.6788  0.8670  3.0122
17841TIP3    H274939   2.058   5.278   5.028  2.3290 -0.9521  0.4262
17842TIP3   OH274940   6.542   6.224   5.670  0.0163 -0.6415  0.3905
17842TIP3    H174941   6.460   6.220   5.720  0.1329 -1.0475  0.5492
17842TIP3    H274942   6.521   6.280   5.595 -0.0841  0.1999  1.0204
17843TIP3   OH274943   2.768   0.184  11.300 -0.3853 -0.1054  0.5129
17843TIP3    H174944   2.844   0.125  11.296 -0.7349 -0.5392  0.1963
17843TIP3    H274945   2.703   0.142  11.244 -0.6195  0.6104  0.2511
17844TIP3   OH274946   4.190   5.868   3.528 -0.5321  0.1237 -0.1858
17844TIP3    H174947   4.177   5.896   3.618 -0.4321 -0.1856 -0.0740
17844TIP3    H274948   4.281   5.890   3.508 -1.1423  2.2312 -0.9491
17845TIP3   OH274949   5.981   0.833  11.996 -0.1406  0.0419  0.1392
17845TIP3    H174950   6.073   0.860  12.006  0.0433 -1.1288  2.0416
17845TIP3    H274951   5.934   0.916  11.986  0.9815  0.7392  0.3458
17846TIP3   OH274952   5.686   1.233   0.255  0.0719 -0.0254 -0.4126
17846TIP3    H174953   5.662   1.320   0.222  1.0537  0.8457  1.0678
17846TIP3    H274954   5.653   1.232   0.345 -1.6165 -1.9444 -0.9659
17847TIP3   OH274955   4.044   4.763   4.724 -0.0140  0.3489  0.4544
17847TIP3    H174956   4.019   4.676   4.695  0.9303  0.0503  0.5360
17847TIP3    H274957   4.124   4.783   4.677 -0.2988  1.2366  0.3248
17848TIP3   OH274958   0.357   6.237   4.105 -0.5359 -0.2718 -0.3246
17848TIP3    H174959   0.344   6.176   4.177  1.6440 -1.8838 -1.1906
17848TIP3    H274960   0.299   6.206   4.035  0.8159 -1.6644 -0.8866
17849TIP3   OH274961   2.120   3.176  15.438 -0.1225  0.3177  0.0121
17849TIP3    H174962   2.133   3.252  15.494 -2.7902  0.0132  1.2050
17849TIP3    H274963   2.105   3.213  15.351  0.4457  1.0421  0.2193
17850TIP3   OH274964   5.745   5.524   1.669  0.2197  0.1877  0.0106
17850TIP3    H174965   5.773   5.489   1.585 -1.8085  0.0777 -0.6724
17850TIP3    H274966   5.813   5.585   1.694  2.0387 -1.5140 -0.5380
17851TIP3   OH274967   2.919   0.607   1.095 -0.3947  0.5437  0.0399
17851TIP3    H174968   2.968   0.668   1.040 -0.3859  0.7524  0.2744
17851TIP3    H274969   2.987   0.559   1.143 -0.3629 -0.3089 -0.8173
17852TIP3   OH274970   4.051   0.984  11.348  0.4090 -0.6282 -0.2921
17852TIP3    H174971   3.964   1.023  11.339  0.8809  0.8221  1.0840
17852TIP3    H274972   4.112   1.057  11.338  1.3603 -1.1084  1.5306
17853TIP3   OH274973   1.580   3.893   6.581 -0.1941 -0.2207 -0.2374
17853TIP3    H174974   1.504   3.835   6.575 -0.6814  0.4876 -1.3046
17853TIP3    H274975   1.644   3.857   6.520 -0.3918  0.1910 -0.6979
17854TIP3   OH274976   5.318   0.146   4.009  0.3557  0.4432  0.5712
17854TIP3    H174977   5.234   0.157   3.965  0.1538 -0.8439  0.5966
17854TIP3    H274978   5.304   0.074   4.070  1.5166  0.0949  0.4513
17855TIP3   OH274979   5.925   2.269   6.040 -0.3099  0.5407  0.4168
17855TIP3    H174980   5.887   2.243   6.124  0.7918 -1.2720  0.3971
17855TIP3    H274981   6.007   2.313   6.064 -0.0847  0.1864  0.2970
17856TIP3   OH274982   1.664   2.980   4.904  0.4929 -0.3964 -0.2076
17856TIP3    H174983   1.576   3.011   4.921  1.0061  2.4343 -1.9483
17856TIP3    H274984   1.687   2.927   4.980 -2.8713 -1.7626  0.0029
17857TIP3   OH274985   2.468   2.933  13.849  0.6052  0.1580  0.6002
17857TIP3    H174986   2.503   2.975  13.928  1.3344 -1.0532  0.9436
17857TIP3    H274987   2.481   2.998  13.780  0.3578  1.0704  1.3774
17858TIP3   OH274988   6.443   1.335  15.337 -0.0700  0.1165  0.5382
17858TIP3    H174989   6.363   1.285  15.321  0.1610  0.1094 -0.7453
17858TIP3    H274990   6.448   1.395  15.263  1.5868 -0.5147  0.0910
17859TIP3   OH274991   2.595   5.652   3.995 -0.0979  0.3080 -0.2197
17859TIP3    H174992   2.576   5.585   4.061  1.3736 -0.7678 -0.8428
17859TIP3    H274993   2.628   5.603   3.920  1.6226  1.7655 -0.4720
17860TIP3   OH274994   5.440   4.775  16.111  0.3527  0.1952  0.6363
17860TIP3    H174995   5.432   4.828  16.190  0.0819 -0.3894  1.0136
17860TIP3    H274996   5.407   4.831  16.041 -1.5869 -0.0620  1.2690
17861TIP3   OH274997   1.644   1.987   2.687  0.0891 -0.0539 -0.2253
17861TIP3    H174998   1.567   2.041   2.668  0.2663  0.3238  0.0935
17861TIP3    H274999   1.632   1.908   2.635 -0.6437 -0.1114  0.0127
17862TIP3   OH275000   4.279   2.506   1.915 -0.1089 -0.5196 -0.2014
17862TIP3    H175001   4.255   2.566   1.844 -0.2463 -0.1167  0.1808
17862TIP3    H275002   4.198   2.494   1.964  0.2459  0.1347  0.5692
17863TIP3   OH275003   0.192   1.514  11.143 -0.1627  0.5495 -0.4003
17863TIP3    H175004   0.217   1.471  11.061 -0.7618 -0.2870 -0.1523
17863TIP3    H275005   0.198   1.446  11.210 -1.8831  0.6147 -0.1372
17864TIP3   OH275006   5.353   1.915   4.353  0.2690  0.1073  0.4189
17864TIP3    H175007   5.270   1.948   4.320 -0.3640 -0.9843  0.8650
17864TIP3    H275008   5.335   1.824   4.376  1.5657 -0.1151  0.6183
17865TIP3   OH275009   1.291   6.091  16.440  0.0954  0.1487  0.0608
17865TIP3    H175010   1.272   6.124  16.527  1.1149 -1.8486  1.1313
17865TIP3    H275011   1.387   6.086  16.437  0.0434 -0.6173 -0.8338
17866TIP3   OH275012   2.437   6.721   4.223  0.1364 -0.7253  0.5104
17866TIP3    H175013   2.513   6.754   4.271  1.5942 -3.9344  0.6821
17866TIP3    H275014   2.471   6.693   4.138 -0.9807 -1.5270  0.2917
17867TIP3   OH275015   6.438   5.231   2.340 -0.1200  0.3661 -0.0434
17867TIP3    H175016   6.487   5.149   2.340  0.3403  0.6355 -0.7954
17867TIP3    H275017   6.483   5.287   2.277 -0.7269  1.0239  0.0859
17868TIP3   OH275018   5.482   0.614   5.880 -0.2015  0.6322 -0.3486
17868TIP3    H175019   5.445   0.703   5.875 -1.6458  0.0975  0.2309
17868TIP3    H275020   5.510   0.606   5.972  0.1219  0.5515 -0.4529
17869TIP3   OH275021   2.726   4.669   2.162  0.5037 -0.0648  0.2288
17869TIP3    H175022   2.769   4.586   2.187  0.4237  0.0040  0.5943
17869TIP3    H275023   2.751   4.730   2.231  0.1955  0.0990  0.1951
17870TIP3   OH275024   4.019   4.358  17.106  0.0282 -0.4789  0.1594
17870TIP3    H175025   4.032   4.271  17.068  1.3152 -0.5217  0.6711
17870TIP3    H275026   3.941   4.348  17.161 -0.3344 -1.0758 -0.4412
17871TIP3   OH275027   2.832   3.493  13.427 -0.3867  0.4299 -0.3567
17871TIP3    H175028   2.923   3.515  13.444  0.1459 -1.7309 -0.0431
17871TIP3    H275029   2.789   3.503  13.512 -0.1799  0.3517 -0.2414
17872TIP3   OH275030   0.440   0.738   5.803 -0.7547  0.4600  0.4887
17872TIP3    H175031   0.478   0.700   5.882  0.2869  0.2454 -0.0960
17872TIP3    H275032   0.444   0.832   5.817 -1.1802  0.4140  0.9567
17873TIP3   OH275033   0.559   4.911  16.971  0.3018  0.0575 -0.2700
17873TIP3    H175034   0.478   4.887  16.926 -0.6354 -0.4149  1.5813
17873TIP3    H275035   0.615   4.834  16.961 -0.7593 -0.9767  1.2278
17874TIP3   OH275036   6.278   2.031  11.479 -0.3140  0.3332 -0.1009
17874TIP3    H175037   6.202   1.976  11.461  0.7933 -2.0934  1.9875
17874TIP3    H275038   6.342   2.006  11.413 -0.4139  0.3942 -0.2208
17875TIP3   OH275039   3.346   0.399   0.987 -0.2157 -0.5701  0.2972
17875TIP3    H175040   3.334   0.304   0.992 -1.0532 -0.4890  0.0930
17875TIP3    H275041   3.412   0.412   0.919 -2.2890 -0.9149 -1.9193
17876TIP3   OH275042   4.452   4.362  14.388 -0.0088 -0.5430  0.2627
17876TIP3    H175043   4.414   4.439  14.431 -0.7355 -0.8445  0.1866
17876TIP3    H275044   4.543   4.386  14.372 -0.4039  0.5865 -0.4251
17877TIP3   OH275045   6.198   4.838   3.535  0.1811  0.4047 -0.1763
17877TIP3    H175046   6.161   4.750   3.522 -0.0198  0.3700  0.5392
17877TIP3    H275047   6.251   4.829   3.615  2.1154  0.3444 -1.4110
17878TIP3   OH275048   2.532   5.105  12.566 -0.2286  0.0871 -0.3561
17878TIP3    H175049   2.530   5.031  12.627  0.6722 -0.4030 -0.9017
17878TIP3    H275050   2.619   5.101  12.526 -0.5830  0.7650 -1.2286
17879TIP3   OH275051   0.477   3.331  13.037  0.2289  0.4471 -0.0154
17879TIP3    H175052   0.462   3.271  13.110  1.6317  0.3427  0.2149
17879TIP3    H275053   0.443   3.285  12.960 -0.1365  0.0290  0.3971
17880TIP3   OH275054   0.560   0.743   4.602 -0.4750  0.2715 -0.1509
17880TIP3    H175055   0.533   0.655   4.628 -0.5858  0.3650  0.0527
17880TIP3    H275056   0.519   0.756   4.517 -0.0197 -0.0795 -0.4259
17881TIP3   OH275057   2.391   6.199   4.884 -0.2278 -0.1949 -0.0572
17881TIP3    H175058   2.297   6.185   4.878 -0.3167 -0.5694  1.5929
17881TIP3    H275059   2.401   6.270   4.948  0.5918  0.3521 -0.7692
17882TIP3   OH275060   1.947   0.707  11.574  0.5618  0.4304 -0.3256
17882TIP3    H175061   1.997   0.774  11.526 -0.5634  2.8733  1.6799
17882TIP3    H275062   2.005   0.681  11.645  0.4248  0.4086 -0.2227
17883TIP3   OH275063   1.285   1.362  16.160  0.6107  0.0297  0.1555
17883TIP3    H175064   1.233   1.425  16.212  1.3371  1.5516 -0.8863
17883TIP3    H275065   1.229   1.284  16.155 -0.0251  0.3005  2.0963
17884TIP3   OH275066   3.292   5.005   5.725  0.4595  0.2465  0.3642
17884TIP3    H175067   3.320   4.951   5.651 -1.9898  0.0961 -0.5418
17884TIP3    H275068   3.326   5.092   5.706  2.8708 -0.4914  0.9146
17885TIP3   OH275069   0.588   4.869  14.269 -0.0173 -0.2010  0.0544
17885TIP3    H175070   0.597   4.851  14.175 -2.0050 -0.4395 -0.1386
17885TIP3    H275071   0.666   4.830  14.308  1.7828  1.4721 -1.6495
17886TIP3   OH275072   2.965   6.371   2.197  0.7530 -0.0116  0.4432
17886TIP3    H175073   2.880   6.413   2.206  1.4540  1.1414  2.3069
17886TIP3    H275074   3.028   6.443   2.193  1.7708 -0.8382  0.9006
17887TIP3   OH275075   0.657   3.255  11.756  0.1596 -0.1526  0.0655
17887TIP3    H175076   0.647   3.251  11.851  1.6517  0.3556  0.2758
17887TIP3    H275077   0.612   3.177  11.723  0.3218 -0.7639  1.2642
17888TIP3   OH275078   3.369   5.088   2.289 -0.1930 -0.7506 -0.3510
17888TIP3    H175079   3.424   5.012   2.312  1.3773  0.6438  0.7807
17888TIP3    H275080   3.418   5.163   2.322 -1.1251  0.8911 -2.4757
17889TIP3   OH275081   3.683   2.303  16.132 -1.1462  0.0901  0.7600
17889TIP3    H175082   3.717   2.343  16.212 -2.0983 -0.4385  1.4470
17889TIP3    H275083   3.604   2.257  16.160 -0.5940 -1.5019 -0.1646
17890TIP3   OH275084   2.769   5.515  12.439 -0.1551  0.3420 -0.1550
17890TIP3    H175085   2.681   5.497  12.472 -0.7389  0.2428 -1.6825
17890TIP3    H275086   2.827   5.469  12.499 -1.1656  0.1626  0.7020
17891TIP3   OH275087   5.306   4.994  14.769 -0.2720 -0.6941  0.2386
17891TIP3    H175088   5.361   5.067  14.740 -2.1262  0.5662 -0.2750
17891TIP3    H275089   5.288   4.945  14.689 -1.2578 -0.1128  0.0875
17892TIP3   OH275090   4.147   2.938   1.450 -0.6332 -0.0198 -0.1885
17892TIP3    H175091   4.172   2.845   1.452 -1.1491 -0.1618  0.7539
17892TIP3    H275092   4.229   2.986   1.443 -0.1928 -0.5105  1.1942
17893TIP3   OH275093   0.853   5.257  16.526  0.0463 -0.1898  0.2982
17893TIP3    H175094   0.796   5.326  16.559  1.2534 -0.2640  2.7937
17893TIP3    H275095   0.938   5.273  16.567  1.3789 -1.1075 -1.8905
17894TIP3   OH275096   1.676   6.578  17.247  0.3631 -0.0015 -0.3209
17894TIP3    H175097   1.733   6.652  17.223 -2.3328  2.0314 -0.9925
17894TIP3    H275098   1.639   6.602  17.331 -0.9687 -0.2822 -0.7952
17895TIP3   OH275099   2.386   0.019  15.518 -0.1873 -0.3938 -0.1022
17895TIP3    H175100   2.473   0.058  15.513 -1.5252  3.0092  0.6262
17895TIP3    H275101   2.351   0.027  15.429 -0.4183  0.0151  0.0212
17896TIP3   OH275102   1.699   1.075   0.965  0.1015  0.2758  0.0480
17896TIP3    H175103   1.604   1.069   0.965 -0.0132  1.8189 -0.1288
17896TIP3    H275104   1.723   1.077   0.873  0.4139 -1.1191  0.0669
17897TIP3   OH275105   3.684   2.111   2.508  0.4091 -0.3390  0.0323
17897TIP3    H175106   3.643   2.140   2.427 -0.5177 -3.0973 -0.5767
17897TIP3    H275107   3.767   2.072   2.481  0.5636 -0.3676  0.5320
17898TIP3   OH275108   0.229   0.538  14.885  0.5515  0.7042 -0.0790
17898TIP3    H175109   0.189   0.611  14.933 -0.3165  0.3787 -0.2867
17898TIP3    H275110   0.251   0.576  14.799 -1.1084  0.4107 -0.6623
17899TIP3   OH275111   3.227   5.426   3.594 -0.1695 -0.3204  0.1433
17899TIP3    H175112   3.208   5.494   3.658 -0.9210  1.8893 -2.2389
17899TIP3    H275113   3.321   5.434   3.578  0.1045 -1.1631  1.1810
17900TIP3   OH275114   1.245   2.211   2.411  0.4436  0.1360  0.5129
17900TIP3    H175115   1.153   2.229   2.430  0.6378  0.5109  1.1096
17900TIP3    H275116   1.267   2.272   2.341  0.0400 -0.4695 -0.1573
17901TIP3   OH275117   3.812   6.599  12.955  0.3578 -0.3380  0.3236
17901TIP3    H175118   3.905   6.584  12.973  0.4129  0.6017  0.8633
17901TIP3    H275119   3.782   6.516  12.917  1.3781 -0.7024  0.2715
17902TIP3   OH275120   1.040   5.487   2.456 -0.2115 -0.0998 -0.1424
17902TIP3    H175121   0.975   5.557   2.446 -0.3440 -0.1213  0.5340
17902TIP3    H275122   1.084   5.483   2.370 -1.1900 -0.1856 -0.6499
17903TIP3   OH275123   6.727   5.570  11.993  0.2848  0.5868  0.5642
17903TIP3    H175124   6.781   5.631  11.942  0.6853 -0.1797  0.0331
17903TIP3    H275125   6.640   5.577  11.954 -0.3073  2.5941  2.0937
17904TIP3   OH275126   5.300   4.268   2.209 -0.0453 -0.2657  0.3405
17904TIP3    H175127   5.362   4.341   2.216  0.7941 -0.9910  0.7352
17904TIP3    H275128   5.229   4.291   2.269  0.6562 -0.1935  1.1730
17905TIP3   OH275129   0.239   3.207  16.677  0.3150 -0.0912  0.3386
17905TIP3    H175130   0.288   3.274  16.629 -1.4519  1.5995  0.7373
17905TIP3    H275131   0.296   3.131  16.677  2.4867  1.4279 -0.0581
17906TIP3   OH275132   0.633   0.915   1.861  0.1883  0.3932  0.2709
17906TIP3    H175133   0.659   0.899   1.951 -0.3250 -0.5706  0.2567
17906TIP3    H275134   0.687   0.855   1.809 -1.7669 -1.3908  0.2159
17907TIP3   OH275135   5.860   5.004  17.174  1.1661 -0.2330  0.0235
17907TIP3    H175136   5.876   5.078  17.232  1.4485 -0.2269 -0.0607
17907TIP3    H275137   5.944   4.959  17.169  0.8031 -1.0011  0.6817
17908TIP3   OH275138   0.976   6.349  17.168  0.2408  0.2394 -0.7920
17908TIP3    H175139   0.944   6.428  17.212  0.2036  0.1087 -0.5854
17908TIP3    H275140   1.039   6.382  17.104 -1.2863  0.6377 -2.1480
17909TIP3   OH275141   0.251   3.710  10.946 -0.1810 -0.3799  0.1838
17909TIP3    H175142   0.231   3.797  10.980  1.3440  0.2332 -0.4147
17909TIP3    H275143   0.338   3.689  10.980  0.0336 -1.0961 -0.7430
17910TIP3   OH275144   5.958   0.209   6.676  0.2112  0.6042 -0.1535
17910TIP3    H175145   5.954   0.304   6.665 -1.8093  0.4403 -1.3256
17910TIP3    H275146   6.004   0.178   6.598 -0.5373  0.5179 -0.5649
17911TIP3   OH275147   3.372   1.887  15.737 -0.8297 -0.1156  0.5991
17911TIP3    H175148   3.310   1.921  15.673  0.3366 -0.7675 -0.9652
17911TIP3    H275149   3.321   1.872  15.816 -2.7246 -0.9205 -0.7119
17912TIP3   OH275150   1.173   4.999  13.184  0.4684 -0.2253  0.2611
17912TIP3    H175151   1.209   5.062  13.247  1.6166 -0.5192 -0.0948
17912TIP3    H275152   1.080   5.022  13.179  1.0243  2.1133 -0.6215
17913TIP3   OH275153   3.039   5.067   5.784  0.5797 -0.2721 -0.2060
17913TIP3    H175154   3.022   5.094   5.874 -0.6070 -1.3915 -0.0631
17913TIP3    H275155   3.130   5.038   5.785  1.4385  2.2006 -0.0355
17914TIP3   OH275156   3.023   2.994   5.849 -0.3535  0.3117 -0.7563
17914TIP3    H175157   3.054   3.071   5.803  1.5254 -0.2160 -0.4335
17914TIP3    H275158   2.995   2.934   5.780 -0.7530  0.8177 -1.0428
17915TIP3   OH275159   2.749   6.442  12.336 -0.3316  0.6109 -0.0895
17915TIP3    H175160   2.738   6.507  12.406  2.3964  0.3630  0.6962
17915TIP3    H275161   2.736   6.357  12.380 -0.1398  0.4962 -0.2521
17916TIP3   OH275162   6.633   3.641   1.935 -0.0881 -0.1038  0.1150
17916TIP3    H175163   6.590   3.567   1.979  1.4921 -0.6171  0.8960
17916TIP3    H275164   6.609   3.631   1.843  1.2915 -2.5554 -0.0684
17917TIP3   OH275165   5.678   3.099   0.103  0.2170  0.1175 -0.6275
17917TIP3    H175166   5.683   3.110   0.198  0.2610  1.5635 -0.7660
17917TIP3    H275167   5.584   3.101   0.085  0.2470  2.0948 -0.7962
17918TIP3   OH275168   6.243   2.692   2.497 -0.0526 -0.1625 -0.3125
17918TIP3    H175169   6.312   2.733   2.445  0.2463  0.3546  0.4737
17918TIP3    H275170   6.245   2.600   2.470  0.5318 -0.0317 -0.7461
17919TIP3   OH275171   2.557   5.783   3.579 -0.0322  0.2976 -0.4270
17919TIP3    H175172   2.618   5.726   3.531  1.1389  0.7475  0.4697
17919TIP3    H275173   2.505   5.723   3.632  1.2360  0.0129  0.5551
17920TIP3   OH275174   0.639   1.215   5.013  0.0382  0.2885 -0.2996
17920TIP3    H175175   0.602   1.218   5.101 -0.1802 -3.5523 -0.0944
17920TIP3    H275176   0.563   1.205   4.955  0.3311 -0.8059 -0.5239
17921TIP3   OH275177   1.671   6.095  17.214 -0.0746  0.3991 -0.1638
17921TIP3    H175178   1.609   6.038  17.261  0.1402 -0.1464 -0.5322
17921TIP3    H275179   1.668   6.064  17.124  2.4150 -1.1849  0.2053
17922TIP3   OH275180   1.678   3.925   4.163 -0.3873  0.4963  0.1697
17922TIP3    H175181   1.658   4.002   4.109  3.3160  1.5994  0.1588
17922TIP3    H275182   1.663   3.954   4.253  1.6281  1.5233  0.2110
17923TIP3   OH275183   0.167   4.343  13.514  0.6691 -0.3187 -0.6103
17923TIP3    H175184   0.231   4.272  13.502  0.0670 -1.2488  1.3013
17923TIP3    H275185   0.108   4.311  13.582 -1.4959  0.7805 -1.8705
17924TIP3   OH275186   1.817   4.980   1.056 -0.1546  0.2954 -1.0551
17924TIP3    H175187   1.790   4.892   1.031 -1.7999  1.0458 -2.0779
17924TIP3    H275188   1.757   5.006   1.126  0.2545  0.6519 -0.8233
17925TIP3   OH275189   4.426   0.846  13.783 -0.1222  0.4048 -0.0904
17925TIP3    H175190   4.351   0.875  13.836  1.1151  1.3851  1.1868
17925TIP3    H275191   4.389   0.780  13.724 -1.7488 -0.0314  1.3321
17926TIP3   OH275192   1.837   2.242   0.016 -0.0907 -0.7383  0.3717
17926TIP3    H175193   1.900   2.309   0.040 -1.8955  1.6709 -1.1351
17926TIP3    H275194   1.836   2.182   0.091  3.1032 -0.3008  0.8942
17927TIP3   OH275195   5.176   4.036  12.086 -0.6622 -0.2417 -0.0329
17927TIP3    H175196   5.171   3.949  12.047  0.1347 -0.3844  0.1739
17927TIP3    H275197   5.258   4.073  12.053  0.5167 -0.7133  2.1517
17928TIP3   OH275198   3.940   0.524   5.172 -0.2016 -0.0406  0.4060
17928TIP3    H175199   3.942   0.615   5.199 -2.0273 -0.5062  2.3366
17928TIP3    H275200   3.872   0.521   5.104 -0.2530 -0.0068  0.4563
17929TIP3   OH275201   1.786   6.397   5.039  0.6467 -0.4639  0.0714
17929TIP3    H175202   1.785   6.479   5.089 -2.8913 -0.4382  0.2206
17929TIP3    H275203   1.829   6.334   5.098  0.9790  0.6792  1.0919
17930TIP3   OH275204   3.227   3.454  14.761  0.0182 -0.0088 -0.1088
17930TIP3    H175205   3.196   3.543  14.772  1.3785  0.3193  1.4944
17930TIP3    H275206   3.206   3.411  14.844  1.7524 -0.3789  0.1838
17931TIP3   OH275207   6.650   1.515   3.497 -0.2564 -0.6710  0.5415
17931TIP3    H175208   6.669   1.457   3.424 -0.3395 -2.0493  1.5639
17931TIP3    H275209   6.620   1.597   3.457  1.0567 -0.8869 -0.9655
17932TIP3   OH275210   0.036   3.201   2.232 -0.4469  0.1782  0.2041
17932TIP3    H175211   0.097   3.158   2.172 -0.5807  0.0613  0.1512
17932TIP3    H275212   0.003   3.276   2.182  1.8037  1.9614  1.2042
17933TIP3   OH275213   2.111   4.978  17.059 -0.1032  0.0496 -0.4477
17933TIP3    H175214   2.186   5.020  17.100 -0.0986 -0.0030 -0.4040
17933TIP3    H275215   2.110   4.889  17.094 -1.3641  0.6256  1.0993
17934TIP3   OH275216   5.993   0.154  11.054  0.3543 -0.4413 -0.1799
17934TIP3    H175217   5.981   0.249  11.045  1.6223 -0.3073 -0.6573
17934TIP3    H275218   5.933   0.129  11.124  0.7316  0.8979  0.6736
17935TIP3   OH275219   5.803   1.007  14.540  0.6329  0.4352 -0.2586
17935TIP3    H175220   5.808   1.082  14.481  0.6465  0.8404  0.2538
17935TIP3    H275221   5.712   1.007  14.570  0.7453  0.5200  0.0894
17936TIP3   OH275222   5.333   3.836  13.023  0.8999  0.1378 -0.5298
17936TIP3    H175223   5.288   3.809  13.104  1.5207  0.7096  0.0171
17936TIP3    H275224   5.267   3.824  12.955  0.3354 -0.2866  0.0687
17937TIP3   OH275225   2.595   4.235   4.738  0.6561  0.1077 -0.1475
17937TIP3    H175226   2.631   4.323   4.737  0.2677  0.2666 -0.3957
17937TIP3    H275227   2.526   4.237   4.804 -0.6531  0.5307 -1.4638
17938TIP3   OH275228   1.299   5.655   6.616 -0.3144  0.2998 -0.2022
17938TIP3    H175229   1.356   5.721   6.577  1.6964 -1.2375 -0.0602
17938TIP3    H275230   1.337   5.639   6.703 -0.6936 -1.0834 -0.2717
17939TIP3   OH275231   3.329   0.597   4.055 -0.1404  0.1938 -0.1381
17939TIP3    H175232   3.415   0.589   4.013  0.2343 -2.4216  0.9240
17939TIP3    H275233   3.341   0.661   4.125  0.9526 -0.1785  0.0248
17940TIP3   OH275234   0.414   5.512  16.549  0.0266 -0.9018 -0.1223
17940TIP3    H175235   0.330   5.466  16.549 -1.0539  0.8767 -1.5841
17940TIP3    H275236   0.414   5.560  16.466  0.9626  1.7764  1.3112
17941TIP3   OH275237   0.764   1.510  11.317  0.0324 -0.0008  0.2245
17941TIP3    H175238   0.855   1.481  11.323  0.7178  1.9091 -0.2329
17941TIP3    H275239   0.734   1.475  11.233  0.1838 -1.0245  0.5824
17942TIP3   OH275240   6.307   6.098   3.341  0.3019 -0.5703  0.2258
17942TIP3    H175241   6.366   6.044   3.394  0.1119 -0.8826  0.1255
17942TIP3    H275242   6.329   6.075   3.250 -0.5617 -1.3407  0.1987
17943TIP3   OH275243   1.720   0.664  10.678  0.0292 -0.6196 -0.8186
17943TIP3    H175244   1.794   0.612  10.709  0.3223 -0.5987 -1.4806
17943TIP3    H275245   1.698   0.627  10.593  1.1384  1.1830 -1.9670
17944TIP3   OH275246   0.805   5.972  13.364  0.5954 -0.5078  0.6441
17944TIP3    H175247   0.715   5.949  13.345  0.3340  0.0877  1.1332
17944TIP3    H275248   0.799   6.038  13.433  1.4088 -0.5868  0.7999
17945TIP3   OH275249   2.096   2.841  15.911 -0.5758  0.0709 -1.0253
17945TIP3    H175250   2.041   2.769  15.942  0.9790 -2.6468 -3.9381
17945TIP3    H275251   2.045   2.881  15.841 -0.1830 -0.3257 -1.5461
17946TIP3   OH275252   4.159   6.326  12.523 -0.5066 -0.1686 -0.6655
17946TIP3    H175253   4.135   6.399  12.466 -0.9446 -2.6126 -3.9226
17946TIP3    H275254   4.076   6.295  12.559 -0.8138 -1.1427 -2.1303
17947TIP3   OH275255   4.038   2.970   2.997 -0.0429 -0.0482 -0.7747
17947TIP3    H175256   3.984   2.980   3.075  0.5463 -1.4750 -0.1545
17947TIP3    H275257   3.980   2.993   2.925 -0.9750  0.0661 -0.0083
17948TIP3   OH275258   2.362   2.412   2.178 -0.6597  0.0773  0.5686
17948TIP3    H175259   2.433   2.426   2.116 -3.2117  0.9140 -2.3971
17948TIP3    H275260   2.367   2.487   2.238  0.1253  0.8472 -0.4348
17949TIP3   OH275261   2.547   5.284  16.693 -1.2239 -0.3391 -0.2839
17949TIP3    H175262   2.630   5.240  16.676 -1.8198 -0.9693 -1.6998
17949TIP3    H275263   2.525   5.326  16.610 -3.5294 -2.2375 -0.7233
17950TIP3   OH275264   5.834   2.583  12.389 -0.2716 -0.2127  0.1826
17950TIP3    H175265   5.909   2.638  12.367  0.6826 -0.7101  2.0127
17950TIP3    H275266   5.763   2.644  12.405  0.2203  0.3668  0.1767
17951TIP3   OH275267   2.215   2.815  13.750  0.3155 -0.5124  0.7473
17951TIP3    H175268   2.200   2.902  13.788  1.4214  0.0186  0.0229
17951TIP3    H275269   2.205   2.755  13.824  1.2244  0.3879  1.6411
17952TIP3   OH275270   5.586   4.102  16.391  0.2607  0.2391  0.6290
17952TIP3    H175271   5.658   4.092  16.454  0.0247  1.1069  1.0432
17952TIP3    H275272   5.629   4.105  16.306  0.7027  0.5414  0.8593
17953TIP3   OH275273   5.234   4.317   1.618 -0.0104  0.3596 -0.1475
17953TIP3    H175274   5.199   4.271   1.694  0.0303  0.4296 -0.0858
17953TIP3    H275275   5.156   4.348   1.570 -0.0841 -1.0793 -1.0136
17954TIP3   OH275276   1.428   5.337  12.808  0.3159  0.7189 -0.4195
17954TIP3    H175277   1.449   5.265  12.867  0.7879  0.2158 -1.1870
17954TIP3    H275278   1.441   5.301  12.721 -2.2448  0.8604 -0.9117
17955TIP3   OH275279   2.146   6.044  11.647  0.2697 -0.4875  0.6122
17955TIP3    H175280   2.181   6.035  11.558  1.4869  1.1802  0.8790
17955TIP3    H275281   2.055   6.071  11.634  0.8870  1.3967 -0.1947
17956TIP3   OH275282   1.772   0.959   6.143 -0.4464 -0.4447  0.6860
17956TIP3    H175283   1.771   0.927   6.052 -2.0623 -0.1615  0.5696
17956TIP3    H275284   1.779   1.054   6.134 -1.5369 -0.3370  0.7933
17957TIP3   OH275285   4.286   2.109   3.437 -0.1379  0.5369 -0.1516
17957TIP3    H175286   4.210   2.055   3.417  0.1612  0.4402 -1.0453
17957TIP3    H275287   4.302   2.094   3.531 -1.8278  1.3522  0.3120
17958TIP3   OH275288   4.110   1.641   1.436  0.1709 -0.1039 -0.0586
17958TIP3    H175289   4.113   1.554   1.476  1.8641  1.1382  2.8337
17958TIP3    H275290   4.201   1.665   1.421 -0.2786  0.9922 -1.3091
17959TIP3   OH275291   1.153   1.857  11.695 -0.5521  0.4718 -0.1986
17959TIP3    H175292   1.164   1.763  11.683 -2.5063  0.2930 -0.9475
17959TIP3    H275293   1.233   1.885  11.741 -0.1296 -1.6101  0.4461
17960TIP3   OH275294   5.728   4.943  16.910  0.3841 -0.0876 -0.0234
17960TIP3    H175295   5.760   4.949  17.000 -2.6589 -0.2738  1.1811
17960TIP3    H275296   5.678   5.023  16.897  0.7737 -0.0700 -1.5897
17961TIP3   OH275297   3.049   4.655   1.050  0.1789 -0.5271 -0.1629
17961TIP3    H175298   3.090   4.727   1.099  0.8797  0.0471 -1.5529
17961TIP3    H275299   2.955   4.666   1.065  0.3089  0.3435  0.0854
17962TIP3   OH275300   1.052   4.871  16.708  0.2577  0.0918 -0.5806
17962TIP3    H175301   1.002   4.803  16.754  1.5382 -0.5119 -0.0257
17962TIP3    H275302   1.101   4.823  16.641  0.0274  0.6838 -1.1777
17963TIP3   OH275303   1.336   0.317   1.956  0.2568  0.4806  0.2888
17963TIP3    H175304   1.365   0.232   1.989 -0.9298 -0.4357 -0.9123
17963TIP3    H275305   1.283   0.353   2.028 -0.5941 -0.5590  0.2210
17964TIP3   OH275306   2.838   1.648   6.205  0.0001  0.3528  0.1791
17964TIP3    H175307   2.817   1.740   6.215  1.7252  0.7741  0.3422
17964TIP3    H275308   2.829   1.630   6.112 -1.0256  0.4946  0.2490
17965TIP3   OH275309   2.287   3.181  15.933 -0.4404  0.2162  0.3343
17965TIP3    H175310   2.214   3.131  15.969 -0.1239 -0.2978  0.2735
17965TIP3    H275311   2.347   3.192  16.007  0.5695 -1.4957 -0.1618
17966TIP3   OH275312   4.952   0.360  15.261  0.0687 -0.2446 -0.1893
17966TIP3    H175313   4.861   0.329  15.257 -0.4160  1.0967 -0.1101
17966TIP3    H275314   4.974   0.379  15.169 -0.0958  0.3829 -0.1071
17967TIP3   OH275315   5.901   4.410  14.993  0.2191  0.2665 -0.2764
17967TIP3    H175316   5.858   4.407  14.908  2.2245  0.5295 -1.3526
17967TIP3    H275317   5.906   4.318  15.021 -0.2090  0.1569 -0.5593
17968TIP3   OH275318   5.452   1.624  14.662 -0.2003 -0.6620 -0.1011
17968TIP3    H175319   5.373   1.673  14.687 -1.6980 -1.2538 -3.1628
17968TIP3    H275320   5.518   1.691  14.647 -0.6040 -0.0229  0.8550
17969TIP3   OH275321   5.485   2.784  14.710 -0.0174  0.0994  0.9871
17969TIP3    H175322   5.544   2.803  14.637 -1.1247 -0.3445 -0.0589
17969TIP3    H275323   5.419   2.726  14.673 -1.5935  1.2249  1.8801
17970TIP3   OH275324   5.699   4.623  14.380 -0.8380  0.1755 -0.2048
17970TIP3    H175325   5.648   4.704  14.377  1.2813  1.5917  0.3102
17970TIP3    H275326   5.634   4.554  14.364 -3.1436  1.7545  1.6311
17971TIP3   OH275327   0.339   3.302   3.613  0.1820  0.0625 -0.5774
17971TIP3    H175328   0.394   3.331   3.540  3.5176 -1.2573  1.2092
17971TIP3    H275329   0.363   3.210   3.626 -3.1344 -0.8671 -0.1278
17972TIP3   OH275330   6.267   6.247  16.289  0.3084  0.1927 -0.3798
17972TIP3    H175331   6.360   6.236  16.270  0.9490  1.0935  1.8222
17972TIP3    H275332   6.266   6.294  16.373 -2.1331 -0.2960 -0.0707
17973TIP3   OH275333   2.483   3.145   0.623  0.1258  0.0406  0.0865
17973TIP3    H175334   2.505   3.118   0.534 -0.8261  2.1650 -0.8735
17973TIP3    H275335   2.555   3.112   0.677  2.9563  2.0762 -2.0743
17974TIP3   OH275336   1.929   4.374  14.691 -0.1818  0.7591 -0.0189
17974TIP3    H175337   1.843   4.333  14.692 -0.0439  0.2952 -2.2493
17974TIP3    H275338   1.989   4.305  14.722 -0.4039  0.5344 -0.0885
17975TIP3   OH275339   5.070   5.141  15.425  0.0815 -0.2173  0.1558
17975TIP3    H175340   5.071   5.047  15.410  1.3895  0.1190 -2.4567
17975TIP3    H275341   5.162   5.165  15.433 -0.1608  1.0064 -0.4818
17976TIP3   OH275342   2.740   4.929   1.068 -0.0373 -0.4532 -0.1721
17976TIP3    H175343   2.666   4.957   1.121 -0.5082  0.4967 -1.3039
17976TIP3    H275344   2.754   5.000   1.005  1.5508 -0.8041 -0.2775
17977TIP3   OH275345   5.997   1.909  10.867  0.1977  0.2338  0.1196
17977TIP3    H175346   6.055   1.842  10.904 -0.2686 -1.0267 -1.3049
17977TIP3    H275347   6.053   1.985  10.855  1.4458 -0.7643 -0.6830
17978TIP3   OH275348   5.810   4.012   4.565 -0.0205  0.6339 -0.1903
17978TIP3    H175349   5.773   3.983   4.482 -4.4123 -0.3971  1.8374
17978TIP3    H275350   5.851   4.096   4.545 -0.3009  0.1350 -3.4556
17979TIP3   OH275351   0.617   1.342  11.753  0.2284 -0.4739 -0.0078
17979TIP3    H175352   0.624   1.269  11.814  1.2348 -1.3335 -1.0954
17979TIP3    H275353   0.672   1.411  11.790  2.2400 -1.6017 -0.7389
17980TIP3   OH275354   2.748   6.384  11.205  0.2062  0.5746  0.2954
17980TIP3    H175355   2.678   6.319  11.215  0.3788  0.3409  0.0270
17980TIP3    H275356   2.730   6.450  11.272 -1.8112  1.9233 -1.4286
17981TIP3   OH275357   1.395   3.674  16.898 -0.2669 -0.0319  0.4380
17981TIP3    H175358   1.481   3.685  16.938 -0.4921 -1.0117  1.2358
17981TIP3    H275359   1.339   3.737  16.943  0.1438  1.0589 -0.5209
17982TIP3   OH275360   2.708   2.459   5.111 -0.3216  0.4840 -0.3753
17982TIP3    H175361   2.628   2.512   5.103 -0.9724 -0.0214  2.0650
17982TIP3    H275362   2.720   2.421   5.024 -3.7289 -0.7711 -0.4626
17983TIP3   OH275363   2.424   1.960  14.770  0.8750 -0.3944  0.2647
17983TIP3    H175364   2.399   1.872  14.799  0.3858 -1.1831 -2.3163
17983TIP3    H275365   2.341   2.005  14.755  1.0834 -0.3417 -0.7737
17984TIP3   OH275366   4.649   4.616   2.191 -0.0883  0.6606  0.6387
17984TIP3    H175367   4.742   4.637   2.198 -0.1281  0.5907  1.4685
17984TIP3    H275368   4.640   4.573   2.105  0.2331  2.6677 -0.4536
17985TIP3   OH275369   3.354   4.735   2.262  0.2948  0.3882 -0.2100
17985TIP3    H175370   3.387   4.727   2.172 -0.9773 -1.1413 -0.5926
17985TIP3    H275371   3.271   4.782   2.253 -0.1071 -0.2517  0.0793
17986TIP3   OH275372   6.731   4.536  12.499 -0.3063 -0.5244 -0.6746
17986TIP3    H175373   6.656   4.566  12.550 -0.6075  0.8285 -1.8665
17986TIP3    H275374   6.702   4.539  12.408  1.4195  0.8480 -1.2452
17987TIP3   OH275375   0.329   1.952  11.057  0.2169  0.2149 -0.0240
17987TIP3    H175376   0.252   1.903  11.086  0.4352 -0.2334 -0.1918
17987TIP3    H275377   0.390   1.944  11.130 -0.1086  1.0725  0.3603
17988TIP3   OH275378   2.789   4.289  12.465 -0.2291 -0.8425 -0.1545
17988TIP3    H175379   2.798   4.383  12.481 -1.3104 -0.2141 -2.7347
17988TIP3    H275380   2.801   4.279  12.371 -1.7904 -3.0503 -0.2081
17989TIP3   OH275381   3.132   0.363   5.839  0.1068  0.1911  0.5973
17989TIP3    H175382   3.087   0.286   5.871  0.4545 -0.8100 -1.1568
17989TIP3    H275383   3.174   0.401   5.916 -0.9927 -0.7132  1.6820
17990TIP3   OH275384   2.371   0.066  11.640 -0.2576  0.4609  0.2223
17990TIP3    H175385   2.435   0.035  11.703 -1.2284  0.0221  1.0169
17990TIP3    H275386   2.289   0.070  11.689 -0.4875  2.8372 -0.2604
17991TIP3   OH275387   2.068   2.993  11.672 -0.1956 -0.2980 -0.1166
17991TIP3    H175388   2.039   3.028  11.588  1.4037  1.3625 -0.0452
17991TIP3    H275389   2.125   2.920  11.650 -0.3717 -0.3326 -0.4558
17992TIP3   OH275390   0.906   3.402  11.206 -0.3581 -0.3286  0.4436
17992TIP3    H175391   0.899   3.494  11.184 -0.5458 -0.8634 -2.0044
17992TIP3    H275392   0.875   3.356  11.128 -1.1948 -2.4695  1.9366
17993TIP3   OH275393   4.135   2.055  11.262  0.2514  0.2027  0.2749
17993TIP3    H175394   4.122   2.122  11.328  0.6433  0.1294  0.4322
17993TIP3    H275395   4.129   2.101  11.178  0.1248  0.3604  0.3711
17994TIP3   OH275396   5.296   0.266   1.882  0.1770  0.3969  0.5280
17994TIP3    H175397   5.346   0.184   1.880  0.7850  0.7280  1.5488
17994TIP3    H275398   5.349   0.329   1.834 -1.0048 -0.1545 -1.6241
17995TIP3   OH275399   5.874   5.477  15.819 -0.3160 -0.6426 -0.6429
17995TIP3    H175400   5.934   5.438  15.755 -1.0289 -1.2719 -0.9368
17995TIP3    H275401   5.791   5.432  15.805 -0.7172 -0.1671  0.1369
17996TIP3   OH275402   5.000   2.828  12.119 -0.4043  0.1222 -0.0819
17996TIP3    H175403   4.912   2.791  12.125 -0.3982  0.2362  0.9271
17996TIP3    H275404   5.012   2.847  12.026 -1.5679  0.4028 -0.1922
17997TIP3   OH275405   3.242   0.538   4.397  0.0153 -0.9050 -0.1225
17997TIP3    H175406   3.171   0.525   4.460  0.8881 -2.9575  0.5066
17997TIP3    H275407   3.218   0.618   4.350 -0.7433  0.6424  2.6924
17998TIP3   OH275408   2.446   0.735   3.480 -0.4507 -0.9219 -0.2339
17998TIP3    H175409   2.487   0.774   3.558  0.3102 -0.4055 -0.8813
17998TIP3    H275410   2.466   0.642   3.486 -1.1545 -1.0279  0.6441
17999TIP3   OH275411   4.164   2.613   5.388 -0.4620 -0.1682  0.3390
17999TIP3    H175412   4.189   2.598   5.480 -1.1839 -1.9105  0.2914
17999TIP3    H275413   4.226   2.679   5.357 -0.5848  0.9085  2.2338
18000TIP3   OH275414   0.127   6.482  11.054  0.1129 -0.4729  0.4996
18000TIP3    H175415   0.127   6.420  10.981  0.4104 -1.6248  1.4512
18000TIP3    H275416   0.144   6.567  11.013  0.5424 -1.1284 -0.7321
18001TIP3   OH275417   2.553   5.149  14.038 -0.4435  0.5077  0.2600
18001TIP3    H175418   2.626   5.178  14.093  0.2320  0.8368 -0.7884
18001TIP3    H275419   2.481   5.132  14.100  0.4721  0.3084  1.2927
18002TIP3   OH275420   6.747   5.130  11.325  0.0488 -0.2353  0.4720
18002TIP3    H175421   6.703   5.048  11.345  0.3341 -0.1053  1.7162
18002TIP3    H275422   6.818   5.106  11.265  0.1303 -0.8963  0.8306
18003TIP3   OH275423   0.052   4.717  15.979 -0.1852  0.4453 -0.0737
18003TIP3    H175424   0.093   4.634  15.955 -3.5860 -1.5202  0.2693
18003TIP3    H275425   0.033   4.759  15.894  2.4369  1.4797 -0.2346
18004TIP3   OH275426   5.656   5.304  11.621 -0.4084 -0.8099 -0.2568
18004TIP3    H175427   5.627   5.395  11.628  0.4295 -0.3569 -2.0309
18004TIP3    H275428   5.603   5.268  11.549  1.1004 -0.9016 -1.3724
18005TIP3   OH275429   6.760   5.404   2.671 -0.0656  0.0834  0.2498
18005TIP3    H175430   6.825   5.435   2.733 -0.1148 -0.8655  0.7958
18005TIP3    H275431   6.800   5.327   2.630 -0.4754  0.0413 -0.0886
18006TIP3   OH275432   4.400   6.232  15.828 -0.5599  0.2845  0.5386
18006TIP3    H175433   4.337   6.294  15.864 -0.5857  0.2416  0.5674
18006TIP3    H275434   4.407   6.163  15.894  0.2619  0.7833  0.9872
18007TIP3   OH275435   6.463   1.537   5.851  0.0951  0.1052 -0.0241
18007TIP3    H175436   6.475   1.506   5.940 -0.1060  1.5218  0.5218
18007TIP3    H275437   6.540   1.590   5.833  0.8852 -1.3612 -1.2739
18008TIP3   OH275438   1.213   5.484  12.731 -0.4404 -0.1774 -0.4833
18008TIP3    H175439   1.298   5.441  12.740 -1.0644 -1.3125  0.2521
18008TIP3    H275440   1.218   5.532  12.648  1.2963  0.7058  0.0866
18009TIP3   OH275441   3.508   5.056  14.526  0.1860  0.1980 -0.0173
18009TIP3    H175442   3.563   5.058  14.604  0.3534 -0.5861 -0.1116
18009TIP3    H275443   3.422   5.030  14.557  0.5359 -1.3349 -0.2375
18010TIP3   OH275444   3.531   6.586   1.889  0.2549  0.1444  0.2176
18010TIP3    H175445   3.569   6.595   1.976  0.0917  0.3936  0.2628
18010TIP3    H275446   3.592   6.529   1.842 -0.5001 -1.3441  0.9875
18011TIP3   OH275447   1.169   6.788   0.374  0.4159  0.1788  0.1476
18011TIP3    H175448   1.098   6.822   0.429  1.1105  1.8382  0.0802
18011TIP3    H275449   1.203   6.712   0.422  1.0407  1.6195  2.1122
18012TIP3   OH275450   2.116   5.132   4.391  0.1823  0.5659  0.1613
18012TIP3    H175451   2.191   5.163   4.339 -0.0575  1.0089  0.0756
18012TIP3    H275452   2.148   5.052   4.433  0.3335  0.1030 -0.7993
18013TIP3   OH275453   1.925   1.115  12.671 -0.1666 -0.1048 -0.2512
18013TIP3    H175454   1.926   1.103  12.766 -0.6003 -1.8563 -0.4310
18013TIP3    H275455   1.959   1.033  12.636 -1.4824 -0.1112 -1.6393
18014TIP3   OH275456   0.094   2.947  16.724 -0.1997 -0.0806  0.2916
18014TIP3    H175457   0.132   2.964  16.810 -1.3913  0.7064  0.7029
18014TIP3    H275458   0.082   3.034  16.686 -1.5255 -0.2802  0.1868
18015TIP3   OH275459   2.967   5.079   5.491 -0.5176  0.0004  0.2183
18015TIP3    H175460   3.007   5.120   5.567 -0.4583  1.9201 -0.8064
18015TIP3    H275461   2.970   4.985   5.510  1.3910  0.2958  1.6436
18016TIP3   OH275462   6.106   5.932   3.659 -0.1672 -0.0004  0.3294
18016TIP3    H175463   6.146   5.854   3.698  0.3416 -1.9646 -3.6138
18016TIP3    H275464   6.170   6.001   3.672  0.7409 -1.0047  1.3783
18017TIP3   OH275465   5.273   4.316   4.039  0.7932 -0.1197  0.2488
18017TIP3    H175466   5.244   4.229   4.067 -0.3944 -0.3025 -1.3728
18017TIP3    H275467   5.368   4.312   4.043  0.7245 -0.9917  1.5992
18018TIP3   OH275468   3.133   3.858   4.324 -0.4148  0.6937 -0.4024
18018TIP3    H175469   3.145   3.788   4.388  0.2621  1.0566 -0.1211
18018TIP3    H275470   3.130   3.938   4.377 -0.7769  0.9137 -0.7510
18019TIP3   OH275471   5.093   0.562   0.931  0.0822 -0.1681  0.2020
18019TIP3    H175472   5.039   0.629   0.972 -0.3208 -1.4128  1.8031
18019TIP3    H275473   5.139   0.520   1.004  0.3190 -1.6346 -0.7426
18020TIP3   OH275474   4.666   0.514   1.627  0.2065 -0.0814 -0.4008
18020TIP3    H175475   4.571   0.507   1.615  0.1628 -2.8342  0.6817
18020TIP3    H275476   4.703   0.463   1.554  0.8705  0.9161 -0.7785
18021TIP3   OH275477   1.883   0.314  15.008 -0.0932 -0.4852 -0.1705
18021TIP3    H175478   1.933   0.298  14.927 -0.4171 -2.4965 -0.0362
18021TIP3    H275479   1.944   0.360  15.065  0.5229 -0.0470 -1.1584
18022TIP3   OH275480   4.652   2.228  16.177  0.1127  0.7415 -0.0852
18022TIP3    H175481   4.656   2.180  16.094 -0.8087  0.8503 -0.2036
18022TIP3    H275482   4.738   2.270  16.184  0.6869 -0.3483 -0.3217
18023TIP3   OH275483   6.508   0.275  14.823 -0.1297  0.1174 -0.3163
18023TIP3    H175484   6.417   0.270  14.853 -0.3225  0.2448 -0.8730
18023TIP3    H275485   6.522   0.193  14.775  0.1662 -0.0678  0.0799
18024TIP3   OH275486   1.945   6.390   1.111  0.0923  0.2238  0.1322
18024TIP3    H175487   2.036   6.379   1.083 -0.6983  0.4546 -2.8764
18024TIP3    H275488   1.923   6.480   1.087 -1.3873 -0.3356 -0.7814
18025TIP3   OH275489   3.262   0.949  16.822  0.0689 -0.0200 -0.1691
18025TIP3    H175490   3.339   0.935  16.767  0.8295  0.1754  0.8067
18025TIP3    H275491   3.232   1.037  16.800  1.8104  1.0257  1.3887
18026TIP3   OH275492   5.078   5.692   4.905  0.1304 -0.1212 -0.1005
18026TIP3    H175493   5.004   5.652   4.951 -0.8564  1.7783  0.0747
18026TIP3    H275494   5.060   5.676   4.812  0.8722 -1.8688  0.0214
18027TIP3   OH275495   4.636   4.280  16.779 -0.0528  0.5715 -0.1968
18027TIP3    H175496   4.697   4.345  16.746 -0.2031  1.2712  0.8359
18027TIP3    H275497   4.565   4.331  16.820 -0.5715 -0.2262 -0.0618
18028TIP3   OH275498   1.075   6.784  11.818  0.8926 -0.4485 -0.2712
18028TIP3    H175499   1.117   6.826  11.893  3.4360 -0.1821 -1.7167
18028TIP3    H275500   0.995   6.835  11.802  1.4194  0.8111  0.9472
18029TIP3   OH275501   2.289   3.934   4.848  0.1852  0.2822 -0.0157
18029TIP3    H175502   2.195   3.919   4.842  0.3479 -1.2837  0.8753
18029TIP3    H275503   2.305   3.948   4.941  0.6724  1.8815 -0.3138
18030TIP3   OH275504   4.594   5.860  15.813 -0.0685  0.2688 -0.2721
18030TIP3    H175505   4.676   5.816  15.834 -0.7229 -0.4770  0.8529
18030TIP3    H275506   4.602   5.884  15.721  0.9326 -0.8538 -0.4940
18031TIP3   OH275507   4.134   0.186  15.198 -0.0229  0.1278 -0.2633
18031TIP3    H175508   4.057   0.137  15.224  0.0705  0.3105  0.3949
18031TIP3    H275509   4.191   0.122  15.154 -1.7224  0.5642 -3.3907
18032TIP3   OH275510   1.564   3.981   5.111 -0.4942  0.4650  0.0945
18032TIP3    H175511   1.562   4.038   5.035 -2.0303  0.5859  0.1996
18032TIP3    H275512   1.526   4.034   5.182  1.8088  0.7263  1.2491
18033TIP3   OH275513   3.560   3.567   5.444 -0.5884  0.3456  0.0113
18033TIP3    H175514   3.502   3.541   5.516  0.1310  1.4693  1.0389
18033TIP3    H275515   3.587   3.484   5.404 -1.4837 -0.2726  0.6433
18034TIP3   OH275516   2.485   3.878   1.754 -0.1722 -0.5643 -0.4577
18034TIP3    H175517   2.394   3.850   1.759  0.0762 -1.5395 -1.1796
18034TIP3    H275518   2.536   3.802   1.782  0.3943  0.3725  1.1856
18035TIP3   OH275519   4.149   6.545   5.410 -0.3376 -0.2657 -0.4966
18035TIP3    H175520   4.074   6.500   5.372 -0.5131  0.4488 -1.0213
18035TIP3    H275521   4.153   6.514   5.500 -0.5708 -1.1698 -0.7940
18036TIP3   OH275522   5.926   4.789  13.841  0.1002  0.4498  0.4778
18036TIP3    H175523   5.911   4.750  13.927  0.7224 -2.3169 -0.5542
18036TIP3    H275524   5.946   4.881  13.859 -1.0609  0.2742  3.1462
18037TIP3   OH275525   3.696   5.971   2.239 -0.2488 -0.1081  0.0131
18037TIP3    H175526   3.716   6.037   2.173 -0.7833 -1.3081 -1.3981
18037TIP3    H275527   3.619   6.004   2.285  0.5116  1.0406  0.5033
18038TIP3   OH275528   4.005   0.030  14.844 -0.1182  0.2421 -0.0326
18038TIP3    H175529   3.932   0.084  14.816  0.3518  0.5157 -0.7695
18038TIP3    H275530   3.968  -0.029  14.909 -0.6481  1.4194  0.7673
18039TIP3   OH275531   4.777   6.510  11.340 -0.0625  0.4271  0.3089
18039TIP3    H175532   4.702   6.559  11.307  2.4702  2.8315 -2.5226
18039TIP3    H275533   4.816   6.470  11.262  4.0496  3.1055  0.6987
18040TIP3   OH275534   2.582   6.089   4.077 -0.6959 -0.1192 -0.2536
18040TIP3    H175535   2.660   6.143   4.089  0.5511 -1.4751 -1.7372
18040TIP3    H275536   2.551   6.072   4.166  1.3803 -0.4385  0.4656
18041TIP3   OH275537   6.755   1.391   0.231 -0.7905 -0.2558  0.2661
18041TIP3    H175538   6.794   1.308   0.204 -0.9936 -0.0433 -0.6889
18041TIP3    H275539   6.678   1.400   0.176 -0.7534  0.5793  0.3484
18042TIP3   OH275540   3.006   1.932   2.473  0.5809  0.0908  0.2988
18042TIP3    H175541   3.081   1.889   2.515 -0.1820 -0.7991  0.8006
18042TIP3    H275542   2.975   1.868   2.409  1.2559  1.1252 -1.1142
18043TIP3   OH275543   3.667   4.214  11.149  0.2489  0.0591 -0.2118
18043TIP3    H175544   3.660   4.259  11.064 -0.5193 -2.1150 -1.3754
18043TIP3    H275545   3.700   4.127  11.127  0.6627 -0.3294  1.8246
18044TIP3   OH275546   0.450   5.572  17.170  0.3350 -0.7004 -0.2781
18044TIP3    H175547   0.398   5.646  17.139  0.5539 -0.1153  0.7112
18044TIP3    H275548   0.388   5.517  17.218  0.4246 -0.5026  0.0681
18045TIP3   OH275549   2.235   1.067  12.686  0.1812 -0.1955  0.0668
18045TIP3    H175550   2.227   1.061  12.781 -2.7984  1.6797  0.0816
18045TIP3    H275551   2.168   1.007  12.652  0.6362 -0.2200 -0.8376
18046TIP3   OH275552   1.660   0.253  12.260  0.1449  0.5247  0.0233
18046TIP3    H175553   1.570   0.235  12.289  0.4939  1.5727  1.8907
18046TIP3    H275554   1.653   0.336  12.213  0.1899  0.8148  0.5237
18047TIP3   OH275555   4.938   5.890  11.782 -0.0726  0.4203  0.1942
18047TIP3    H175556   5.033   5.894  11.783  0.0765 -1.7368 -0.3789
18047TIP3    H275557   4.914   5.895  11.689 -0.5180  0.8838  0.3290
18048TIP3   OH275558   2.273   2.891   2.735  1.0481 -0.1482  0.2764
18048TIP3    H175559   2.353   2.866   2.782  0.5636  0.9813  1.7779
18048TIP3    H275560   2.293   2.874   2.643  2.0167 -2.5153  0.8421
18049TIP3   OH275561   1.528   3.944  11.161  0.5864 -0.6918 -1.0950
18049TIP3    H175562   1.485   3.904  11.085  2.4963 -0.6919 -2.2559
18049TIP3    H275563   1.580   4.016  11.123  3.4807 -2.1646 -0.2184
18050TIP3   OH275564   6.202   1.822   1.766 -0.5719  0.3996 -0.2503
18050TIP3    H175565   6.276   1.872   1.802 -2.1166  2.8261 -0.1703
18050TIP3    H275566   6.242   1.760   1.705  1.6730 -0.0028  1.5085
18051TIP3   OH275567   1.732   6.628  14.466 -0.3934  0.2619  0.5929
18051TIP3    H175568   1.697   6.655  14.381 -1.2722 -0.8623  0.5616
18051TIP3    H275569   1.785   6.550  14.446 -1.2912 -0.5145  1.1597
18052TIP3   OH275570   3.956   1.959  17.106  0.4108 -0.3415  0.5249
18052TIP3    H175571   3.965   1.866  17.127  0.8509 -1.3237 -3.3143
18052TIP3    H275572   4.038   1.998  17.134  0.8073 -1.4130  0.9097
18053TIP3   OH275573   5.804   2.268  13.586  0.2325  0.1541 -0.1112
18053TIP3    H175574   5.848   2.339  13.633  0.6697 -0.3970  0.3126
18053TIP3    H275575   5.810   2.294  13.494  2.3371 -0.3954 -0.1628
18054TIP3   OH275576   0.180   5.752   6.033 -0.0666  0.1145 -0.0408
18054TIP3    H175577   0.210   5.837   6.067  0.8481 -0.2347  0.0561
18054TIP3    H275578   0.253   5.721   5.980  0.8033 -1.8996  2.1728
18055TIP3   OH275579   6.748   2.714  11.176  0.2931  0.2798 -0.1919
18055TIP3    H175580   6.826   2.767  11.161  1.1837 -0.9278 -0.0194
18055TIP3    H275581   6.714   2.696  11.088  0.5602  0.3249 -0.3054
18056TIP3   OH275582   5.481   6.351   5.415 -0.1323  0.0043  0.6512
18056TIP3    H175583   5.550   6.406   5.378 -0.5323 -0.7900 -1.3573
18056TIP3    H275584   5.492   6.360   5.510  1.5032  1.3977  0.3697
18057TIP3   OH275585   6.086   0.888   0.541  0.0014  0.3518 -0.4126
18057TIP3    H175586   6.017   0.948   0.569 -0.2343 -0.1504  0.0843
18057TIP3    H275587   6.073   0.879   0.447 -0.9607 -0.1848 -0.2383
18058TIP3   OH275588   0.146   1.521  14.266  0.0625 -0.4272 -0.0470
18058TIP3    H175589   0.146   1.563  14.180  0.1340  1.9397  1.0250
18058TIP3    H275590   0.142   1.427  14.247 -3.6801  0.0482 -2.5790
18059TIP3   OH275591   2.489   2.583  13.317  0.2348  0.3565 -0.1927
18059TIP3    H175592   2.534   2.499  13.319  0.1541  0.3306  1.5138
18059TIP3    H275593   2.463   2.599  13.407  1.2650  2.7668 -0.2515
18060TIP3   OH275594   0.730   3.477  16.986  0.1749  0.1669  0.1652
18060TIP3    H175595   0.775   3.561  16.998  0.0767  0.2712 -0.2178
18060TIP3    H275596   0.697   3.456  17.073  1.7439 -0.3519  0.6836
18061TIP3   OH275597   5.674   5.356  13.678  0.0582  0.3266 -0.7928
18061TIP3    H175598   5.670   5.413  13.754  1.4328  0.7559 -1.0149
18061TIP3    H275599   5.689   5.414  13.603 -0.2062 -0.1717 -1.2463
18062TIP3   OH275600   2.400   4.194  12.892 -0.2894  0.6449 -0.7952
18062TIP3    H175601   2.484   4.229  12.921 -1.2495  2.0444  0.4569
18062TIP3    H275602   2.353   4.173  12.973 -2.0534  2.2015 -1.3361
18063TIP3   OH275603   2.361   2.370  13.052 -0.5669 -0.4019  0.7028
18063TIP3    H175604   2.426   2.438  13.033  0.3798 -0.8589  2.1170
18063TIP3    H275605   2.277   2.413  13.042  0.0113  0.8795  1.2064
18064TIP3   OH275606   4.016   6.289   0.729  0.4728  0.0363  0.0059
18064TIP3    H175607   3.989   6.210   0.681  0.2903  0.8091 -1.2150
18064TIP3    H275608   3.977   6.279   0.816  1.5941 -1.8588  0.3458
18065TIP3   OH275609   4.982   1.019  15.239  0.6020 -0.2316  0.7904
18065TIP3    H175610   5.071   0.995  15.214  0.0226 -0.1370 -1.5936
18065TIP3    H275611   4.927   0.951  15.200 -0.4773  0.6112  0.7879
18066TIP3   OH275612   2.925   1.590  11.786 -0.3520  0.5653 -0.3480
18066TIP3    H175613   2.930   1.684  11.803 -3.0499  0.7172 -0.0823
18066TIP3    H275614   2.949   1.581  11.694  4.6383  0.8450  0.6164
18067TIP3   OH275615   2.479   1.872  11.403  0.0155 -0.6550  0.7865
18067TIP3    H175616   2.529   1.893  11.325 -0.7065  0.7198  0.6571
18067TIP3    H275617   2.491   1.778  11.415  4.2128 -0.2127  1.8693
18068TIP3   OH275618   4.759   5.652  12.208 -0.4366  0.1933 -0.1828
18068TIP3    H175619   4.766   5.647  12.112  0.5864  0.8229 -0.1538
18068TIP3    H275620   4.679   5.702  12.224 -0.4437  0.3614 -0.7220
18069TIP3   OH275621   3.494   6.072   1.523  0.4488  0.6687 -0.1724
18069TIP3    H175622   3.583   6.101   1.499  0.7659  0.3125  0.5655
18069TIP3    H275623   3.445   6.154   1.534  1.0808  0.9129  0.9123
18070TIP3   OH275624   0.631   2.579   5.802  0.2234  0.7555  0.2702
18070TIP3    H175625   0.580   2.516   5.751 -1.5704  2.2455  0.1068
18070TIP3    H275626   0.623   2.548   5.892  0.4073  0.0681  0.0528
18071TIP3   OH275627   1.813   2.243  12.849 -0.0294 -0.3855 -0.4311
18071TIP3    H175628   1.789   2.213  12.937  0.4341 -1.2458 -0.5872
18071TIP3    H275629   1.819   2.339  12.857 -3.0707 -0.0882 -0.2829
18072TIP3   OH275630   5.773   3.392   5.963 -0.6762 -0.3782  0.0860
18072TIP3    H175631   5.816   3.383   5.879 -2.7743 -0.4267 -1.0536
18072TIP3    H275632   5.746   3.484   5.967  0.6964 -0.0004  1.4018
18073TIP3   OH275633   4.370   4.961   3.618 -0.3191 -0.0706 -0.5348
18073TIP3    H175634   4.316   4.983   3.693  1.0566  0.4116  0.3547
18073TIP3    H275635   4.363   5.036   3.560 -0.1004  0.2649 -0.1280
18074TIP3   OH275636   2.053   0.264   1.648 -0.2303  0.1257 -0.4724
18074TIP3    H175637   2.049   0.270   1.743 -1.0948 -0.4139 -0.4587
18074TIP3    H275638   2.145   0.274   1.626 -0.2342  2.2700  0.2776
18075TIP3   OH275639   2.322   2.032   3.141 -0.3883  0.4842 -0.0740
18075TIP3    H175640   2.282   1.963   3.088 -0.5369  0.6151 -0.1336
18075TIP3    H275641   2.390   1.987   3.192  0.2056  0.4728 -0.8580
18076TIP3   OH275642   0.207   3.816  14.920 -0.6528  0.0214  0.2009
18076TIP3    H175643   0.174   3.817  14.830  0.5932 -0.8718 -0.2954
18076TIP3    H275644   0.279   3.753  14.918  1.8580  2.6452  0.9337
18077TIP3   OH275645   4.712   1.866  14.407 -0.2019  0.1344  0.0234
18077TIP3    H175646   4.752   1.953  14.410 -0.3882  0.2510 -0.6852
18077TIP3    H275647   4.734   1.833  14.320 -1.5970  0.1847 -0.3656
18078TIP3   OH275648   1.057   2.681  15.579 -0.5259  1.1234 -0.2545
18078TIP3    H175649   1.107   2.628  15.641 -2.3293 -1.9171 -1.1523
18078TIP3    H275650   1.123   2.726  15.527  1.1195  0.4944  1.1999
18079TIP3   OH275651   1.234   5.279  11.357  0.5731 -0.0510 -0.3634
18079TIP3    H175652   1.233   5.201  11.303  1.7494  1.3175 -2.4866
18079TIP3    H275653   1.285   5.255  11.435  2.6727 -0.8473 -1.9086
18080TIP3   OH275654   4.369   4.473  16.308 -0.0185 -0.4022  0.3771
18080TIP3    H175655   4.407   4.512  16.229  0.7201  0.4501  1.1375
18080TIP3    H275656   4.432   4.406  16.334 -0.3101 -0.7497  0.1992
18081TIP3   OH275657   5.306   5.410  11.177  0.0753 -0.3884 -0.0531
18081TIP3    H175658   5.329   5.501  11.195  3.0855  0.1404 -4.7752
18081TIP3    H275659   5.216   5.413  11.147  0.2749  1.1693 -0.5915
18082TIP3   OH275660   0.281   0.255  12.543 -0.7077  0.1694 -0.2644
18082TIP3    H175661   0.350   0.232  12.481 -1.5719 -0.6356 -0.9491
18082TIP3    H275662   0.209   0.196  12.522 -1.6183  0.9994  0.4220
18083TIP3   OH275663   3.748   0.097   4.085 -1.0031  0.3771 -0.2238
18083TIP3    H175664   3.762   0.173   4.028 -0.2012  0.2883 -0.1579
18083TIP3    H275665   3.678   0.124   4.143 -0.2206  1.3751  0.3051
18084TIP3   OH275666   6.039   5.101  12.505 -0.5098  0.0910 -0.4257
18084TIP3    H175667   6.080   5.133  12.585  0.1057 -0.8548 -0.3462
18084TIP3    H275668   6.105   5.112  12.437 -0.5075 -0.4449 -0.5133
18085TIP3   OH275669   5.338   3.079  14.663  0.3042  0.4617 -0.6290
18085TIP3    H175670   5.262   3.136  14.675 -1.2583 -0.8421 -3.4176
18085TIP3    H275671   5.322   3.006  14.723 -0.3888  0.4695 -0.7928
18086TIP3   OH275672   5.668   6.023   4.696  0.2415  0.5032 -0.0347
18086TIP3    H175673   5.624   6.024   4.781 -0.2287  0.4523 -0.2743
18086TIP3    H275674   5.598   6.039   4.633  0.7819  1.8118 -0.3338
18087TIP3   OH275675   1.062   5.773  14.093 -0.2743 -0.1175 -0.3834
18087TIP3    H175676   1.031   5.683  14.100 -0.8928  0.1135 -0.0588
18087TIP3    H275677   1.129   5.770  14.025  1.4917 -1.2893  1.3177
18088TIP3   OH275678   0.226   2.216   5.270  0.0915 -0.3803 -0.2414
18088TIP3    H175679   0.208   2.130   5.308 -0.2280  0.3393  1.3550
18088TIP3    H275680   0.140   2.259   5.268  0.3155  0.0495 -0.6352
18089TIP3   OH275681   4.279   1.230   3.854 -0.6244  1.0623 -0.0202
18089TIP3    H175682   4.199   1.202   3.898  0.9351 -3.4062  0.5186
18089TIP3    H275683   4.330   1.273   3.923 -1.0033  0.3514  0.7188
18090TIP3   OH275684   6.300   1.480   2.973 -0.7891 -0.2052 -0.2077
18090TIP3    H175685   6.336   1.438   2.895  1.2332  0.7962  0.1138
18090TIP3    H275686   6.292   1.572   2.949 -1.9827 -0.1960  0.1654
18091TIP3   OH275687   4.204   6.538  13.372  0.3279  0.0298 -0.3872
18091TIP3    H175688   4.131   6.513  13.428  0.9437 -0.7830  0.0702
18091TIP3    H275689   4.229   6.625  13.403 -1.4876  1.0586 -1.6452
18092TIP3   OH275690   3.392   5.473   4.365  0.1449 -0.1014 -0.5311
18092TIP3    H175691   3.455   5.465   4.437  0.0034 -1.8329 -0.5596
18092TIP3    H275692   3.310   5.441   4.402 -0.0737 -0.4376 -1.2887
18093TIP3   OH275693   5.556   5.887   4.351  0.5062  0.4075 -0.5476
18093TIP3    H175694   5.559   5.976   4.385 -1.5238  0.2144  0.3186
18093TIP3    H275695   5.484   5.887   4.288 -1.6259 -1.1902  1.6591
18094TIP3   OH275696   4.213   3.240   4.061 -0.0752 -0.2229 -0.0009
18094TIP3    H175697   4.301   3.274   4.047  0.0347 -0.7820 -0.7252
18094TIP3    H275698   4.190   3.197   3.979 -1.0611 -0.0101  0.1505
18095TIP3   OH275699   4.807   4.835  10.870 -0.0514  0.2899 -0.2135
18095TIP3    H175700   4.736   4.790  10.824  0.8800 -0.2449 -1.1853
18095TIP3    H275701   4.787   4.928  10.861  0.5288  0.2598 -2.5250
18096TIP3   OH275702   2.022   1.813  15.056 -0.1728  0.0157 -0.1630
18096TIP3    H175703   2.108   1.850  15.077 -0.2177 -0.8049  1.6954
18096TIP3    H275704   1.961   1.864  15.109 -0.8558  0.5916 -1.4690
18097TIP3   OH275705   5.639   4.186   1.083  0.1973  0.5357  0.6633
18097TIP3    H175706   5.613   4.200   0.992  0.3560  2.5022  0.8752
18097TIP3    H275707   5.567   4.224   1.134  0.5644  0.3349  1.3415
18098TIP3   OH275708   1.974   6.284   3.382 -0.1009  0.5781  0.4039
18098TIP3    H175709   2.024   6.358   3.348 -0.1683  0.1017 -0.8169
18098TIP3    H275710   1.886   6.297   3.347 -0.0115 -0.2870 -0.1848
18099TIP3   OH275711   4.974   0.217  12.790  0.5693 -0.5253  0.4582
18099TIP3    H175712   4.924   0.162  12.850  0.6609 -0.1481  0.8906
18099TIP3    H275713   5.054   0.239  12.839  0.4086  0.2161  0.4073
18100TIP3   OH275714   5.715   1.285   1.069  0.2400  0.0471  0.2764
18100TIP3    H175715   5.643   1.306   1.010 -0.2053  0.5589  0.9811
18100TIP3    H275716   5.759   1.369   1.084 -0.0585  0.0542  1.1830
18101TIP3   OH275717   3.682   5.220   3.993  0.2935 -0.0722  0.0776
18101TIP3    H175718   3.648   5.296   4.041 -0.8352  1.7736 -3.3066
18101TIP3    H275719   3.776   5.234   3.988  0.2025  0.6279  0.2612
18102TIP3   OH275720   6.267   3.753   5.181 -0.4612 -0.4715 -0.0883
18102TIP3    H175721   6.361   3.769   5.193  0.1635 -2.6584 -1.4361
18102TIP3    H275722   6.225   3.835   5.209  1.6872 -0.0406  2.2422
18103TIP3   OH275723   2.423   3.248   0.129 -0.0705 -0.2557  0.4441
18103TIP3    H175724   2.509   3.275   0.161  0.0949 -0.4373  0.1592
18103TIP3    H275725   2.427   3.153   0.125 -0.7307 -0.3451  1.6592
18104TIP3   OH275726   3.641   0.464   4.303  0.0548  0.1798 -0.0300
18104TIP3    H175727   3.703   0.529   4.337 -0.7150 -0.0636  1.9478
18104TIP3    H275728   3.616   0.498   4.217  0.6037  1.8709  0.4430
18105TIP3   OH275729   1.440   3.335  17.236  0.3361  0.0136 -0.2089
18105TIP3    H175730   1.474   3.360  17.322  0.0295  0.4067 -0.1979
18105TIP3    H275731   1.354   3.296  17.256  0.3982 -0.1773 -0.3113
18106TIP3   OH275732   2.844   6.215   6.400 -0.1273 -0.6116  0.1690
18106TIP3    H175733   2.933   6.193   6.370 -0.4214 -1.7839  0.0985
18106TIP3    H275734   2.852   6.303   6.436  0.9131 -0.4108 -0.4940
18107TIP3   OH275735   2.414   4.897  12.722  0.3227 -0.0375 -0.2484
18107TIP3    H175736   2.375   4.818  12.685 -0.2940  0.3746 -0.4845
18107TIP3    H275737   2.499   4.868  12.757 -0.2120 -0.9501  0.3119
18108TIP3   OH275738   5.044   0.768  10.974  0.8418 -0.3505 -0.1317
18108TIP3    H175739   4.991   0.821  10.913 -0.6342 -1.8222 -0.2081
18108TIP3    H275740   5.065   0.688  10.925  0.1817 -1.2807  1.0370
18109TIP3   OH275741   3.012   3.186   1.073 -0.1377 -0.2993 -0.3438
18109TIP3    H175742   2.992   3.142   0.991 -1.2080 -0.6228  0.0783
18109TIP3    H275743   3.077   3.130   1.116 -0.7542 -0.9675 -0.2621
18110TIP3   OH275744   4.454   4.788   5.980 -0.6786  0.4882  0.6215
18110TIP3    H175745   4.383   4.734   5.945  0.5043 -1.5071  1.1059
18110TIP3    H275746   4.489   4.737   6.054  1.0797  1.5011  0.5564
18111TIP3   OH275747   5.422   3.316  12.562 -0.6385  0.1046 -0.2767
18111TIP3    H175748   5.497   3.277  12.607 -1.4868 -1.1059  0.1439
18111TIP3    H275749   5.358   3.245  12.555 -1.6639  1.0405 -0.8260
18112TIP3   OH275750   0.727   0.348   3.519 -0.4846 -0.0301  0.2337
18112TIP3    H175751   0.767   0.433   3.539 -0.8833  0.3857 -0.6914
18112TIP3    H275752   0.642   0.370   3.483 -1.0676 -0.8818  1.0576
18113TIP3   OH275753   1.288   3.824   4.341  0.4666 -0.6144 -0.0959
18113TIP3    H175754   1.239   3.744   4.362 -1.5738  0.4295 -0.6069
18113TIP3    H275755   1.322   3.809   4.253 -1.5180 -0.2453 -0.9674
18114TIP3   OH275756   0.857   0.809  10.288 -0.5952 -0.7485  0.2537
18114TIP3    H175757   0.766   0.802  10.258 -0.7524  1.9521 -0.1584
18114TIP3    H275758   0.870   0.903  10.303  1.5897 -1.2479  2.0996
18115TIP3   OH275759   4.529   0.320   4.616  0.8255  0.8027  0.2191
18115TIP3    H175760   4.547   0.227   4.609  1.7105  1.0894 -2.7136
18115TIP3    H275761   4.450   0.334   4.563  0.3683  1.6895  1.0713
18116TIP3   OH275762   1.549   1.048  16.752 -0.0393  0.3668  0.2758
18116TIP3    H175763   1.618   1.113  16.744 -1.6148  2.1548  0.5623
18116TIP3    H275764   1.521   1.031  16.662  0.8226 -0.4625  0.1486
18117TIP3   OH275765   6.474   1.156  15.076 -0.0574  0.0814 -0.3777
18117TIP3    H175766   6.390   1.128  15.039  1.0607 -1.2743 -2.0395
18117TIP3    H275767   6.504   1.080  15.127 -0.3607  1.0056  1.2733
18118TIP3   OH275768   5.669   4.947  16.230  0.4549  0.5569 -0.1036
18118TIP3    H175769   5.595   4.972  16.285  1.5163  3.1233  0.2896
18118TIP3    H275770   5.712   4.876  16.279 -0.0597  1.0765  1.1454
18119TIP3   OH275771   5.989   1.540   3.874 -0.0418 -0.3871  0.2601
18119TIP3    H175772   6.049   1.607   3.905 -2.4595  1.1800  1.9156
18119TIP3    H275773   6.015   1.461   3.922  1.1430  0.0485  0.3630
18120TIP3   OH275774   3.276   3.365  12.237 -0.4732  0.3454  0.2164
18120TIP3    H175775   3.279   3.293  12.175  0.6195  1.6466 -1.3187
18120TIP3    H275776   3.197   3.414  12.212 -2.2146 -1.1469  2.3487
18121TIP3   OH275777   2.042   4.790  14.929  0.2371  0.0426  0.6585
18121TIP3    H175778   1.981   4.752  14.992 -0.2403 -1.0506 -0.4357
18121TIP3    H275779   2.129   4.769  14.963 -0.0180 -1.6388  0.3145
18122TIP3   OH275780   2.462   5.136   3.130 -0.0525 -0.5639  0.0729
18122TIP3    H175781   2.484   5.229   3.136  0.6424 -0.6897 -0.4373
18122TIP3    H275782   2.393   5.132   3.063 -0.6880 -0.3255  0.7032
18123TIP3   OH275783   3.966   4.943   3.963 -0.6349 -0.0332  0.5191
18123TIP3    H175784   3.960   4.848   3.953 -1.1454 -0.0917  1.2914
18123TIP3    H275785   3.995   4.956   4.053  0.0196  0.5372  0.2347
18124TIP3   OH275786   6.395   5.082  11.186 -0.6510  0.6684  1.3810
18124TIP3    H175787   6.401   5.018  11.257  0.9086 -0.6163  0.1597
18124TIP3    H275788   6.324   5.049  11.130  1.6943 -1.5789 -0.5807
18125TIP3   OH275789   0.665   3.288   2.429 -0.3894 -0.1855  0.4844
18125TIP3    H175790   0.697   3.365   2.382 -0.1446 -1.2998 -1.2670
18125TIP3    H275791   0.722   3.281   2.505 -0.6192  1.5219  0.8620
18126TIP3   OH275792   6.605   2.331   4.946 -0.7307 -0.1778 -0.5097
18126TIP3    H175793   6.668   2.316   4.875 -0.8534 -1.8180 -0.2992
18126TIP3    H275794   6.651   2.303   5.025 -0.8835  0.9041 -0.0151
18127TIP3   OH275795   2.304   0.906   2.450  0.3165  0.7945  0.7175
18127TIP3    H175796   2.342   0.956   2.378  2.2159  0.4283  1.4186
18127TIP3    H275797   2.335   0.816   2.436 -0.0836  0.5291  1.4643
18128TIP3   OH275798   1.287   3.475  12.089  0.0131 -0.2200 -0.1033
18128TIP3    H175799   1.343   3.541  12.049 -0.1935  0.4588  0.6966
18128TIP3    H275800   1.286   3.403  12.026  1.8685 -0.2968 -0.0793
18129TIP3   OH275801   2.658   5.511   5.391  0.1353  0.6348 -0.2606
18129TIP3    H175802   2.744   5.470   5.394 -0.5598 -0.8608  0.1621
18129TIP3    H275803   2.676   5.605   5.396  1.6862  0.3138  1.2100
18130TIP3   OH275804   3.245   5.098  14.354  0.1230 -0.6155  0.1749
18130TIP3    H175805   3.277   5.054  14.276 -0.6074 -1.5792  0.3983
18130TIP3    H275806   3.316   5.156  14.381  1.5981 -2.4938  0.5183
18131TIP3   OH275807   1.360   5.295   4.222 -0.0677  0.4533 -0.1824
18131TIP3    H175808   1.276   5.333   4.244  0.4030  0.1943  2.2637
18131TIP3    H275809   1.409   5.294   4.304  1.4269 -1.6480 -0.9995
18132TIP3   OH275810   4.454   5.268   6.146 -0.0856 -0.3408 -0.8254
18132TIP3    H175811   4.550   5.266   6.136  0.5229  0.0299  3.3534
18132TIP3    H275812   4.432   5.361   6.143  0.2306 -0.1479  1.3306
18133TIP3   OH275813   3.679   0.306   2.637 -0.0825  0.0721 -0.3248
18133TIP3    H175814   3.707   0.392   2.604 -1.0915  0.4098 -0.3707
18133TIP3    H275815   3.736   0.288   2.711  1.3228 -0.0498 -1.4017
18134TIP3   OH275816   1.411   6.202   0.024  0.1578 -0.3632 -0.0904
18134TIP3    H175817   1.340   6.190  -0.038  0.8203  0.1703 -0.9856
18134TIP3    H275818   1.472   6.261  -0.021  1.1912 -0.8536  0.6235
18135TIP3   OH275819   4.007   6.149   1.326  0.4419 -0.4340  0.2814
18135TIP3    H175820   4.033   6.057   1.312 -1.3744 -0.6734 -2.1217
18135TIP3    H275821   4.000   6.185   1.238  2.4216  2.4941  1.1826
18136TIP3   OH275822   5.652   1.153  17.000  0.0689 -0.7192 -0.7564
18136TIP3    H175823   5.680   1.104  16.922 -2.0554 -1.6964 -1.0019
18136TIP3    H275824   5.684   1.101  17.073 -1.1754 -1.9400 -1.0233
18137TIP3   OH275825   6.713   1.607  17.213  0.7356  0.4409 -0.1492
18137TIP3    H175826   6.707   1.512  17.224  1.4514  0.1430 -1.9148
18137TIP3    H275827   6.624   1.635  17.193  0.2955  0.3528  1.5103
18138TIP3   OH275828   6.148   0.733   3.970 -0.1667 -0.0047 -0.2895
18138TIP3    H175829   6.176   0.708   3.882 -1.6352  2.6293 -1.6494
18138TIP3    H275830   6.073   0.792   3.955 -1.0564 -0.1795  2.7771
18139TIP3   OH275831   6.615   1.931  13.385 -0.1063 -0.0651  0.4650
18139TIP3    H175832   6.639   1.868  13.316  0.3577 -0.9963  1.4524
18139TIP3    H275833   6.662   1.900  13.462 -2.2299 -0.2453  1.7489
18140TIP3   OH275834   4.154   5.934   0.910  0.7567  0.1402  0.0209
18140TIP3    H175835   4.247   5.911   0.910  0.7169 -0.0974 -1.2161
18140TIP3    H275836   4.116   5.881   0.980  1.7233  1.0308  1.2468
18141TIP3   OH275837   2.000   0.619   5.117  0.6530  0.3507 -0.0117
18141TIP3    H175838   1.908   0.594   5.123  0.5967  0.5130 -0.1974
18141TIP3    H275839   2.007   0.665   5.033  0.8405  0.5972  0.1395
18142TIP3   OH275840   0.884   1.138  16.814 -0.1794  0.0471 -0.1858
18142TIP3    H175841   0.814   1.129  16.880 -0.5477  0.1995 -0.5486
18142TIP3    H275842   0.865   1.070  16.750  1.4904 -1.6175  0.9944
18143TIP3   OH275843   4.491   3.542  14.446  0.0555 -0.2082 -0.2367
18143TIP3    H175844   4.432   3.487  14.395 -0.7074  0.1074  0.2790
18143TIP3    H275845   4.455   3.630  14.437  1.7796  0.4143 -1.8174
18144TIP3   OH275846   0.841   6.209   3.392  0.2099  0.5880  0.7340
18144TIP3    H175847   0.857   6.251   3.308 -0.6393 -1.5527 -0.5795
18144TIP3    H275848   0.893   6.128   3.390 -4.3637 -2.7711 -0.5726
18145TIP3   OH275849   1.349   2.174  10.644  0.4049  0.5732  0.4069
18145TIP3    H175850   1.341   2.230  10.567 -0.5812 -0.0957  0.0038
18145TIP3    H275851   1.267   2.186  10.691  0.1521 -0.5546  0.2875
18146TIP3   OH275852   1.463   2.057  13.948  0.2563  0.1391 -0.6709
18146TIP3    H175853   1.479   2.035  13.856  1.4305 -1.8385 -0.0415
18146TIP3    H275854   1.368   2.070  13.954  0.1938  0.5499 -2.1867
18147TIP3   OH275855   6.664   5.679  16.808 -0.1966  0.4450  0.1529
18147TIP3    H175856   6.697   5.669  16.718  0.2717 -1.1945  0.4749
18147TIP3    H275857   6.739   5.658  16.863 -0.4252  1.6484  0.9505
18148TIP3   OH275858   4.450   4.422  16.899 -0.5128  0.2822  0.4989
18148TIP3    H175859   4.382   4.381  16.952  1.1583 -1.5956  1.2915
18148TIP3    H275860   4.476   4.499  16.950 -0.3497 -0.3687  1.4307
18149TIP3   OH275861   1.560   6.189  15.024 -0.7051  0.3675 -0.1200
18149TIP3    H175862   1.552   6.210  14.931 -2.4042 -1.0084 -0.3343
18149TIP3    H275863   1.638   6.134  15.030 -1.5188 -0.9470 -1.0408
18150TIP3   OH275864   5.944   1.806  14.445 -0.0820  0.1074 -0.4078
18150TIP3    H175865   5.871   1.866  14.457  1.7129  1.9902  2.3949
18150TIP3    H275866   6.013   1.859  14.407  1.5215 -0.0471  2.0514
18151TIP3   OH275867   1.206   0.046  15.200 -0.2243 -0.5909 -0.5603
18151TIP3    H175868   1.163   0.108  15.259  0.3974 -1.9532  1.4424
18151TIP3    H275869   1.297   0.078  15.195  0.4851 -2.0053  1.6493
18152TIP3   OH275870   5.225   5.998  15.980  0.8806 -0.1782  0.2176
18152TIP3    H175871   5.253   5.915  16.018 -0.7882 -1.4305 -1.1060
18152TIP3    H275872   5.148   6.024  16.031  1.8138  0.9860  1.0935
18153TIP3   OH275873   5.439   0.057  10.699 -0.1499  0.5718 -0.2894
18153TIP3    H175874   5.371   0.122  10.685 -0.3812  0.6647  1.1599
18153TIP3    H275875   5.416  -0.015  10.640 -0.1103  1.5989 -1.6113
18154TIP3   OH275876   6.720   1.810   0.735  0.2817 -0.3165  0.0492
18154TIP3    H175877   6.665   1.783   0.809  0.0391  0.4585  0.1603
18154TIP3    H275878   6.768   1.731   0.711 -0.7294 -0.9643  0.0842
18155TIP3   OH275879   6.708   6.385  15.800 -0.3568 -0.3577  0.2687
18155TIP3    H175880   6.716   6.293  15.828 -0.3969 -0.3526  0.2972
18155TIP3    H275881   6.753   6.388  15.715  0.7628 -0.1278  0.8501
18156TIP3   OH275882   6.405   0.081  11.854 -0.5114  0.0734 -0.1175
18156TIP3    H175883   6.394   0.057  11.762  1.5910 -2.4702  0.1923
18156TIP3    H275884   6.445   0.168  11.851  0.0839 -0.2124 -1.6674
18157TIP3   OH275885   3.783   2.431   0.049  0.1703  0.4572 -0.2491
18157TIP3    H175886   3.770   2.338   0.032  1.0306  0.3276 -0.2561
18157TIP3    H275887   3.752   2.444   0.139 -0.1440  0.2119 -0.3200
18158TIP3   OH275888   6.708   5.651   1.018 -0.3605  0.0531 -0.0128
18158TIP3    H175889   6.745   5.667   1.104 -0.2246 -1.4985  0.2404
18158TIP3    H275890   6.619   5.688   1.023  0.0538  1.0166  0.3887
18159TIP3   OH275891   6.194   4.073  16.934  0.0644 -0.1263  0.5251
18159TIP3    H175892   6.269   4.059  16.876 -0.2989  0.8405 -0.1998
18159TIP3    H275893   6.127   4.013  16.901  0.0026  0.1183  0.2018
18160TIP3   OH275894   5.065   1.493  10.369  0.0740 -0.0758 -0.0700
18160TIP3    H175895   5.054   1.401  10.391  1.9293  0.3182  2.9562
18160TIP3    H275896   5.009   1.540  10.431 -0.0369  0.8935 -0.8751
18161TIP3   OH275897   3.089   3.139  15.587  0.0079 -0.1366 -0.2536
18161TIP3    H175898   3.122   3.107  15.671 -0.2622  2.1734  0.8134
18161TIP3    H275899   2.997   3.114  15.585  0.3339 -1.4077 -0.5439
18162TIP3   OH275900   2.892   4.875  13.565 -0.2161  0.3421  0.1524
18162TIP3    H175901   2.822   4.880  13.630 -0.5904 -0.9562 -0.1321
18162TIP3    H275902   2.848   4.845  13.485  0.9864 -2.7769  0.5552
18163TIP3   OH275903   0.397   1.864   0.304 -0.1027  0.0637 -0.5917
18163TIP3    H175904   0.352   1.798   0.357  0.3579 -0.3208 -0.6657
18163TIP3    H275905   0.490   1.850   0.323  0.1926 -1.0460 -2.5778
18164TIP3   OH275906   3.519   1.607  10.572 -0.1974 -0.0059  0.7011
18164TIP3    H175907   3.425   1.606  10.554 -0.2465 -0.9207  0.9630
18164TIP3    H275908   3.525   1.581  10.664  0.3702 -0.9537  0.3990
18165TIP3   OH275909   0.088   2.136   3.895  0.0105  0.1923  0.8098
18165TIP3    H175910   0.029   2.100   3.961  0.4424  1.0545  1.7064
18165TIP3    H275911   0.113   2.221   3.930  1.5247 -0.0164  0.3129
18166TIP3   OH275912   3.192   0.153   1.010 -0.3045  0.3528  0.0330
18166TIP3    H175913   3.219   0.074   1.057 -2.2608  0.3771  1.2797
18166TIP3    H275914   3.236   0.145   0.925  0.7779 -1.2818  0.6869
18167TIP3   OH275915   6.210   1.660  12.881  0.0511 -0.0315  0.6238
18167TIP3    H175916   6.182   1.744  12.915 -2.7008 -1.4314  2.1958
18167TIP3    H275917   6.279   1.631  12.940 -0.7751  0.0310  1.6431
18168TIP3   OH275918   2.154   4.528  17.189 -0.6366  0.0240  0.1027
18168TIP3    H175919   2.218   4.599  17.188  0.2674 -0.7599 -1.1734
18168TIP3    H275920   2.069   4.572  17.186 -0.1886  1.0848  1.8499
18169TIP3   OH275921   1.691   1.100  12.500 -0.1551 -0.6008 -0.3276
18169TIP3    H175922   1.707   1.179  12.448  0.7730 -0.8876 -0.5166
18169TIP3    H275923   1.770   1.091  12.553 -1.0102 -0.4330  1.0022
18170TIP3   OH275924   6.242   0.329   4.895  0.4070  0.1459  0.2445
18170TIP3    H175925   6.186   0.406   4.884  0.6641  0.5555  1.6046
18170TIP3    H275926   6.189   0.256   4.863 -0.2849  0.7318  0.0138
18171TIP3   OH275927   3.117   2.644   5.671 -0.6340 -0.3437  0.5618
18171TIP3    H175928   3.152   2.579   5.733 -0.3885 -0.2381  0.5332
18171TIP3    H275929   3.052   2.595   5.620  0.6516 -0.9908 -0.5175
18172TIP3   OH275930   2.670   1.161  16.969 -0.2667  0.3639  0.1637
18172TIP3    H175931   2.646   1.252  16.953 -0.3898  0.3813  0.4387
18172TIP3    H275932   2.590   1.112  16.954 -0.9099  0.5805  2.5468
18173TIP3   OH275933   0.663   3.727   2.367 -0.2345  0.6538  0.0712
18173TIP3    H175934   0.577   3.727   2.325 -0.6233  0.4244  0.8470
18173TIP3    H275935   0.709   3.653   2.327 -0.0717  1.2833 -0.9608
18174TIP3   OH275936   2.898   1.874   4.826  0.0233  0.1902 -0.3101
18174TIP3    H175937   2.872   1.937   4.894  1.1043 -0.2576  0.5594
18174TIP3    H275938   2.967   1.919   4.778  0.3440 -0.0783 -0.1047
18175TIP3   OH275939   1.633   2.364   3.849 -0.1049 -0.3134 -0.1811
18175TIP3    H175940   1.542   2.379   3.877 -0.6117 -1.7025 -0.9579
18175TIP3    H275941   1.673   2.317   3.922 -0.5607 -1.3002 -0.5444
18176TIP3   OH275942   2.987   2.758   1.425 -0.2796  0.2602 -0.4864
18176TIP3    H175943   2.939   2.795   1.351  1.0014  1.4604 -0.7434
18176TIP3    H275944   2.933   2.684   1.454 -0.4465 -0.7188 -3.0822
18177TIP3   OH275945   4.209   3.917  17.193 -0.6483 -0.3072  0.3505
18177TIP3    H175946   4.199   3.827  17.163  0.8625 -1.4915  2.9966
18177TIP3    H275947   4.178   3.916  17.284  0.7076  1.4617  0.8977
18178TIP3   OH275948   5.769   6.315  16.324 -0.0230  0.3860 -0.4562
18178TIP3    H175949   5.688   6.357  16.351 -0.5959 -0.1359 -1.3416
18178TIP3    H275950   5.838   6.367  16.367 -0.8373  0.2695  1.0719
18179TIP3   OH275951   0.190   0.389   2.272  0.5414  0.4598  0.2261
18179TIP3    H175952   0.233   0.449   2.211 -0.3150  0.5504 -0.3097
18179TIP3    H275953   0.146   0.446   2.335  0.5350  0.3823  0.2919
18180TIP3   OH275954   4.648   0.282  13.468 -0.4211  0.2975  0.1574
18180TIP3    H175955   4.644   0.191  13.495  1.0136  0.6854  1.8524
18180TIP3    H275956   4.627   0.332  13.547  1.5508  1.4527  0.0238
18181TIP3   OH275957   4.904   2.897  11.254 -0.6430  0.1417 -0.2382
18181TIP3    H175958   4.970   2.960  11.225 -0.9313  0.3686 -0.4100
18181TIP3    H275959   4.833   2.905  11.191 -2.4785  2.5906  1.8839
18182TIP3   OH275960   3.017   1.691  14.978  0.2255 -0.3273  0.0611
18182TIP3    H175961   2.925   1.679  15.001  0.8920 -1.7879  2.4168
18182TIP3    H275962   3.055   1.604  14.987  2.2681  0.6352  1.5239
18183TIP3   OH275963   3.445   1.768   5.928  0.3588  0.2944 -0.2492
18183TIP3    H175964   3.460   1.824   6.004 -0.6660  1.0214 -0.5555
18183TIP3    H275965   3.529   1.770   5.881  0.1891  2.1237 -0.5806
18184TIP3   OH275966   0.362   1.303   3.128  0.0690  0.0615  0.0689
18184TIP3    H175967   0.369   1.390   3.167 -0.4111 -0.4134  1.2370
18184TIP3    H275968   0.273   1.275   3.147  0.5773 -1.1677  0.7546
18185TIP3   OH275969   1.805   5.104   5.938  0.7005  0.2210  0.2928
18185TIP3    H175970   1.783   5.196   5.947  1.1480  0.2668  0.9924
18185TIP3    H275971   1.773   5.063   6.018  2.8850  0.2466  1.2573
18186TIP3   OH275972   6.773   6.402  17.056 -0.1126  0.2125  0.6444
18186TIP3    H175973   6.823   6.380  17.135 -0.5880  0.6703  1.0800
18186TIP3    H275974   6.835   6.390  16.985  0.1525 -0.8182  1.0257
18187TIP3   OH275975   3.114   5.374  12.576  0.5746 -0.0653 -0.2111
18187TIP3    H175976   3.156   5.406  12.496  2.6432 -0.3969  0.6909
18187TIP3    H275977   3.066   5.450  12.609 -1.8429 -0.3968 -2.6361
18188TIP3   OH275978   3.745   3.582  14.614 -0.0763 -0.0815 -0.1044
18188TIP3    H175979   3.806   3.649  14.586 -0.3817  0.7017  1.0540
18188TIP3    H275980   3.660   3.611  14.579 -0.3578  0.6042  1.0908
18189TIP3   OH275981   0.394   0.921   0.747  0.9778 -0.0838  0.2830
18189TIP3    H175982   0.320   0.981   0.756  0.3270 -1.1227  2.8475
18189TIP3    H275983   0.423   0.932   0.657 -0.2858  2.6649  0.1051
18190TIP3   OH275984   6.606   2.609   1.248  0.0414  0.4432  0.2696
18190TIP3    H175985   6.697   2.598   1.276  0.0956  2.3653  0.9929
18190TIP3    H275986   6.612   2.648   1.161 -0.0997 -0.0817  0.0231
18191TIP3   OH275987   6.434   2.191   1.506  0.3410  0.4894  0.3800
18191TIP3    H175988   6.363   2.171   1.566  0.0761 -1.4418 -0.4899
18191TIP3    H275989   6.513   2.163   1.552  0.3903  1.1258  0.6983
18192TIP3   OH275990   2.967   4.511  13.018  0.3602 -0.6706  0.0066
18192TIP3    H175991   2.891   4.535  13.070  1.0731  0.5356  0.5303
18192TIP3    H275992   3.035   4.490  13.082  0.2099 -2.7817 -0.4397
18193TIP3   OH275993   0.771   3.468   4.700 -0.1866  0.2717 -0.1998
18193TIP3    H175994   0.864   3.489   4.687 -0.5373  1.6486 -0.5748
18193TIP3    H275995   0.726   3.552   4.693 -1.3419 -0.1944  1.2740
18194TIP3   OH275996   6.404   4.889  16.649 -0.6429 -0.6878  0.1282
18194TIP3    H175997   6.316   4.923  16.665 -0.3116 -0.0895  0.7724
18194TIP3    H275998   6.445   4.954  16.592 -0.7013 -1.1043 -0.3965
18195TIP3   OH275999   1.262   6.063   2.849  0.3455  0.2941 -0.2182
18195TIP3    H176000   1.290   5.991   2.792  0.3696  0.9654 -1.0727
18195TIP3    H276001   1.304   6.044   2.933  0.1858 -0.7921 -0.3663
18196TIP3   OH276002   5.473   6.367   2.728  0.4105  0.5716 -0.8221
18196TIP3    H176003   5.382   6.345   2.708 -0.4292  0.4851  2.4922
18196TIP3    H276004   5.525   6.297   2.687 -1.2413 -0.8709 -0.5671
18197TIP3   OH276005   4.877   5.233  12.373 -0.4580  0.6904 -0.3750
18197TIP3    H176006   4.934   5.181  12.430 -2.4848 -0.6370  0.5337
18197TIP3    H276007   4.936   5.265  12.305  0.9045 -3.2365 -1.3133
18198TIP3   OH276008   3.712   2.383   0.346  0.0148  0.1413 -0.1872
18198TIP3    H176009   3.680   2.315   0.404 -1.9184  0.0961 -1.2177
18198TIP3    H276010   3.721   2.460   0.401 -1.4508  0.0114  0.2727
18199TIP3   OH276011   5.254   5.497   0.440 -0.2564 -0.4999 -0.2658
18199TIP3    H176012   5.260   5.489   0.535 -0.7291 -2.8575 -0.3792
18199TIP3    H276013   5.345   5.496   0.410 -0.1133  0.0387  0.1326
18200TIP3   OH276014   3.080   5.398  14.514 -0.8347  0.1107 -0.2765
18200TIP3    H176015   3.035   5.315  14.529 -1.6776  0.5643 -0.2375
18200TIP3    H276016   3.073   5.413  14.420  1.2377 -0.9173 -0.6544
18201TIP3   OH276017   5.872   4.834   0.513 -0.3786  0.9070  0.4534
18201TIP3    H176018   5.846   4.927   0.511 -0.9659  0.7549  0.7598
18201TIP3    H276019   5.805   4.792   0.566 -0.5643  0.1658 -0.3521
18202TIP3   OH276020   2.973   0.345   2.372 -0.3005 -0.3484 -0.2959
18202TIP3    H176021   2.898   0.400   2.396  0.9754  1.8548 -1.1099
18202TIP3    H276022   2.986   0.362   2.279  2.0541  0.4383  0.1240
18203TIP3   OH276023   6.455   3.490   4.738  0.2109  0.1277 -0.0845
18203TIP3    H176024   6.380   3.535   4.698 -1.2895 -0.2604  2.1247
18203TIP3    H276025   6.482   3.426   4.672 -3.7112 -2.1817  0.2009
18204TIP3   OH276026   4.394   1.082  12.044  0.0495  0.0915 -0.3345
18204TIP3    H176027   4.372   1.138  12.119 -0.3102 -2.1730  1.3348
18204TIP3    H276028   4.478   1.042  12.067 -0.0302 -0.5916 -1.1689
18205TIP3   OH276029   1.809   2.000   3.879 -0.4379 -0.6991  0.1441
18205TIP3    H176030   1.724   2.039   3.902 -0.1491 -0.6594  1.1838
18205TIP3    H276031   1.796   1.967   3.790 -1.3960 -0.2648  0.1032
18206TIP3   OH276032   1.974   4.062  13.770  0.3819  0.1501  0.8223
18206TIP3    H176033   1.996   4.041  13.861  0.4497  1.9981  1.2723
18206TIP3    H276034   1.929   3.984  13.737  1.8619 -1.2197  1.8912
18207TIP3   OH276035   5.292   0.968  12.503 -0.5321 -0.7430  0.4904
18207TIP3    H176036   5.326   1.039  12.449 -0.7385 -0.9020  0.1429
18207TIP3    H276037   5.363   0.903  12.504 -0.2281 -0.4105  1.0550
18208TIP3   OH276038   0.425   0.700  14.209  0.1210 -0.0413 -0.5353
18208TIP3    H176039   0.464   0.620  14.173  0.8545 -0.0508  0.2425
18208TIP3    H276040   0.452   0.769  14.148 -1.3636 -0.5012 -1.7791
18209TIP3   OH276041   1.126   5.329   3.746  0.0125 -0.9798 -0.5585
18209TIP3    H176042   1.140   5.408   3.798  0.6753 -0.3945 -1.5763
18209TIP3    H276043   1.031   5.327   3.731 -0.0217 -0.3994 -0.4699
18210TIP3   OH276044   0.559   2.207  10.600  0.3617 -0.1198  0.4470
18210TIP3    H176045   0.492   2.170  10.658 -0.4808  0.2360 -0.2759
18210TIP3    H276046   0.628   2.141  10.598  0.1558 -0.3823  1.4016
18211TIP3   OH276047   2.004   0.171   3.381 -0.7129  0.7972 -0.4926
18211TIP3    H176048   2.067   0.208   3.441 -1.5322  1.0839  0.2059
18211TIP3    H276049   1.937   0.239   3.370 -2.4471 -0.5460  1.1278
18212TIP3   OH276050   4.267   4.942  12.891  0.7389  0.1377  0.0503
18212TIP3    H176051   4.189   4.888  12.899  0.7459 -0.1235 -1.5060
18212TIP3    H276052   4.265   4.976  12.802  2.8119 -0.5210 -0.3008
18213TIP3   OH276053   1.745   2.762  10.664 -0.3986  0.4393  0.6752
18213TIP3    H176054   1.672   2.800  10.713 -2.4691 -0.9666 -1.0832
18213TIP3    H276055   1.748   2.812  10.582 -0.2999 -0.3601  0.1759
18214TIP3   OH276056   0.028   6.188   4.110 -0.0788  0.4256 -0.1098
18214TIP3    H176057   0.050   6.192   4.203  3.7533  0.4118 -0.8712
18214TIP3    H276058  -0.046   6.247   4.101  1.0291  2.4340  2.5875
18215TIP3   OH276059   5.700   3.939   2.990 -0.3184 -0.2138  0.0086
18215TIP3    H176060   5.614   3.903   2.968 -0.3267 -0.6631  0.7437
18215TIP3    H276061   5.713   3.916   3.082 -0.3314  1.7233  0.5251
18216TIP3   OH276062   6.229   1.195   5.816  0.6468  0.2800 -0.1144
18216TIP3    H176063   6.297   1.241   5.766  0.4848 -2.0384 -2.7293
18216TIP3    H276064   6.151   1.250   5.807  1.0167  0.6536 -1.1956
18217TIP3   OH276065   4.018   0.961   5.974 -0.7084  0.1681 -0.2720
18217TIP3    H176066   4.087   0.911   6.017 -0.8601  0.3551  0.1963
18217TIP3    H276067   3.937   0.923   6.007 -0.8283  0.2394 -0.4823
18218TIP3   OH276068   3.422   3.397  13.308 -0.6150 -0.0611 -0.4095
18218TIP3    H176069   3.458   3.316  13.345  1.0885  1.4755  1.5304
18218TIP3    H276070   3.492   3.432  13.253 -1.6841 -0.2959 -1.9942
18219TIP3   OH276071   2.866   4.805   4.041 -0.5976 -0.0184 -0.2224
18219TIP3    H176072   2.931   4.754   3.991 -0.3214 -0.2966  0.3954
18219TIP3    H276073   2.790   4.747   4.047  0.4455 -1.3048  2.2698
18220TIP3   OH276074   6.492   2.129   4.092 -0.0144  0.0507 -0.6517
18220TIP3    H176075   6.585   2.111   4.105  0.1134  1.7568  1.4290
18220TIP3    H276076   6.447   2.050   4.124  0.6914 -0.2635 -0.4238
18221TIP3   OH276077   2.027   4.437  15.175 -0.0830 -0.5248  0.2715
18221TIP3    H176078   1.981   4.513  15.138 -1.4873 -0.9349  1.1192
18221TIP3    H276079   1.998   4.433  15.266  0.2365 -1.8966  0.3280
18222TIP3   OH276080   3.692   1.901   3.419  0.0830 -0.6199  0.1033
18222TIP3    H176081   3.779   1.873   3.448  0.0281  1.6426  2.7721
18222TIP3    H276082   3.657   1.952   3.491 -1.9358  1.7923 -2.3590
18223TIP3   OH276083   3.721   0.548   0.580  0.3219  0.1940  0.2834
18223TIP3    H176084   3.683   0.461   0.593 -0.7203  0.1368 -2.4280
18223TIP3    H276085   3.793   0.534   0.519  0.4509  1.1464  0.1953
18224TIP3   OH276086   1.557   5.252  12.572 -0.2922 -0.3841 -0.1046
18224TIP3    H176087   1.620   5.315  12.605 -2.6269  0.8582  2.3192
18224TIP3    H276088   1.604   5.169  12.571  1.5687  0.6072  0.8739
18225TIP3   OH276089   5.543   2.235   2.949 -0.0602 -0.1896  0.2548
18225TIP3    H176090   5.453   2.245   2.917  0.4362 -1.7658 -1.8423
18225TIP3    H276091   5.535   2.183   3.029 -0.8628 -3.1176 -1.6226
18226TIP3   OH276092   0.434   3.461  17.125 -0.3309 -0.0587  0.2249
18226TIP3    H176093   0.401   3.491  17.210 -2.1121 -0.1426 -0.3924
18226TIP3    H276094   0.395   3.375  17.113 -0.7081  0.2604 -0.9835
18227TIP3   OH276095   0.301   5.019  13.580 -0.0099 -0.0244 -0.1787
18227TIP3    H176096   0.284   5.073  13.503  2.5758 -0.2243 -0.9954
18227TIP3    H276097   0.252   5.061  13.651  1.8217  3.4335 -0.7507
18228TIP3   OH276098   0.012   3.429   5.115  0.3361  0.0807  0.4059
18228TIP3    H176099  -0.002   3.500   5.178  1.4817  0.7228 -0.0418
18228TIP3    H276100  -0.003   3.468   5.030  1.2825 -0.1274  0.1366
18229TIP3   OH276101   3.950   1.748   6.394 -0.0582  0.4083 -0.0566
18229TIP3    H176102   3.862   1.741   6.358 -1.3670  2.1443  2.4631
18229TIP3    H276103   3.946   1.824   6.453  2.9972  0.2562  0.5203
18230TIP3   OH276104   0.020   6.188   5.699  0.7299  0.6446  0.1221
18230TIP3    H176105  -0.074   6.192   5.679  0.2885  3.8265  2.1379
18230TIP3    H276106   0.027   6.124   5.770  0.0728  0.4445  0.0112
18231TIP3   OH276107   2.276   0.254  11.445 -0.2899 -0.3761 -0.8783
18231TIP3    H176108   2.311   0.249  11.356  0.9590 -1.1416 -0.3739
18231TIP3    H276109   2.316   0.180  11.491  1.7149  1.7664  1.1601
18232TIP3   OH276110   3.100   3.535  15.912 -0.1588 -0.2322 -0.0988
18232TIP3    H176111   3.155   3.588  15.970 -1.5326 -0.1602  1.2185
18232TIP3    H276112   3.160   3.500  15.847  1.7840 -1.5539  2.2407
18233TIP3   OH276113   4.934   0.735  12.735  0.5773  0.5311  0.2269
18233TIP3    H176114   5.002   0.801  12.753 -0.6453  1.3954  2.0630
18233TIP3    H276115   4.933   0.726  12.640  2.4937  1.2936  0.0900
18234TIP3   OH276116   1.526   3.110   2.421 -0.4452 -0.3929  0.2672
18234TIP3    H176117   1.482   3.129   2.504 -1.6831 -1.5705 -0.0700
18234TIP3    H276118   1.574   3.029   2.437  0.3294  0.0437  0.1769
18235TIP3   OH276119   4.995   5.638   2.053 -0.0699 -0.4933  0.1772
18235TIP3    H176120   5.047   5.628   1.973  0.8266  0.0114  0.6736
18235TIP3    H276121   4.904   5.643   2.023  0.2781  0.0137 -0.8380
18236TIP3   OH276122   2.399   3.101   2.448  1.0177 -0.0099  0.5532
18236TIP3    H176123   2.437   3.018   2.420 -0.5253 -0.2632 -0.9983
18236TIP3    H276124   2.306   3.081   2.463  0.6160  1.4092  0.1456
18237TIP3   OH276125   4.640   5.117   2.688 -0.0234 -0.4240 -0.2883
18237TIP3    H176126   4.698   5.077   2.753  1.5650 -1.3709 -2.1451
18237TIP3    H276127   4.694   5.184   2.646 -0.3949 -0.9715 -1.7154
18238TIP3   OH276128   1.869   1.549  14.954 -0.1426 -0.3321  0.7910
18238TIP3    H176129   1.857   1.639  14.983 -0.7118 -0.2033  0.1938
18238TIP3    H276130   1.955   1.523  14.988  0.3338  0.6702  0.3758
18239TIP3   OH276131   2.599   2.731  14.255  0.1703  0.0684  0.0630
18239TIP3    H176132   2.659   2.658  14.269 -0.6943 -0.4031  1.4949
18239TIP3    H276133   2.567   2.719  14.166  0.4985 -0.9642  0.0719
18240TIP3   OH276134   3.567   3.854   2.130 -0.8159 -0.0562 -0.2850
18240TIP3    H176135   3.602   3.914   2.196 -1.3269  0.1983 -0.2469
18240TIP3    H276136   3.479   3.886   2.112 -0.9364 -0.5453 -0.5756
18241TIP3   OH276137   0.023   5.881   2.183 -0.2088  0.3497  0.0305
18241TIP3    H176138  -0.057   5.918   2.145  0.9882  2.1521 -0.8794
18241TIP3    H276139   0.094   5.916   2.128  1.2342 -0.9982  0.9550
18242TIP3   OH276140   1.847   4.585  11.626 -0.6561  0.2042 -0.9725
18242TIP3    H176141   1.773   4.645  11.624 -1.1452 -0.3401  0.2396
18242TIP3    H276142   1.813   4.506  11.668  0.7334  0.1104  0.0242
18243TIP3   OH276143   5.755   5.652   2.872 -0.1904 -1.1621  0.6257
18243TIP3    H176144   5.849   5.661   2.862 -0.3501 -1.1120 -1.1230
18243TIP3    H276145   5.743   5.621   2.962  1.2723  1.9270  2.0382
18244TIP3   OH276146   5.976   3.189  13.463 -0.5789  0.3830  0.0371
18244TIP3    H176147   6.069   3.201  13.483 -0.7223  1.0216  0.3317
18244TIP3    H276148   5.960   3.096  13.482 -0.1533  0.4195  0.6266
18245TIP3   OH276149   3.545   2.608  16.339  0.7510  0.1136 -0.1714
18245TIP3    H176150   3.598   2.687  16.326 -0.2923  0.8375 -0.1853
18245TIP3    H276151   3.608   2.540  16.359  1.6889  0.9484 -0.1969
18246TIP3   OH276152   4.445   0.964  15.582  0.2399 -0.4890 -0.1850
18246TIP3    H176153   4.451   0.886  15.527 -1.2069 -1.6583  1.2269
18246TIP3    H276154   4.513   0.951  15.649  0.5832 -0.0884 -0.4465
18247TIP3   OH276155   2.257   4.927   6.666  0.5459 -0.1293 -0.0671
18247TIP3    H176156   2.207   4.865   6.720  1.7372 -0.7752  0.3314
18247TIP3    H276157   2.320   4.872   6.619  1.0892  0.6996 -0.3252
18248TIP3   OH276158   1.275   3.073  11.618 -0.5289  0.0827  0.5382
18248TIP3    H176159   1.271   3.161  11.580  1.5811 -0.0890 -0.2041
18248TIP3    H276160   1.288   3.015  11.544 -0.7192 -0.7257  1.1274
18249TIP3   OH276161   1.667   1.367   6.024 -0.2000 -0.0103 -0.8517
18249TIP3    H176162   1.676   1.343   5.931 -0.5391  0.0914 -0.9135
18249TIP3    H276163   1.681   1.462   6.025  1.1842 -0.1925 -0.6025
18250TIP3   OH276164   3.735   0.588   4.960 -0.3415  0.5433  0.2703
18250TIP3    H176165   3.657   0.591   4.905 -1.1638 -1.5210  1.2315
18250TIP3    H276166   3.785   0.513   4.928  0.6445  1.0922  0.4725
18251TIP3   OH276167   3.498   3.430   6.925  0.0670 -0.0522 -0.2633
18251TIP3    H176168   3.486   3.440   6.830 -0.3445  0.6459 -0.1473
18251TIP3    H276169   3.484   3.337   6.942  1.9242 -0.5550 -1.1284
18252TIP3   OH276170   0.004   2.874   4.272  0.4805  0.5754 -0.3296
18252TIP3    H176171   0.050   2.852   4.191 -0.8796 -0.1591 -0.9196
18252TIP3    H276172   0.011   2.795   4.325  0.9587  0.8965  0.1066
18253TIP3   OH276173   1.349   5.400   2.012  0.3691 -0.5702 -0.1847
18253TIP3    H176174   1.423   5.339   2.008 -0.7886 -2.0230 -0.6698
18253TIP3    H276175   1.350   5.444   1.927  2.1665  1.3389  0.7569
18254TIP3   OH276176   2.773   0.056   0.265 -0.8764 -0.2839 -0.2840
18254TIP3    H176177   2.779   0.098   0.351  0.8187 -0.7786 -0.1118
18254TIP3    H276178   2.764   0.128   0.203 -0.3824  0.1953  0.1889
18255TIP3   OH276179   4.784   3.613  11.771  0.8018 -0.3239 -0.0457
18255TIP3    H176180   4.837   3.541  11.802 -0.8903 -1.9132 -0.6539
18255TIP3    H276181   4.694   3.588  11.791  0.0677  1.0926 -1.2704
18256TIP3   OH276182   6.637   1.058  12.816  0.7475  0.0034 -0.2162
18256TIP3    H176183   6.665   1.009  12.739 -0.3467  0.9415 -1.2541
18256TIP3    H276184   6.706   1.124  12.829  1.3226 -0.6510  0.0963
18257TIP3   OH276185   1.643   3.296  15.160 -0.4803 -0.0242  0.1857
18257TIP3    H176186   1.709   3.282  15.228 -0.2606  0.2212  0.0246
18257TIP3    H276187   1.627   3.390  15.161  0.3170  0.1409 -0.8287
18258TIP3   OH276188   0.635   4.651  16.971 -0.1020 -0.3256 -0.1704
18258TIP3    H176189   0.564   4.675  17.031  0.3389  1.8933 -0.4452
18258TIP3    H276190   0.645   4.556  16.982 -0.5895 -0.1314  2.6481
18259TIP3   OH276191   6.120   2.239   5.216  0.1784  0.1683 -0.4959
18259TIP3    H176192   6.174   2.163   5.192  1.6106  0.8106  0.5363
18259TIP3    H276193   6.175   2.290   5.276 -1.7106  0.7081  0.8950
18260TIP3   OH276194   1.852   1.033  14.273 -0.5544  0.8922  0.5806
18260TIP3    H176195   1.769   1.065  14.238 -1.6062 -1.3902  0.7600
18260TIP3    H276196   1.827   0.988  14.354  0.7973 -0.1105  0.4783
18261TIP3   OH276197   1.044   6.709   6.544  0.0460 -0.0850 -0.1667
18261TIP3    H176198   1.078   6.648   6.479  1.2521  0.3231  0.0511
18261TIP3    H276199   0.957   6.732   6.512 -0.3511 -1.7396 -0.3610
18262TIP3   OH276200   2.987   2.767   1.088  0.2212  0.3818 -0.0206
18262TIP3    H176201   3.022   2.682   1.115 -0.3900  0.2252  0.3033
18262TIP3    H276202   2.925   2.747   1.018  1.4954  0.7525 -1.3064
18263TIP3   OH276203   5.305   4.983   5.979  0.5036  0.7204  0.0364
18263TIP3    H176204   5.283   4.967   6.071 -2.8294 -1.4427 -0.9361
18263TIP3    H276205   5.241   5.048   5.950 -0.8904 -1.1806 -1.4716
18264TIP3   OH276206   0.305   1.338  15.722 -0.6175  0.0573  0.3519
18264TIP3    H176207   0.312   1.242  15.715  2.0837  0.0715  1.5027
18264TIP3    H276208   0.227   1.353  15.775 -1.5386 -1.4427 -0.5080
18265TIP3   OH276209   6.502   1.300   3.048 -0.7169  0.3616  0.1083
18265TIP3    H176210   6.437   1.370   3.033  0.4507  1.3973 -0.3057
18265TIP3    H276211   6.516   1.262   2.961 -0.6614  0.2382  0.1716
18266TIP3   OH276212   0.508   1.027  14.992 -0.6838  0.1748  0.3086
18266TIP3    H176213   0.435   1.055  15.047 -1.4754  2.4559 -1.7370
18266TIP3    H276214   0.494   1.071  14.908  2.3040 -0.4075 -0.6338
18267TIP3   OH276215   4.037   3.912  15.918  0.6477 -0.1210 -0.6266
18267TIP3    H176216   4.044   3.980  15.851  0.5006  0.9235  0.3945
18267TIP3    H276217   4.117   3.921  15.970  0.5302 -0.5950 -0.3582
18268TIP3   OH276218   1.439   5.317   6.009 -0.0541 -0.4831  0.1622
18268TIP3    H176219   1.387   5.395   5.989  1.2214  0.4683  0.4104
18268TIP3    H276220   1.474   5.334   6.097  0.1096 -1.4153  0.2837
18269TIP3   OH276221   4.912   0.859  13.399 -0.0357 -0.2635 -0.4911
18269TIP3    H176222   4.948   0.874  13.486  0.6249  2.3456 -1.1513
18269TIP3    H276223   4.908   0.763  13.391  3.4996 -0.6575  0.9219
18270TIP3   OH276224   2.401   5.540  14.996 -0.4414 -0.2994 -0.3569
18270TIP3    H176225   2.432   5.554  15.085 -1.8214  0.1559  0.0782
18270TIP3    H276226   2.308   5.521  15.006 -0.9376  1.1693 -1.8085
18271TIP3   OH276227   5.210   6.558  11.547 -0.2619 -0.0942 -0.1721
18271TIP3    H176228   5.170   6.473  11.530 -0.9647  0.4440 -1.4479
18271TIP3    H276229   5.161   6.594  11.620 -0.5893 -0.3948 -0.2424
18272TIP3   OH276230   2.790   2.658   2.641 -0.1794 -0.3021  0.0206
18272TIP3    H176231   2.714   2.626   2.593 -0.3455  0.5245 -0.2857
18272TIP3    H276232   2.804   2.594   2.711  0.1455 -1.6128 -1.1901
18273TIP3   OH276233   3.757   6.738   3.269  0.1390  0.1092  0.1702
18273TIP3    H176234   3.838   6.748   3.318  0.0085  1.7874  0.1112
18273TIP3    H276235   3.692   6.714   3.335  0.6072 -0.9602  0.2590
18274TIP3   OH276236   0.837   2.884  11.415  0.1016  0.2197  0.4456
18274TIP3    H176237   0.825   2.969  11.373 -0.9161  0.4314  1.1284
18274TIP3    H276238   0.750   2.844  11.412  0.1960 -0.0959  1.5959
18275TIP3   OH276239   3.689   2.284   0.753  0.1260 -0.0535 -0.7596
18275TIP3    H176240   3.731   2.370   0.757  1.7141 -0.8378  0.4916
18275TIP3    H276241   3.601   2.298   0.786  0.5911  0.9953  0.0838
18276TIP3   OH276242   4.646   5.954   4.432 -0.0107  0.4562 -0.4806
18276TIP3    H176243   4.696   6.012   4.490  0.1803  0.4798 -0.6707
18276TIP3    H276244   4.644   5.999   4.348  1.3491 -0.4422 -1.0394
18277TIP3   OH276245   4.643   2.112  15.073 -0.1557  0.1598  0.0709
18277TIP3    H176246   4.559   2.154  15.051 -0.5797 -0.3673  0.6679
18277TIP3    H276247   4.654   2.045  15.005 -0.4245 -0.0543  0.2384
18278TIP3   OH276248   3.656   0.701   2.643 -0.5904 -0.4351  0.2052
18278TIP3    H176249   3.588   0.757   2.605  0.5536  2.2943  1.8317
18278TIP3    H276250   3.625   0.683   2.732  0.2572 -0.0938  0.5854
18279TIP3   OH276251   0.269   2.537  11.209 -0.3386 -0.0059 -0.0603
18279TIP3    H176252   0.176   2.535  11.230 -0.3202  0.0992  0.0303
18279TIP3    H276253   0.312   2.565  11.289 -0.1663 -0.6787  0.0911
18280TIP3   OH276254   5.837   2.402  13.343  0.1032  0.9982  0.1139
18280TIP3    H176255   5.822   2.496  13.354  0.5859  1.1418 -0.3846
18280TIP3    H276256   5.787   2.379  13.265 -1.6279  0.4145  1.3298
18281TIP3   OH276257   2.788   0.117   0.578  0.2851 -0.2455  0.1959
18281TIP3    H176258   2.805   0.181   0.647 -0.8945  0.8225 -0.4707
18281TIP3    H276259   2.710   0.070   0.608  0.7038 -0.8796  0.3215
18282TIP3   OH276260   6.727   3.696  14.085 -0.1455  0.4758 -0.4612
18282TIP3    H176261   6.754   3.738  14.166  0.2294 -1.0139  0.2253
18282TIP3    H276262   6.640   3.732  14.067 -0.2053  0.8725  0.5675
18283TIP3   OH276263   1.282   6.104  14.157  0.2263 -0.2683 -1.0172
18283TIP3    H176264   1.214   6.134  14.097 -0.8350  1.1669  0.8030
18283TIP3    H276265   1.258   6.013  14.176 -0.5330 -0.1222 -1.2474
18284TIP3   OH276266   5.664   3.160  15.732  0.2158  0.6381  0.0075
18284TIP3    H176267   5.703   3.084  15.688  2.6190  1.2737  0.8588
18284TIP3    H276268   5.590   3.125  15.781  1.5983 -1.2808  0.8389
18285TIP3   OH276269   5.772   6.261   2.088 -0.2703 -0.3682 -0.4555
18285TIP3    H176270   5.810   6.215   2.014  1.4277 -4.2265  2.4684
18285TIP3    H276271   5.847   6.290   2.140 -1.4006  1.5396  0.2252
18286TIP3   OH276272   2.547   3.738  13.514 -0.2827  0.3186  1.0004
18286TIP3    H176273   2.506   3.685  13.583 -1.3203 -1.8481 -1.1275
18286TIP3    H276274   2.476   3.793  13.482  0.1133  1.0685  1.3703
18287TIP3   OH276275   6.607   0.143   0.921 -0.4134  0.3607  0.3116
18287TIP3    H176276   6.633   0.216   0.864  0.2037  0.4480  0.6946
18287TIP3    H276277   6.513   0.134   0.906 -0.5474  1.3891  0.4238
18288TIP3   OH276278   6.525   3.213   6.442 -0.1404 -0.1586  0.3682
18288TIP3    H176279   6.512   3.296   6.486  0.4954  0.0506  0.1736
18288TIP3    H276280   6.608   3.179   6.478 -0.6887 -0.9926  0.8879
18289TIP3   OH276281   1.089   0.734  12.402 -0.1678 -0.2090 -0.7748
18289TIP3    H176282   1.050   0.652  12.371 -1.0107  0.4111 -1.4157
18289TIP3    H276283   1.052   0.801  12.344 -1.9499  1.0415  1.6122
18290TIP3   OH276284   4.765   3.327  12.136 -0.0336 -0.2294 -0.7462
18290TIP3    H176285   4.732   3.245  12.172 -0.6174  0.3382  0.0359
18290TIP3    H276286   4.860   3.321  12.148  0.2954 -2.0442 -3.3774
18291TIP3   OH276287   4.838   1.432  14.254  0.1534 -0.4657 -0.2211
18291TIP3    H176288   4.875   1.498  14.196  0.3124  0.6237  1.0719
18291TIP3    H276289   4.835   1.474  14.340 -1.8136 -1.3704  0.2036
18292TIP3   OH276290   2.157   4.206  14.719  0.3662  0.1992 -0.1003
18292TIP3    H176291   2.225   4.152  14.758 -0.4258  0.0860  1.1879
18292TIP3    H276292   2.102   4.144  14.671 -1.3220 -0.4506  2.4783
18293TIP3   OH276293   0.217   4.125  12.693  0.0403  0.0391 -0.0452
18293TIP3    H176294   0.203   4.030  12.692  0.9588 -0.1094 -1.4954
18293TIP3    H276295   0.172   4.157  12.616  1.9643  0.3896 -1.0935
18294TIP3   OH276296   5.846   2.405  14.169 -0.0842 -0.5710  0.0958
18294TIP3    H176297   5.929   2.376  14.130  0.3130  0.0983  0.4094
18294TIP3    H276298   5.859   2.499  14.182 -0.6079 -0.6038  0.8659
18295TIP3   OH276299   4.760   6.574  12.172 -0.0103 -0.1426  0.2795
18295TIP3    H176300   4.703   6.650  12.174 -0.2885 -0.3609  1.7485
18295TIP3    H276301   4.846   6.609  12.147 -0.6412  0.2455 -1.5069
18296TIP3   OH276302   2.302   3.067  16.794 -0.1335  0.6590 -0.4209
18296TIP3    H176303   2.396   3.063  16.777 -0.0227  1.2838  0.0331
18296TIP3    H276304   2.286   3.157  16.822 -0.8592  0.5431 -0.4420
18297TIP3   OH276305   5.795   2.919   5.052 -0.4939 -0.0548 -0.3839
18297TIP3    H176306   5.717   2.934   5.106  0.1765  0.2441  0.5289
18297TIP3    H276307   5.820   2.828   5.073 -0.4872 -0.0853 -0.5282
18298TIP3   OH276308   1.068   4.166   7.020  0.1345  0.2436 -0.5254
18298TIP3    H176309   1.043   4.141   6.931  0.9796 -1.4059 -0.3357
18298TIP3    H276310   1.124   4.243   7.008 -2.1032  1.8821 -1.1716
18299TIP3   OH276311   0.779   5.019   4.125  0.0263  0.3570  0.1691
18299TIP3    H176312   0.833   4.964   4.068 -0.7227  1.8866 -2.1382
18299TIP3    H276313   0.715   4.959   4.163  0.8579 -0.7804 -0.1632
18300TIP3   OH276314   1.876   3.216   5.070 -0.2351  0.2323 -0.1496
18300TIP3    H176315   1.840   3.287   5.017 -0.8089 -0.5509 -0.8188
18300TIP3    H276316   1.882   3.142   5.011  0.8105 -0.1582  0.4238
18301TIP3   OH276317   0.830   2.419   0.532  0.2361  0.1126 -0.3220
18301TIP3    H176318   0.851   2.326   0.530  1.6010  0.3747  0.4867
18301TIP3    H276319   0.759   2.429   0.469 -0.1155 -1.5116 -0.2258
18302TIP3   OH276320   5.301   2.890   3.402 -0.2108  0.4611  0.0345
18302TIP3    H176321   5.303   2.985   3.411  2.5722  0.4625  0.1272
18302TIP3    H276322   5.268   2.875   3.313 -0.4466  1.5218 -0.0701
18303TIP3   OH276323   1.000   0.302  16.509 -0.1404  0.3897  0.5973
18303TIP3    H176324   0.959   0.343  16.586 -0.3287 -1.9076  1.8059
18303TIP3    H276325   0.998   0.209  16.528  3.0512 -0.0341 -0.6145
18304TIP3   OH276326   2.118   6.172   4.855 -0.0258 -0.0915  0.2179
18304TIP3    H176327   2.056   6.185   4.783 -1.2438 -0.0773  1.2221
18304TIP3    H276328   2.101   6.083   4.885  0.8741 -0.2975  0.1212
18305TIP3   OH276329   1.620   0.627   2.989  0.4516  0.0761  0.1097
18305TIP3    H176330   1.680   0.627   2.915  3.3708  1.2861  2.2899
18305TIP3    H276331   1.596   0.719   3.002  0.1400 -0.0878  0.7961
18306TIP3   OH276332   5.967   3.632   5.613 -0.7424 -0.0167  0.5178
18306TIP3    H176333   5.969   3.556   5.555  0.9092  1.4421 -1.4663
18306TIP3    H276334   5.913   3.604   5.687 -1.7427 -2.4459 -1.0181
18307TIP3   OH276335   4.896   0.784  15.433  0.0307 -0.2928 -0.1375
18307TIP3    H176336   4.812   0.748  15.406 -0.2487  0.9308 -0.9446
18307TIP3    H276337   4.879   0.877  15.446  1.6353  0.3112 -1.9949
18308TIP3   OH276338   6.638   4.243   2.069 -0.7229  0.1245 -0.2074
18308TIP3    H176339   6.581   4.172   2.097 -0.8398  0.6061  0.8120
18308TIP3    H276340   6.679   4.274   2.150 -1.1743  1.6538 -0.5325
18309TIP3   OH276341   1.911   2.733   4.248  0.0317  0.4184  0.4898
18309TIP3    H176342   1.912   2.821   4.285  1.0001  0.0477  1.4107
18309TIP3    H276343   1.991   2.728   4.195  0.3515 -0.1262  1.0114
18310TIP3   OH276344   0.020   3.231  16.007  0.1691 -0.2607  0.1789
18310TIP3    H176345  -0.015   3.142  16.013  1.3235 -0.8028 -0.5683
18310TIP3    H276346  -0.049   3.287  16.042 -1.1441 -1.3151 -0.6434
18311TIP3   OH276347   4.685   1.417   2.458 -0.2101 -0.6138 -0.0585
18311TIP3    H176348   4.746   1.358   2.414 -1.2245 -1.3434 -0.5192
18311TIP3    H276349   4.611   1.423   2.398 -0.2778  0.8725  0.1350
18312TIP3   OH276350   5.769   2.013  16.582 -0.2095 -0.1751 -0.1223
18312TIP3    H176351   5.736   2.098  16.554  2.5441  0.7856 -0.7456
18312TIP3    H276352   5.807   2.028  16.668 -0.0346 -0.8411 -0.0762
18313TIP3   OH276353   3.772   6.769  14.480  0.3972 -0.1627 -0.9202
18313TIP3    H176354   3.682   6.778  14.511  0.0844 -0.8705 -1.5572
18313TIP3    H276355   3.771   6.688  14.429  1.7897 -1.0762  0.4089
18314TIP3   OH276356   5.966   3.737   4.722 -0.0525  0.0960 -0.4881
18314TIP3    H176357   5.902   3.779   4.780  0.4863 -0.4662  0.5354
18314TIP3    H276358   5.914   3.705   4.648 -0.6117  1.6729 -0.8120
18315TIP3   OH276359   3.710   1.770   1.870 -0.5454  0.6209 -0.6530
18315TIP3    H176360   3.751   1.710   1.808 -0.9085  1.5832 -1.8668
18315TIP3    H276361   3.784   1.813   1.914 -0.2727  0.3464 -0.8386
18316TIP3   OH276362   4.954   6.640  12.769 -1.0078 -0.1430 -0.4872
18316TIP3    H176363   4.895   6.707  12.803 -0.0133 -0.0104  1.0739
18316TIP3    H276364   4.915   6.557  12.798  0.4553 -0.0022  2.2629
18317TIP3   OH276365   3.260   0.503  16.949  0.2206 -0.2349  0.3077
18317TIP3    H176366   3.287   0.449  16.875  0.7330  0.0859  0.2605
18317TIP3    H276367   3.186   0.455  16.987 -0.3010 -0.1945 -0.6428
18318TIP3   OH276368   1.823   5.974  14.492  0.0405 -0.1092  0.0287
18318TIP3    H176369   1.875   5.927  14.558 -0.9064 -0.8271  0.2745
18318TIP3    H276370   1.879   5.975  14.414  1.1844  0.7702  0.8252
18319TIP3   OH276371   5.860   6.780   1.432 -0.0007  0.4739  0.2515
18319TIP3    H176372   5.940   6.758   1.481  0.0627  0.6889  0.2459
18319TIP3    H276373   5.790   6.734   1.479 -0.0512  1.2889  1.0060
18320TIP3   OH276374   5.456   2.558   2.423 -0.1615  0.3447  0.2682
18320TIP3    H176375   5.529   2.618   2.434  1.4611 -1.5664  0.3956
18320TIP3    H276376   5.379   2.609   2.450  1.1578  2.2399  0.6360
18321TIP3   OH276377   3.951   3.298  11.355  0.2404  0.5285  0.5517
18321TIP3    H176378   3.949   3.373  11.413  0.3954  0.9290  0.0457
18321TIP3    H276379   3.935   3.334  11.268 -2.2462 -0.3186  0.5775
18322TIP3   OH276380   1.032   4.340   2.970  0.3195  0.1678 -0.2972
18322TIP3    H176381   0.994   4.382   2.892  1.1913 -1.0213 -1.3994
18322TIP3    H276382   1.088   4.407   3.008 -0.3494  0.8646 -0.5006
18323TIP3   OH276383   6.245   4.680  11.453 -0.8753 -0.0423  0.6685
18323TIP3    H176384   6.164   4.701  11.499 -1.2537 -1.7002  0.8300
18323TIP3    H276385   6.304   4.648  11.521 -0.2338  0.7205  0.4834
18324TIP3   OH276386   2.069   4.160   3.901  0.8076  0.0094 -0.4478
18324TIP3    H176387   2.011   4.165   3.824  1.2467  1.2140 -0.7220
18324TIP3    H276388   2.097   4.069   3.904 -0.1770 -0.3281 -0.9998
18325TIP3   OH276389   4.074   1.961   2.199 -0.2197  0.5933  0.4848
18325TIP3    H176390   4.028   2.010   2.268 -0.4642 -0.8295  1.3881
18325TIP3    H276391   4.007   1.944   2.133 -0.2566  1.0360  0.4070
18326TIP3   OH276392   2.739   3.947   0.534  0.0970 -0.0476  0.3244
18326TIP3    H176393   2.766   3.990   0.615 -1.5150  0.1826  0.7770
18326TIP3    H276394   2.730   3.855   0.558  1.2604 -0.2882 -0.0570
18327TIP3   OH276395   6.013   2.631   4.072 -0.1030 -0.3099  0.0617
18327TIP3    H176396   5.983   2.540   4.068 -0.0524 -0.2990 -0.6103
18327TIP3    H276397   5.932   2.682   4.085 -0.0601 -0.4911  1.1978
18328TIP3   OH276398   5.340   0.020   5.671 -0.6681  0.8051 -0.4878
18328TIP3    H176399   5.392  -0.019   5.601  3.3987  3.6373  0.5995
18328TIP3    H276400   5.390   0.004   5.751 -2.6726  1.7722  1.0762
18329TIP3   OH276401   1.237   6.663   1.938  0.2901  0.4319 -0.4445
18329TIP3    H176402   1.313   6.604   1.940 -1.3714 -1.8128 -0.1206
18329TIP3    H276403   1.205   6.663   2.028 -1.3820 -0.4486 -1.0106
18330TIP3   OH276404   5.496   3.349  16.732  0.0208 -0.6571 -0.3013
18330TIP3    H176405   5.586   3.323  16.750  0.4891 -0.5588 -2.3657
18330TIP3    H276406   5.459   3.276  16.682 -0.3391  0.2559 -1.4010
18331TIP3   OH276407   0.663   6.749   1.350  0.3258 -1.5560 -0.3914
18331TIP3    H176408   0.730   6.796   1.399 -0.2760 -2.1787  1.0594
18331TIP3    H276409   0.618   6.817   1.299  0.7164 -0.8481  0.1993
18332TIP3   OH276410   6.125   4.183  14.942 -0.0452 -0.5156 -0.1851
18332TIP3    H176411   6.041   4.143  14.965 -0.1714  0.1274  0.5248
18332TIP3    H276412   6.189   4.113  14.955 -0.3050 -0.6085  0.6554
18333TIP3   OH276413   3.590   3.527  15.930  0.0295 -1.2584  0.8187
18333TIP3    H176414   3.673   3.492  15.900 -0.0612 -0.4654 -0.4272
18333TIP3    H276415   3.584   3.613  15.889 -1.2882 -1.1978  1.0953
18334TIP3   OH276416   3.797   3.076   3.490 -0.3667 -0.4064  0.5753
18334TIP3    H176417   3.742   3.034   3.556 -1.7671  1.1148  0.4363
18334TIP3    H276418   3.765   3.166   3.486  0.0359 -0.3081 -1.8057
18335TIP3   OH276419   5.680   5.472  14.475  0.2348  0.6145  0.6713
18335TIP3    H176420   5.600   5.440  14.516  1.2497 -0.5695  1.8110
18335TIP3    H276421   5.704   5.404  14.412 -0.5131  1.7410 -0.8952
18336TIP3   OH276422   2.595   5.272  12.290  0.5210  0.4110  0.4100
18336TIP3    H176423   2.619   5.203  12.351  0.0385  0.9626  1.2401
18336TIP3    H276424   2.670   5.332  12.291  1.2265 -0.4156 -0.8132
18337TIP3   OH276425   6.263   6.151   5.816 -0.4144  0.6193 -0.5581
18337TIP3    H176426   6.188   6.162   5.757 -0.1562  1.3718 -0.7596
18337TIP3    H276427   6.317   6.084   5.773 -1.5926 -0.8953  0.2471
18338TIP3   OH276428   0.995   6.474  15.270 -0.0070 -0.4500  0.6505
18338TIP3    H176429   1.081   6.470  15.312 -0.3713 -0.5050  1.4076
18338TIP3    H276430   1.014   6.470  15.176  0.8441  0.1026  0.7923
18339TIP3   OH276431   3.948   5.637  13.142  0.3038 -0.4521  0.0927
18339TIP3    H176432   4.031   5.595  13.119  0.8401 -0.1394  1.3784
18339TIP3    H276433   3.882   5.569  13.127  0.9108 -1.0487  0.0709
18340TIP3   OH276434   2.583   3.520   3.983 -0.3954  0.3070  0.1453
18340TIP3    H176435   2.603   3.612   3.966 -0.5008  0.5816  1.4157
18340TIP3    H276436   2.667   3.475   3.977 -0.4714  0.3146 -1.3874
18341TIP3   OH276437   0.962   4.402   0.789 -0.2661 -0.0379  0.2788
18341TIP3    H176438   1.028   4.334   0.806  0.2537  0.5691  0.7413
18341TIP3    H276439   0.917   4.372   0.710  1.6685  0.3370 -1.0513
18342TIP3   OH276440   0.099   5.047   3.925 -0.3638  0.3088 -0.3583
18342TIP3    H176441   0.076   4.979   3.988 -1.0255  1.8889  1.1604
18342TIP3    H276442   0.016   5.086   3.899  0.0341  0.7882 -0.9564
18343TIP3   OH276443   3.873   2.388   2.374 -0.2488  0.2674  0.0255
18343TIP3    H176444   3.869   2.479   2.345  0.5085 -0.0278 -1.0795
18343TIP3    H276445   3.782   2.365   2.394 -0.3145  1.6192  1.5529
18344TIP3   OH276446   5.846   0.375  12.630  0.3723  0.2273  0.1777
18344TIP3    H176447   5.917   0.427  12.591  0.7175 -1.4835 -1.6116
18344TIP3    H276448   5.884   0.288  12.642 -0.4360  0.0974  2.3720
18345TIP3   OH276449   6.555   4.046   3.641 -0.3487 -0.4552  0.0147
18345TIP3    H176450   6.650   4.041   3.628 -0.6247 -0.8483 -2.3497
18345TIP3    H276451   6.537   3.983   3.710  1.1864  0.2137  1.0713
18346TIP3   OH276452   0.437   6.134  16.130  0.0746 -0.0104  0.1842
18346TIP3    H176453   0.394   6.181  16.058  1.2373  0.8118 -0.0188
18346TIP3    H276454   0.423   6.191  16.206 -0.6107 -0.5667  0.4808
18347TIP3   OH276455   2.054   4.828  11.964 -0.2208  0.1326 -0.3922
18347TIP3    H176456   2.073   4.827  11.870 -0.3868 -1.4904 -0.4232
18347TIP3    H276457   2.088   4.913  11.993 -1.2761  1.2157 -2.1252
18348TIP3   OH276458   4.040   5.209  11.556 -0.5093  1.0593  0.3211
18348TIP3    H176459   4.131   5.208  11.586 -0.9603 -0.0652  1.7757
18348TIP3    H276460   3.988   5.215  11.636 -1.7427  0.2183 -0.3801
18349TIP3   OH276461   1.850   1.606  16.451  0.3425 -0.5991  0.0947
18349TIP3    H176462   1.839   1.700  16.436 -2.0732 -0.7158  0.7238
18349TIP3    H276463   1.867   1.569  16.364  0.6367  0.3357 -0.2561
18350TIP3   OH276464   1.692   5.401   0.613 -0.0932 -0.6322  0.2428
18350TIP3    H176465   1.611   5.372   0.654 -1.5516  1.8971 -0.6130
18350TIP3    H276466   1.681   5.495   0.603  2.2265 -0.4665 -1.5224
18351TIP3   OH276467   3.763   4.575   0.247 -0.2159 -0.5305 -0.1883
18351TIP3    H176468   3.676   4.583   0.287 -0.6597 -0.9452 -1.0363
18351TIP3    H276469   3.811   4.518   0.306  0.2140  1.4080  1.4354
18352TIP3   OH276470   1.961   4.246  16.287  0.3913 -0.1459  0.5340
18352TIP3    H176471   1.957   4.307  16.214  0.5470  0.7623  1.2571
18352TIP3    H276472   2.012   4.293  16.354  1.5322 -1.5355  0.6813
18353TIP3   OH276473   0.506   4.454   0.403 -0.0779 -0.3998  0.3770
18353TIP3    H176474   0.539   4.365   0.414  0.5634 -0.4400 -1.5538
18353TIP3    H276475   0.417   4.443   0.369 -0.4106 -0.2874  1.1894
18354TIP3   OH276476   5.930   5.900  10.616 -0.3328 -0.2019  0.3268
18354TIP3    H176477   5.989   5.957  10.567 -0.3661 -0.1116  0.3911
18354TIP3    H276478   5.986   5.828  10.645 -0.7436 -1.3741 -1.6414
18355TIP3   OH276479   5.592   0.775   4.265  0.4305 -0.2891 -0.0594
18355TIP3    H176480   5.571   0.683   4.247 -1.5903  0.4010 -1.6379
18355TIP3    H276481   5.597   0.781   4.360  1.8612 -2.2582  0.0457
18356TIP3   OH276482   4.147   3.575  12.924  0.2959 -0.7735 -0.3719
18356TIP3    H176483   4.216   3.517  12.891  0.9542 -0.5501  0.5575
18356TIP3    H276484   4.089   3.519  12.974 -0.5780 -1.0742 -1.6759
18357TIP3   OH276485   1.874   5.784  14.073  0.4062  0.4056  0.0976
18357TIP3    H176486   1.909   5.871  14.089 -0.0878  0.8026 -0.8887
18357TIP3    H276487   1.803   5.774  14.137  2.0487 -0.2819  1.8893
18358TIP3   OH276488   3.189   1.566  14.438  0.2436  0.1071 -0.0705
18358TIP3    H176489   3.148   1.538  14.356  2.8476  2.0347 -2.2021
18358TIP3    H276490   3.135   1.639  14.467 -0.4808 -0.3420 -0.2350
18359TIP3   OH276491   0.642   5.805   5.029  0.3878 -0.1644  0.8046
18359TIP3    H176492   0.549   5.797   5.008  0.8529 -1.3755 -0.9465
18359TIP3    H276493   0.658   5.899   5.030 -0.1924  0.0702 -2.2199
18360TIP3   OH276494   5.010   2.213   4.506 -0.0673 -0.6112 -0.1556
18360TIP3    H176495   5.068   2.254   4.571 -0.5992 -1.0689  0.6258
18360TIP3    H276496   5.026   2.262   4.425 -0.3191  0.8205  0.6195
18361TIP3   OH276497   1.220   0.827   2.027  0.1124  0.2893  0.2982
18361TIP3    H176498   1.177   0.912   2.025  2.8280  1.8130  1.4583
18361TIP3    H276499   1.225   0.804   2.120  1.5641  0.1014  0.1984
18362TIP3   OH276500   1.927   3.988   1.162  0.4294 -0.1352 -0.3940
18362TIP3    H176501   1.896   3.981   1.253  0.6193  1.5879 -0.1726
18362TIP3    H276502   2.002   3.929   1.158  1.0888  0.5836  0.8840
18363TIP3   OH276503   5.781   0.541   4.144  0.1770 -0.1606  0.6268
18363TIP3    H176504   5.740   0.596   4.078 -0.6500 -1.0442  0.3787
18363TIP3    H276505   5.822   0.470   4.094  1.4342  0.3357  0.9183
18364TIP3   OH276506   1.991   3.580  11.187 -0.4201  0.3265 -0.4696
18364TIP3    H176507   1.980   3.613  11.097 -2.6142 -0.7178 -0.6367
18364TIP3    H276508   1.989   3.659  11.242  0.3351  0.9251 -1.2617
18365TIP3   OH276509   4.090   3.623  13.445 -0.0068 -0.0106  0.3065
18365TIP3    H176510   4.184   3.625  13.429 -0.4217 -0.4158 -2.8052
18365TIP3    H276511   4.053   3.681  13.379 -2.1757 -3.5331 -1.9368
18366TIP3   OH276512   2.657   3.440   0.091 -0.0659  0.8070 -0.4496
18366TIP3    H176513   2.643   3.408   0.001 -1.8092  1.1274 -0.3317
18366TIP3    H276514   2.677   3.532   0.081  1.2549  0.5208 -0.5774
18367TIP3   OH276515   6.076   2.873   4.681 -0.3365 -0.0630 -0.4600
18367TIP3    H176516   5.980   2.872   4.686 -0.2970  0.4266  4.3604
18367TIP3    H276517   6.099   2.965   4.686  0.4900 -0.1351 -2.1826
18368TIP3   OH276518   2.542   0.432   1.702  0.5443 -0.7566 -0.0854
18368TIP3    H176519   2.623   0.386   1.683  0.6100 -0.1593 -1.3410
18368TIP3    H276520   2.498   0.440   1.618 -0.2840 -0.0743  0.3921
18369TIP3   OH276521   2.046   2.090  13.034 -0.2004 -0.6780 -0.2485
18369TIP3    H176522   1.996   2.016  12.999  0.7743 -1.5020  0.0329
18369TIP3    H276523   2.129   2.087  12.986  0.4642 -0.7391  0.8636
18370TIP3   OH276524   0.351   3.277  12.302 -0.1590 -0.0737  0.3039
18370TIP3    H176525   0.397   3.263  12.219  0.5747  1.7204  0.3746
18370TIP3    H276526   0.362   3.370  12.320 -1.7610 -0.0983  1.5747
18371TIP3   OH276527   5.681   6.376  13.594  0.2609  0.1850 -0.3745
18371TIP3    H176528   5.629   6.356  13.671  0.9027  1.5600  0.4719
18371TIP3    H276529   5.622   6.363  13.520 -1.1672  1.2405  0.5179
18372TIP3   OH276530   3.340   6.209   0.621  0.1089 -0.2657  0.8124
18372TIP3    H176531   3.402   6.230   0.691 -1.0813  1.7172  1.3409
18372TIP3    H276532   3.368   6.265   0.548  0.2784 -1.0303  0.2826
18373TIP3   OH276533   4.703   6.528  13.570  0.4504 -0.8616  0.3345
18373TIP3    H176534   4.662   6.614  13.581 -0.0015 -1.1301  0.8361
18373TIP3    H276535   4.690   6.485  13.655  2.3751 -0.7222  0.7355
18374TIP3   OH276536   4.417   2.106  17.054  1.1559  0.5138  0.6844
18374TIP3    H176537   4.432   2.012  17.046  0.3753  0.4681 -0.7042
18374TIP3    H276538   4.437   2.141  16.967  0.5576  1.4917  0.9166
18375TIP3   OH276539   2.304   6.009  13.402  0.2963  0.3162 -0.1175
18375TIP3    H176540   2.284   5.985  13.311 -1.8694 -1.6840  0.7750
18375TIP3    H276541   2.372   5.947  13.428 -0.3275 -0.2938  0.1039
18376TIP3   OH276542   3.596   4.440  13.259  0.2816  0.0272  0.1418
18376TIP3    H176543   3.534   4.370  13.275 -0.1008  0.4480  0.5354
18376TIP3    H276544   3.635   4.458  13.345  0.2482  0.4085  0.0812
18377TIP3   OH276545   6.502   1.162   2.136  0.0908 -0.6720  0.2243
18377TIP3    H176546   6.463   1.075   2.142 -1.4613  0.0451  1.1474
18377TIP3    H276547   6.517   1.189   2.226  1.9290 -0.5351 -0.0840
18378TIP3   OH276548   1.290   4.737  16.538  0.1721  0.1204 -0.0064
18378TIP3    H176549   1.273   4.654  16.581  2.0905  0.1464  0.9085
18378TIP3    H276550   1.277   4.719  16.445  0.9605 -1.3237  0.1364
18379TIP3   OH276551   5.753   1.447  14.184 -0.2183 -0.1971 -0.0937
18379TIP3    H176552   5.828   1.395  14.157 -0.4849 -0.7381  0.2058
18379TIP3    H276553   5.704   1.463  14.104 -0.9527 -1.7109  0.0358
18380TIP3   OH276554   0.696   6.717   6.161 -0.2821 -0.0443 -0.0595
18380TIP3    H176555   0.620   6.742   6.109 -0.3353  1.2465  0.5941
18380TIP3    H276556   0.694   6.621   6.163 -2.7823 -0.0256  1.2549
18381TIP3   OH276557   5.991   0.707  16.995 -1.0122 -0.1268 -0.3681
18381TIP3    H176558   6.031   0.734  17.078 -1.5472  0.1198 -0.1874
18381TIP3    H276559   6.012   0.614  16.987  1.5394  0.4534 -1.3803
18382TIP3   OH276560   6.170   2.482  11.665 -0.0040 -0.1003 -0.2170
18382TIP3    H176561   6.211   2.454  11.583 -0.9914 -1.7203 -0.2233
18382TIP3    H276562   6.238   2.529  11.712  0.7082  0.5044 -1.7794
18383TIP3   OH276563   0.972   1.692  14.273  0.0267  0.0977  0.4666
18383TIP3    H176564   1.016   1.623  14.322  1.8464  0.2468 -0.8361
18383TIP3    H276565   0.881   1.663  14.268 -0.1382 -0.1655  3.3703
18384TIP3   OH276566   4.570   0.507   3.985  0.4781  0.4727  0.1268
18384TIP3    H176567   4.624   0.438   3.948  1.9027  1.6291 -0.0291
18384TIP3    H276568   4.524   0.545   3.910  0.9182  0.7295 -0.0143
18385TIP3   OH276569   4.198   5.521  13.060  0.2520 -0.4310 -0.0177
18385TIP3    H176570   4.206   5.503  12.966 -1.6824 -1.4097 -0.0627
18385TIP3    H276571   4.264   5.588  13.078  0.2709  0.2165 -2.2007
18386TIP3   OH276572   1.764   6.467  14.855  0.1680 -0.1601  0.2858
18386TIP3    H176573   1.696   6.516  14.902  1.3536 -0.0158  1.9666
18386TIP3    H276574   1.727   6.451  14.769 -1.0521  1.9972  0.3328
18387TIP3   OH276575   2.800   4.426   6.373  0.5713 -0.0324 -0.0176
18387TIP3    H176576   2.783   4.336   6.344  0.1760  0.6355 -1.9613
18387TIP3    H276577   2.880   4.452   6.328  0.4251  0.7601  0.1568
18388TIP3   OH276578   2.782   1.684  16.150  0.0278 -0.0700  0.0111
18388TIP3    H176579   2.800   1.608  16.206  0.1425  1.1711  1.7108
18388TIP3    H276580   2.687   1.682  16.138  0.2232 -1.6886 -1.8068
18389TIP3   OH276581   3.027   1.467   5.217 -0.1808 -0.4800 -0.9065
18389TIP3    H176582   3.109   1.421   5.200 -0.5484 -1.4529 -0.1195
18389TIP3    H276583   3.049   1.532   5.284 -0.3940 -1.9039  0.5931
18390TIP3   OH276584   2.658   5.819  16.486  0.3261  0.0167 -0.3494
18390TIP3    H176585   2.579   5.846  16.438 -0.5392 -0.0932  0.9661
18390TIP3    H276586   2.724   5.882  16.459 -0.5514  0.9021 -0.5075
18391TIP3   OH276587   0.836   4.294   0.578  0.2512 -0.2721  0.1704
18391TIP3    H176588   0.830   4.323   0.487  2.0709  0.7955  0.3449
18391TIP3    H276589   0.880   4.209   0.573  2.3348  0.7534  0.1360
18392TIP3   OH276590   6.097   3.252   0.463  0.4175  0.0916  0.3276
18392TIP3    H176591   6.019   3.307   0.467 -0.0411 -0.5106 -0.0830
18392TIP3    H276592   6.163   3.307   0.422  0.4360  0.8607  1.3607
18393TIP3   OH276593   0.510   2.433   3.784 -0.2904  0.1504 -0.7755
18393TIP3    H176594   0.526   2.484   3.704 -0.0172 -0.4055 -1.0824
18393TIP3    H276595   0.596   2.422   3.823 -0.0700 -1.6378 -1.6836
18394TIP3   OH276596   5.430   1.507  15.444 -0.0248 -0.5426  0.2633
18394TIP3    H176597   5.492   1.434  15.438 -1.6968 -1.9513 -0.7460
18394TIP3    H276598   5.418   1.521  15.538  1.5972 -0.4025  0.4742
18395TIP3   OH276599   3.773   1.584   1.299 -0.3161  0.1951 -0.2929
18395TIP3    H176600   3.810   1.646   1.236  1.4366  0.4304  0.8935
18395TIP3    H276601   3.834   1.510   1.298 -0.8594 -0.2664  0.3259
18396TIP3   OH276602   3.583   3.454   2.533 -0.4908  0.5056  0.6681
18396TIP3    H176603   3.637   3.523   2.494 -1.7598  1.4484  0.5488
18396TIP3    H276604   3.511   3.500   2.575 -2.0969 -0.7878 -0.5412
18397TIP3   OH276605   6.302   4.792  12.798 -0.6207  0.3739 -0.4819
18397TIP3    H176606   6.371   4.840  12.754  1.5047 -2.1284 -0.1309
18397TIP3    H276607   6.254   4.748  12.727 -0.7333  0.7313 -0.6254
18398TIP3   OH276608   2.026   0.026  11.649 -0.1133 -0.5692 -0.4778
18398TIP3    H176609   1.968   0.093  11.614 -0.0483 -0.0752  0.3372
18398TIP3    H276610   2.091   0.074  11.700  0.9932 -1.1104 -1.3167
18399TIP3   OH276611   6.440   5.449  12.074 -0.3645  0.0831 -0.0500
18399TIP3    H176612   6.523   5.419  12.110 -1.6980 -1.4569  1.9681
18399TIP3    H276613   6.448   5.434  11.980  1.8812  0.6919 -0.0024
18400TIP3   OH276614   4.446   1.585  15.147  0.3079 -0.7140  0.4523
18400TIP3    H176615   4.463   1.539  15.230 -1.3281 -3.0047 -0.3931
18400TIP3    H276616   4.405   1.520  15.091  1.0241  0.8709 -2.0937
18401TIP3   OH276617   2.679   2.589  12.617 -0.5808 -0.1544 -0.5018
18401TIP3    H176618   2.717   2.544  12.541  1.1764  1.0597 -0.3861
18401TIP3    H276619   2.597   2.626  12.583  0.0743  0.1987 -1.7965
18402TIP3   OH276620   2.679   0.882   2.727  0.4270 -0.0520 -0.0447
18402TIP3    H176621   2.738   0.807   2.722  2.1923  1.3583 -1.8644
18402TIP3    H276622   2.591   0.844   2.716  1.1765 -1.9155  0.0271
18403TIP3   OH276623   4.723   6.560   4.810 -0.2659 -0.4537 -0.5997
18403TIP3    H176624   4.694   6.534   4.723 -3.7765 -0.5589  0.4708
18403TIP3    H276625   4.818   6.546   4.809 -0.1018 -0.0551 -4.4849
18404TIP3   OH276626   5.680   6.481  11.286 -0.4484 -0.0093  0.4201
18404TIP3    H176627   5.687   6.551  11.222  1.0956  0.4116  0.9863
18404TIP3    H276628   5.656   6.403  11.236  1.3499  0.1675 -0.8138
18405TIP3   OH276629   6.040   5.278  13.626 -0.0022  0.3525  0.1484
18405TIP3    H176630   5.958   5.241  13.660  0.0006 -0.4397 -0.6619
18405TIP3    H276631   6.048   5.240  13.538  2.6070 -1.7711  1.1855
18406TIP3   OH276632   5.360   6.098  12.376  0.0250 -0.5778  0.0818
18406TIP3    H176633   5.355   6.038  12.301 -0.9414  0.6295 -0.8444
18406TIP3    H276634   5.276   6.143  12.376  0.2154 -0.1910  1.6067
18407TIP3   OH276635   5.873   4.698  11.307 -0.4697 -0.4751  0.1816
18407TIP3    H176636   5.914   4.783  11.322  1.4413 -1.1823 -0.7521
18407TIP3    H276637   5.843   4.700  11.216 -1.3984 -0.4464  0.4693
18408TIP3   OH276638   3.836   1.410  16.152 -0.1821 -0.7142  0.7396
18408TIP3    H176639   3.912   1.421  16.095  0.4342 -1.2905  1.4295
18408TIP3    H276640   3.852   1.470  16.225  1.9239 -3.9706  3.2144
18409TIP3   OH276641   4.044   1.689   0.649  0.4344 -0.5019 -0.3751
18409TIP3    H176642   4.087   1.695   0.734 -0.5082  1.9983  0.0077
18409TIP3    H276643   4.104   1.733   0.588  0.1658 -0.4361 -0.5945
18410TIP3   OH276644   3.950   1.864   3.471 -0.1018  0.7353 -0.1836
18410TIP3    H176645   4.000   1.784   3.488 -2.4659 -1.0335 -0.9166
18410TIP3    H276646   3.985   1.897   3.388  1.0840  0.6300  0.2622
18411TIP3   OH276647   4.737   5.502  11.422 -0.5467 -0.2361  0.0741
18411TIP3    H176648   4.772   5.590  11.436  0.3384 -0.8798  2.2872
18411TIP3    H276649   4.801   5.460  11.364  1.6966 -0.8950  2.8378
18412TIP3   OH276650   4.244   2.552  11.591  0.1122  0.0265  1.0421
18412TIP3    H176651   4.233   2.465  11.552 -2.6991  0.5335  0.4737
18412TIP3    H276652   4.158   2.572  11.628  0.0694  3.3223 -0.5239
18413TIP3   OH276653   5.124   3.452  16.928 -0.4105  0.0872 -0.0520
18413TIP3    H176654   5.192   3.385  16.935 -0.8480 -0.2486  1.3403
18413TIP3    H276655   5.070   3.439  17.005 -2.0342  0.3929 -1.0965
18414TIP3   OH276656   1.958   6.631   1.005 -0.1391  0.0248 -0.2297
18414TIP3    H176657   1.892   6.701   1.005 -0.9447 -0.6768  1.5199
18414TIP3    H276658   2.038   6.673   1.037  0.6216  1.0958 -3.1926
18415TIP3   OH276659   2.824   5.845  15.842  0.5272  0.7481 -0.2283
18415TIP3    H176660   2.857   5.861  15.931  1.0389 -1.2145 -0.0115
18415TIP3    H276661   2.729   5.836  15.853  0.8046 -2.2882  0.6900
18416TIP3   OH276662   3.571   5.439  15.281  0.3463  0.0057  0.3706
18416TIP3    H176663   3.475   5.433  15.281  0.2607  0.7250 -1.1762
18416TIP3    H276664   3.600   5.348  15.272 -0.2145 -0.1590  0.1574
18417TIP3   OH276665   3.436   3.499   5.100  0.2466  0.0648  0.0008
18417TIP3    H176666   3.518   3.472   5.141 -0.0069  0.4646  0.7965
18417TIP3    H276667   3.437   3.458   5.014  1.6950  0.7991 -0.3529
18418TIP3   OH276668   3.962   2.377   0.689 -0.2214  0.1764  0.0208
18418TIP3    H176669   3.997   2.311   0.630 -0.3792  0.3341 -0.2563
18418TIP3    H276670   4.002   2.459   0.660  1.6033 -0.0668  1.6774
18419TIP3   OH276671   3.598   0.536   0.835 -0.0283 -0.1938 -0.4211
18419TIP3    H176672   3.672   0.596   0.842 -1.8958  2.2829 -0.5464
18419TIP3    H276673   3.567   0.546   0.745  0.3482 -2.3570 -0.8377
18420TIP3   OH276674   3.092   3.856  12.194  0.2434  0.3014 -0.1572
18420TIP3    H176675   3.017   3.896  12.151 -0.3325  0.7492  1.2176
18420TIP3    H276676   3.111   3.779  12.141 -1.8437 -0.4153  0.0521
18421TIP3   OH276677   1.943   2.614  16.719 -0.3198 -0.0506  0.3548
18421TIP3    H176678   1.931   2.544  16.783 -1.7521  0.2667  0.4760
18421TIP3    H276679   1.904   2.580  16.638  0.7162 -0.1229 -0.1279
18422TIP3   OH276680   4.370   2.917   2.082  0.2802  0.3457  0.8359
18422TIP3    H176681   4.465   2.907   2.086  0.3591 -0.3576 -1.2885
18422TIP3    H276682   4.335   2.838   2.123  0.6326  0.2269  0.9051
18423TIP3   OH276683   1.514   2.126   5.784  0.1242 -0.0759  0.6059
18423TIP3    H176684   1.439   2.176   5.751  0.1065  0.3833  1.3325
18423TIP3    H276685   1.537   2.169   5.867  0.6291 -0.7635  0.8260
18424TIP3   OH276686   4.402   2.982   4.216  0.1678 -0.7334  0.4777
18424TIP3    H176687   4.312   2.999   4.245  1.1769  1.0568  2.9413
18424TIP3    H276688   4.398   2.991   4.121 -2.3192 -1.1980  0.4593
18425TIP3   OH276689   1.062   2.729   3.127  0.4870 -0.2592 -0.5157
18425TIP3    H176690   1.031   2.653   3.078  1.1031 -0.6213 -0.3565
18425TIP3    H276691   0.997   2.740   3.196  0.2838 -0.5119 -0.6599
18426TIP3   OH276692   4.416   3.788   3.199 -0.0529 -0.0143  0.5351
18426TIP3    H176693   4.325   3.804   3.225 -0.9320 -1.0909 -1.5924
18426TIP3    H276694   4.446   3.872   3.165 -0.5305  0.1459  0.5005
18427TIP3   OH276695   0.752   0.128  16.600 -0.5202  0.0079  0.2586
18427TIP3    H176696   0.730   0.120  16.693 -1.4019 -1.3270 -0.0400
18427TIP3    H276697   0.807   0.051  16.582 -0.6444  0.0694 -0.3952
18428TIP3   OH276698   6.314   1.338   3.365  0.0193 -0.2899 -0.3405
18428TIP3    H176699   6.280   1.335   3.454 -1.2398  0.5616 -0.7515
18428TIP3    H276700   6.388   1.278   3.365  0.4437  0.1780  1.4330
18429TIP3   OH276701   1.868   3.336  13.379  0.4230 -0.4102 -0.2756
18429TIP3    H176702   1.775   3.335  13.405  1.0349 -3.5869  2.5619
18429TIP3    H276703   1.879   3.256  13.328  1.7980 -0.7926  0.5562
18430TIP3   OH276704   2.571   2.829   4.680  0.6144  0.3133  0.6668
18430TIP3    H176705   2.563   2.918   4.646  1.1772  0.2476  0.3444
18430TIP3    H276706   2.483   2.805   4.707  0.0448  0.2330 -1.1338
18431TIP3   OH276707   0.128   6.232   3.113 -0.3724  0.2627  0.0134
18431TIP3    H176708   0.055   6.228   3.051  0.8247 -0.5529 -1.3970
18431TIP3    H276709   0.206   6.233   3.058  0.7823 -1.5565  1.5031
18432TIP3   OH276710   0.562   5.935  15.953  0.4310 -0.2216  0.3331
18432TIP3    H176711   0.545   6.011  16.009  1.3974 -1.2836  2.2106
18432TIP3    H276712   0.500   5.944  15.881 -0.9305  1.2441  1.5781
18433TIP3   OH276713   3.859   2.040  14.131  0.1971  0.6639  0.4817
18433TIP3    H176714   3.796   1.969  14.143  0.1694  0.7579  0.9019
18433TIP3    H276715   3.867   2.048  14.036 -0.4968  0.7223  0.4214
18434TIP3   OH276716   3.877   2.693   1.100 -0.3491 -0.5262 -0.0139
18434TIP3    H176717   3.888   2.686   1.195  1.1120 -1.0084 -0.1804
18434TIP3    H276718   3.964   2.717   1.068 -0.3014 -2.2871 -1.3826
18435TIP3   OH276719   3.742   5.247  12.402 -0.1631 -0.5518  0.2972
18435TIP3    H176720   3.657   5.212  12.427 -1.3459  2.7398  1.4946
18435TIP3    H276721   3.722   5.320  12.343  1.9138 -0.3590 -0.2744
18436TIP3   OH276722   4.883   5.076  13.650  0.1894 -0.5958  0.0745
18436TIP3    H176723   4.843   5.035  13.727 -0.6608 -0.5757 -0.3412
18436TIP3    H276724   4.814   5.131  13.614  0.0303 -1.8102 -1.5990
18437TIP3   OH276725   5.613   4.294  11.875 -0.4235 -0.1314  0.3596
18437TIP3    H176726   5.704   4.283  11.848 -0.4595 -0.9676  0.5415
18437TIP3    H276727   5.563   4.286  11.794 -0.3556  0.0333  0.3009
18438TIP3   OH276728   3.055   6.368   0.182 -0.0642  0.5923 -0.0335
18438TIP3    H176729   3.045   6.320   0.264  0.3458 -0.8913 -0.8170
18438TIP3    H276730   2.978   6.345   0.130  0.1449  0.7559 -0.4295
18439TIP3   OH276731   0.378   5.953  15.755 -0.1856  0.3580 -0.4438
18439TIP3    H176732   0.412   5.995  15.676 -1.3925  1.5153 -0.3726
18439TIP3    H276733   0.293   5.917  15.729 -0.3791  0.3321  0.2022
18440TIP3   OH276734   3.486   6.710  15.129 -0.1444  0.0139 -0.7874
18440TIP3    H176735   3.493   6.784  15.189  3.5762 -0.0182 -0.9908
18440TIP3    H276736   3.440   6.745  15.053 -2.8028  0.6819  0.9670
18441TIP3   OH276737   6.280   2.731   4.598 -0.6166  0.5227 -0.2037
18441TIP3    H176738   6.195   2.775   4.608  0.3615  2.7901 -1.2607
18441TIP3    H276739   6.327   2.752   4.679 -0.5031  0.5895 -0.2876
18442TIP3   OH276740   3.746   4.524  13.507 -0.1598  0.2107  0.0183
18442TIP3    H176741   3.710   4.505  13.594  1.3238  1.6702  1.0007
18442TIP3    H276742   3.710   4.610  13.484  0.7614  0.5922 -0.0505
18443TIP3   OH276743   2.011   1.470   3.296  0.1382 -0.0665 -0.4472
18443TIP3    H176744   2.074   1.435   3.359 -3.1596 -1.1121  2.6015
18443TIP3    H276745   1.988   1.396   3.240  2.1406  0.5477 -2.1885
18444TIP3   OH276746   2.692   3.088   1.555  0.2000 -0.2333  0.2915
18444TIP3    H176747   2.693   3.183   1.543 -1.2088 -0.3317 -0.8155
18444TIP3    H276748   2.647   3.054   1.477  0.5942 -1.8022  0.7143
18445TIP3   OH276749   5.499   3.092  12.799 -0.4267  0.3957 -0.1834
18445TIP3    H176750   5.572   3.089  12.860 -0.0125  0.8931 -0.6427
18445TIP3    H276751   5.540   3.082  12.713 -0.9438  0.2494 -0.4152
18446TIP3   OH276752   1.015   2.019  14.039  0.1160 -0.1593  0.2929
18446TIP3    H176753   1.070   1.942  14.055  0.0104  0.2281  2.9895
18446TIP3    H276754   1.051   2.058  13.960  1.7122 -1.6573  0.2178
18447TIP3   OH276755   2.209   0.453  14.186  0.3464 -0.3922  0.1628
18447TIP3    H176756   2.280   0.516  14.195  0.5171 -0.7259  1.3238
18447TIP3    H276757   2.133   0.497  14.224  0.3896 -0.7561  0.6790
18448TIP3   OH276758   4.466   6.236  17.017  0.2322 -0.4445 -0.1231
18448TIP3    H176759   4.549   6.212  16.977  0.0976 -0.9109 -0.1207
18448TIP3    H276760   4.479   6.223  17.111  0.5446  0.6401  0.0060
18449TIP3   OH276761   3.788   1.951   0.193  0.0557  0.2996  0.0936
18449TIP3    H176762   3.693   1.944   0.190 -0.2136  2.3529  1.7692
18449TIP3    H276763   3.818   1.868   0.229 -1.2070  0.0812  0.6614
18450TIP3   OH276764   6.169   2.717  15.685 -0.2748  0.2868  0.5192
18450TIP3    H176765   6.201   2.792  15.636  1.2637 -2.0893 -2.4159
18450TIP3    H276766   6.230   2.708  15.758  3.4850 -1.5118 -2.4971
18451TIP3   OH276767   0.640   3.704  14.044  0.0264 -0.0019 -0.1186
18451TIP3    H176768   0.721   3.683  14.090 -0.1623 -1.3218 -0.3444
18451TIP3    H276769   0.662   3.698  13.951  0.2177  1.9197 -0.2412
18452TIP3   OH276770   5.996   2.853  15.891  0.3709 -0.1148 -0.3604
18452TIP3    H176771   6.012   2.815  15.977  1.7980 -1.0641 -1.0070
18452TIP3    H276772   5.984   2.778  15.833  0.4670  0.4728 -1.1667
18453TIP3   OH276773   3.414   5.597  16.092 -0.3400 -0.3474 -0.1010
18453TIP3    H176774   3.340   5.653  16.117  0.6609  1.2719 -0.5961
18453TIP3    H276775   3.482   5.659  16.064  0.4204 -1.8713 -1.8023
18454TIP3   OH276776   3.794   1.765   3.754  0.2248  0.4365  0.2551
18454TIP3    H176777   3.889   1.769   3.755  0.2611 -0.1510 -0.0354
18454TIP3    H276778   3.767   1.807   3.836  0.8325 -1.3825  1.4627
18455TIP3   OH276779   2.198   3.193   4.696 -0.1192 -0.2257  0.4379
18455TIP3    H176780   2.130   3.256   4.718 -0.4402 -0.6031  0.5461
18455TIP3    H276781   2.233   3.165   4.780 -1.2782 -1.5945  0.5005
18456TIP3   OH276782   2.292   6.662   5.390  0.3803  0.4494 -0.4895
18456TIP3    H176783   2.257   6.618   5.313  2.2364  0.4648 -1.3891
18456TIP3    H276784   2.245   6.745   5.394 -1.9613 -0.8256  0.2558
18457TIP3   OH276785   0.189   6.535   0.985 -0.0574 -0.0498 -0.2795
18457TIP3    H176786   0.117   6.586   1.024  0.3044  0.2569 -0.0013
18457TIP3    H276787   0.238   6.599   0.934 -1.0963 -0.6316 -2.0986
18458TIP3   OH276788   3.465   4.070   5.312  0.1172  0.3055 -0.2336
18458TIP3    H176789   3.467   4.077   5.216  0.1324 -0.0667 -0.2603
18458TIP3    H276790   3.507   3.986   5.331  0.4335  0.5390  0.1203
18459TIP3   OH276791   5.613   0.630  16.343  0.2726 -0.1401 -0.4092
18459TIP3    H176792   5.649   0.548  16.308 -1.2259 -0.7154 -0.6743
18459TIP3    H276793   5.559   0.602  16.417 -1.6803  0.3665 -1.5695
18460TIP3   OH276794   6.136   2.850  12.576  0.0505 -0.8174 -0.3595
18460TIP3    H176795   6.083   2.812  12.506 -1.4654 -0.3542  0.4887
18460TIP3    H276796   6.076   2.908  12.623  1.9028  1.5518 -0.7280
18461TIP3   OH276797   2.764   2.596  14.642 -0.2576  0.0669  0.3763
18461TIP3    H176798   2.762   2.656  14.717 -0.1522  1.6007 -0.7975
18461TIP3    H276799   2.833   2.631  14.585 -0.7960 -0.6535 -0.7662
18462TIP3   OH276800   2.662   1.110  15.666  0.0378  0.0360 -0.7510
18462TIP3    H176801   2.676   1.091  15.759 -2.3028  1.3765 -0.0269
18462TIP3    H276802   2.567   1.098  15.655 -0.3101  3.1786 -2.1027
18463TIP3   OH276803   5.343   4.058  14.213 -0.2327  0.1671  0.3895
18463TIP3    H176804   5.374   4.066  14.123 -1.3290 -0.1091 -0.0340
18463TIP3    H276805   5.415   4.015  14.260 -0.0530 -0.6376 -0.5955
18464TIP3   OH276806   2.108   3.906   3.620 -0.0252 -0.3822  0.3871
18464TIP3    H176807   2.201   3.920   3.604 -0.3987 -0.4361 -2.3701
18464TIP3    H276808   2.082   3.840   3.555 -1.9418 -0.5295  1.2264
18465TIP3   OH276809   0.020   5.114  12.654 -0.2897 -0.3090 -0.8104
18465TIP3    H176810   0.106   5.122  12.612  0.2528 -2.1552 -0.1438
18465TIP3    H276811  -0.035   5.177  12.607  1.5628  1.3922 -0.8252
18466TIP3   OH276812   3.624   0.904  15.101  0.0606 -0.2926  0.4816
18466TIP3    H176813   3.656   0.891  15.012 -1.3943 -1.2873  0.0543
18466TIP3    H276814   3.620   0.815  15.138  0.5534  0.1003  1.5151
18467TIP3   OH276815   6.656   0.025  11.182  0.1539 -0.2064  0.2440
18467TIP3    H176816   6.622  -0.008  11.099 -1.0105  1.9662 -0.2289
18467TIP3    H276817   6.614  -0.029  11.248  2.0116 -2.7809 -0.5059
18468TIP3   OH276818   4.060   0.857   2.924  0.2935  0.6766 -0.2063
18468TIP3    H176819   4.050   0.945   2.960  0.2340 -0.2202  2.1001
18468TIP3    H276820   3.980   0.844   2.872  0.7345  2.2825 -1.3820
18469TIP3   OH276821   4.653   5.917  16.328  0.4018 -0.5880  0.0396
18469TIP3    H176822   4.659   5.947  16.237 -1.0430 -0.9466 -0.2062
18469TIP3    H276823   4.734   5.945  16.369  0.1169  1.5506 -0.7786
18470TIP3   OH276824   3.179   3.259  15.355  0.0811 -0.3747  0.4276
18470TIP3    H176825   3.091   3.258  15.319  0.3089 -1.3277 -0.1475
18470TIP3    H276826   3.170   3.224  15.443  0.1861 -2.8289 -0.4651
18471TIP3   OH276827   5.570   3.457   4.142  0.1491 -0.0039  0.1707
18471TIP3    H176828   5.529   3.382   4.184  2.0046 -1.4322 -0.4290
18471TIP3    H276829   5.646   3.477   4.197  0.1932  0.8736 -0.1840
18472TIP3   OH276830   6.467   6.240   5.193  0.5830 -0.2002  0.0517
18472TIP3    H176831   6.457   6.277   5.105  1.2511 -1.2183 -0.4751
18472TIP3    H276832   6.398   6.175   5.200  2.1845 -2.1131 -0.8371
18473TIP3   OH276833   2.490   1.640   0.598 -0.2110  0.0676  0.0899
18473TIP3    H176834   2.502   1.548   0.619  0.7015 -0.1755 -1.3591
18473TIP3    H276835   2.564   1.662   0.542 -2.5478  0.5064 -3.1511
18474TIP3   OH276836   6.728   5.380  16.082 -0.0966 -0.1393 -0.3089
18474TIP3    H176837   6.677   5.402  16.004  1.6603 -0.8776 -1.7334
18474TIP3    H276838   6.817   5.407  16.061  0.1738  1.1649  2.1218
18475TIP3   OH276839   4.360   0.526  11.623  0.2887  0.7424  0.4493
18475TIP3    H176840   4.284   0.472  11.647  1.0298 -1.8615 -2.4839
18475TIP3    H276841   4.435   0.468  11.635  1.7504  2.7331  1.6540
18476TIP3   OH276842   0.752   1.081   3.729 -0.6583 -0.0954  0.1083
18476TIP3    H176843   0.798   1.164   3.726 -0.4680 -0.2213 -1.0441
18476TIP3    H276844   0.782   1.039   3.810  2.9209 -1.0944 -1.5299
18477TIP3   OH276845   3.701   2.655   6.443  0.3467  0.1893  0.5733
18477TIP3    H176846   3.652   2.650   6.525 -3.3043 -0.4753 -1.4224
18477TIP3    H276847   3.758   2.579   6.444 -0.4921 -0.4502  2.0227
18478TIP3   OH276848   6.044   1.393   5.844  0.3015 -0.8486 -0.2323
18478TIP3    H176849   5.966   1.443   5.868  0.4790 -0.8464  0.3333
18478TIP3    H276850   6.113   1.459   5.832  0.4679 -0.9360  0.2487
18479TIP3   OH276851   5.981   0.660   4.271  0.5642 -0.0115 -0.6221
18479TIP3    H176852   6.067   0.678   4.232  0.7234  0.3431 -0.1183
18479TIP3    H276853   5.936   0.605   4.206  0.4424  1.3729 -1.7908
18480TIP3   OH276854   1.700   5.467  16.878  0.7066 -0.0565  0.1400
18480TIP3    H176855   1.717   5.373  16.867 -1.0742 -0.7571  2.4017
18480TIP3    H276856   1.707   5.504  16.790 -0.0531 -2.5832 -1.0764
18481TIP3   OH276857   3.595   0.267  16.081  0.3456  0.6175  0.1010
18481TIP3    H176858   3.548   0.328  16.023 -0.8551 -1.3830 -1.1497
18481TIP3    H276859   3.670   0.237  16.029 -0.7197 -1.1658 -0.4948
18482TIP3   OH276860   1.525   0.109  11.267 -0.4185 -0.1994  0.0209
18482TIP3    H176861   1.584   0.144  11.334  0.6554 -1.4162 -0.2481
18482TIP3    H276862   1.437   0.133  11.297  0.1987  2.3148  0.0563
18483TIP3   OH276863   5.919   5.787   0.201  0.2628 -0.0728 -0.6453
18483TIP3    H176864   5.960   5.861   0.156 -0.9467 -0.2571 -2.1433
18483TIP3    H276865   5.841   5.767   0.148 -1.3629 -0.2070  1.6175
18484TIP3   OH276866   2.206   3.697   0.177  0.2901  0.3267  0.2585
18484TIP3    H176867   2.212   3.779   0.128  2.2424  0.0414 -0.0452
18484TIP3    H276868   2.123   3.658   0.148 -0.6938  2.1528  0.4269
18485TIP3   OH276869   5.607   4.052  11.381 -0.2059 -0.1903 -0.3317
18485TIP3    H176870   5.616   4.132  11.433 -1.0334  1.7219 -2.9102
18485TIP3    H276871   5.678   4.057  11.317  0.0393 -1.8228 -0.2267
18486TIP3   OH276872   5.108   2.347  12.347 -0.0819  0.3447  0.0828
18486TIP3    H176873   5.033   2.355  12.405 -0.9090 -0.1857 -0.8792
18486TIP3    H276874   5.111   2.429  12.299 -1.3726 -0.4242 -1.3886
18487TIP3   OH276875   4.743   4.962   2.897 -0.2266 -0.0457 -0.2864
18487TIP3    H176876   4.697   4.906   2.960  0.6126 -0.7639 -0.2921
18487TIP3    H276877   4.747   5.048   2.939 -2.3451  0.2853 -0.6634
18488TIP3   OH276878   3.586   5.857   5.102  0.1717  0.2308  0.7117
18488TIP3    H176879   3.573   5.771   5.143  0.6762  0.3280  1.0804
18488TIP3    H276880   3.620   5.837   5.015  0.4501  0.0597  0.8586
18489TIP3   OH276881   0.015   3.958   0.976 -0.0275  0.6611 -0.1706
18489TIP3    H176882  -0.025   3.871   0.973 -0.1065  0.7037 -0.3747
18489TIP3    H276883  -0.007   3.992   1.062 -0.2113  0.5813 -0.1873
18490TIP3   OH276884   2.145   5.729  15.314  0.3408 -0.3482  0.0318
18490TIP3    H176885   2.120   5.660  15.376 -0.6280 -2.3430 -2.3802
18490TIP3    H276886   2.062   5.770  15.290  0.6154 -0.0962 -0.4975
18491TIP3   OH276887   4.019   5.886   1.510  0.0765 -0.7658  0.2100
18491TIP3    H176888   3.953   5.878   1.579  0.2054  0.3187  0.4848
18491TIP3    H276889   4.001   5.813   1.450  0.3226 -2.0572  1.6588
18492TIP3   OH276890   2.908   1.430  17.123 -0.0260 -0.2727  0.4794
18492TIP3    H176891   2.814   1.416  17.112  0.2532 -1.9644 -0.1313
18492TIP3    H276892   2.939   1.350  17.166  0.9095  0.9353  2.1872
18493TIP3   OH276893   2.814   2.434  13.876  0.1411 -1.0599  0.3972
18493TIP3    H176894   2.829   2.350  13.920  0.0578 -3.1485 -3.1967
18493TIP3    H276895   2.725   2.427  13.840 -1.0389  1.8537  2.2917
18494TIP3   OH276896   4.051   0.991  15.996 -0.5529 -0.0074 -0.5202
18494TIP3    H176897   4.080   0.915  15.945 -0.9591 -0.2214 -0.4375
18494TIP3    H276898   3.967   0.963  16.034  1.0327 -0.9131  2.5893
18495TIP3   OH276899   2.853   6.203  11.040  0.1978  0.3926 -0.8062
18495TIP3    H176900   2.800   6.220  10.962  0.4143 -0.7746 -1.2176
18495TIP3    H276901   2.835   6.278  11.098 -1.2732  0.4184 -1.2658
18496TIP3   OH276902   0.675   5.860   2.272 -0.4108  0.6113 -0.4442
18496TIP3    H176903   0.626   5.779   2.260 -0.1480  0.1166  1.5212
18496TIP3    H276904   0.620   5.927   2.231 -2.3681 -0.0539  0.9432
18497TIP3   OH276905   5.141   4.915  17.044  0.3514 -0.0074  0.2591
18497TIP3    H176906   5.101   4.892  17.128 -0.7414  1.9353  0.3316
18497TIP3    H276907   5.187   4.997  17.061  0.7263  0.0346 -0.8758
18498TIP3   OH276908   3.481   0.176   5.350 -0.4377 -0.6778 -0.2016
18498TIP3    H176909   3.421   0.248   5.368 -0.3987 -0.7235  0.1270
18498TIP3    H276910   3.429   0.097   5.363 -0.0860 -0.7380  0.9771
18499TIP3   OH276911   0.958   3.778  14.778 -0.3756  0.4839 -0.1927
18499TIP3    H176912   1.024   3.786  14.709  0.0009 -0.4991  0.0291
18499TIP3    H276913   0.930   3.687  14.772 -2.1379  1.0311 -0.6473
18500TIP3   OH276914   3.275   3.681  13.138 -0.1965 -0.1978 -0.3680
18500TIP3    H176915   3.318   3.622  13.076 -0.0027 -0.7004  0.2338
18500TIP3    H276916   3.181   3.667  13.122 -0.1551 -0.8419 -0.0756
18501TIP3   OH276917   1.316   0.233  15.860 -0.0865  0.5761  0.1592
18501TIP3    H176918   1.411   0.228  15.854 -0.0573 -0.2746  0.9894
18501TIP3    H276919   1.293   0.318  15.822  0.8033 -0.1108 -2.0565
18502TIP3   OH276920   0.975   2.870  15.200  0.2782 -0.2045 -0.5521
18502TIP3    H176921   0.925   2.931  15.255  1.1764 -0.1420  0.2315
18502TIP3    H276922   0.929   2.869  15.116  0.0085  1.2449 -0.4449
18503TIP3   OH276923   5.105   5.144  11.533  0.1105 -0.3330  0.1719
18503TIP3    H176924   5.190   5.115  11.564 -1.2563 -2.6103  2.0941
18503TIP3    H276925   5.124   5.220  11.478  3.2492 -0.0691  1.4390
18504TIP3   OH276926   6.454   0.845   4.035  0.4336 -0.1809 -0.7934
18504TIP3    H176927   6.426   0.769   3.985 -0.8081 -1.4574  1.6605
18504TIP3    H276928   6.454   0.815   4.126 -1.2800  3.0260  0.4201
18505TIP3   OH276929   1.182   0.277  15.381 -0.4019  0.1280 -0.2801
18505TIP3    H176930   1.265   0.323  15.382  0.9241 -2.0078 -1.9684
18505TIP3    H276931   1.174   0.239  15.468 -0.1111  1.1359  0.1964
18506TIP3   OH276932   1.578   4.878  15.946  0.1562 -0.0524 -0.2072
18506TIP3    H176933   1.588   4.850  16.037 -0.5501 -0.1188 -0.1404
18506TIP3    H276934   1.548   4.969  15.952  0.5841  0.1032 -0.3861
18507TIP3   OH276935   0.451   5.869  16.702 -0.4254 -0.1212  0.3454
18507TIP3    H176936   0.442   5.778  16.731  0.6439 -0.7403 -1.1272
18507TIP3    H276937   0.500   5.863  16.620  1.9550  1.9393  1.4716
18508TIP3   OH276938   4.517   5.965   1.738 -0.2456 -0.6840 -0.4546
18508TIP3    H176939   4.478   5.935   1.820  4.0278 -2.1288  1.3280
18508TIP3    H276940   4.468   5.918   1.670 -1.5048 -2.3913  1.4954
18509TIP3   OH276941   6.523   2.576  16.507 -0.2880 -0.5664  0.1720
18509TIP3    H176942   6.479   2.654  16.539  0.1693  0.3219 -1.2392
18509TIP3    H276943   6.616   2.591  16.526 -0.1653 -0.6284 -0.3598
18510TIP3   OH276944   3.807   3.109   5.833 -0.2128 -1.0928  0.1124
18510TIP3    H176945   3.791   3.169   5.906  0.4099  1.0271 -1.4168
18510TIP3    H276946   3.721   3.088   5.799 -0.3992  0.6431 -0.6006
18511TIP3   OH276947   4.112   4.524   5.044  0.1264  0.1531  0.0351
18511TIP3    H176948   4.088   4.611   5.013 -0.0868 -0.6486 -2.2304
18511TIP3    H276949   4.206   4.529   5.061  0.5721  0.3173 -2.1689
18512TIP3   OH276950   6.500   3.805   1.429 -0.3837  0.1036 -0.3581
18512TIP3    H176951   6.445   3.727   1.432 -1.9079  1.0945 -1.4861
18512TIP3    H276952   6.514   3.821   1.336  0.3088  0.9095 -0.1299
18513TIP3   OH276953   6.245   0.708  13.968  0.3870 -0.1818 -0.4308
18513TIP3    H176954   6.183   0.686  14.037  0.8911  0.2111  0.1583
18513TIP3    H276955   6.313   0.640  13.974 -0.1436 -0.8091 -1.2952
18514TIP3   OH276956   2.231   0.945   1.053 -0.3457 -0.5989  0.2471
18514TIP3    H176957   2.215   0.942   1.147 -0.7790  0.1476  0.2033
18514TIP3    H276958   2.144   0.950   1.014 -0.1199  1.4770 -0.0792
18515TIP3   OH276959   4.572   2.087   0.823 -0.1622  0.2968  0.1521
18515TIP3    H176960   4.656   2.075   0.868 -0.4923 -1.8205  0.3391
18515TIP3    H276961   4.512   2.116   0.891 -0.2347 -1.1243  0.7389
18516TIP3   OH276962   2.359   4.604  11.468 -0.3112  0.5613  0.6584
18516TIP3    H176963   2.297   4.531  11.462  0.2562  0.0893  0.4602
18516TIP3    H276964   2.320   4.673  11.414  0.1564 -0.3365 -0.8789
18517TIP3   OH276965   5.132   3.991   3.992 -0.4721  0.3939  0.4347
18517TIP3    H176966   5.071   3.964   4.060  0.6788 -1.0739  0.9291
18517TIP3    H276967   5.083   3.982   3.911 -0.8220 -1.1397  0.7868
18518TIP3   OH276968   6.439   6.622  16.521 -0.5000 -0.2017 -0.1706
18518TIP3    H176969   6.486   6.682  16.579  0.3970 -0.6584 -0.3984
18518TIP3    H276970   6.408   6.678  16.449  0.6855 -0.0534 -0.5916
18519TIP3   OH276971   2.444   5.140  16.129 -0.1593  0.1027  0.5521
18519TIP3    H176972   2.392   5.201  16.181 -0.6791  0.3375 -0.2399
18519TIP3    H276973   2.526   5.132  16.178 -1.1609 -0.7838  2.1545
18520TIP3   OH276974   5.656   1.020   0.599  0.0799 -0.0813 -0.1942
18520TIP3    H176975   5.617   1.105   0.617 -1.5177 -1.0452  1.2909
18520TIP3    H276976   5.610   0.989   0.521  0.7451  0.4465 -0.8043
18521TIP3   OH276977   2.511   2.390   2.686 -0.2478 -0.0477 -0.2864
18521TIP3    H176978   2.431   2.355   2.645 -0.0790 -0.4866 -0.2444
18521TIP3    H276979   2.555   2.313   2.722 -0.0540  0.2560  0.1294
18522TIP3   OH276980   6.581   3.143   4.888  0.0209 -0.1219  0.3669
18522TIP3    H176981   6.517   3.204   4.924  1.7629  2.1497 -0.1699
18522TIP3    H276982   6.579   3.068   4.948 -3.5727 -0.5230 -0.0246
18523TIP3   OH276983   2.431   2.956   0.145 -0.0201 -0.8183  0.1017
18523TIP3    H176984   2.426   2.862   0.166 -2.2394 -0.5656  0.8838
18523TIP3    H276985   2.357   2.971   0.086 -2.4910  1.2070  3.3836
18524TIP3   OH276986   3.296   2.664   5.154  0.6888 -0.2787 -0.1219
18524TIP3    H176987   3.314   2.699   5.067 -0.6392 -0.1524 -0.3710
18524TIP3    H276988   3.263   2.576   5.138  2.4267 -1.0543  0.4045
18525TIP3   OH276989   5.378   4.134   5.177  0.3974 -0.2912  0.4369
18525TIP3    H176990   5.305   4.082   5.210  2.1157 -3.2389 -0.0833
18525TIP3    H276991   5.365   4.136   5.082  0.5577 -0.1230  0.4168
18526TIP3   OH276992   3.465   5.753  14.847 -0.0006 -0.4193 -0.2053
18526TIP3    H176993   3.531   5.779  14.783  0.0185  0.2713  0.0814
18526TIP3    H276994   3.421   5.835  14.871  2.0922 -0.0499  3.0238
18527TIP3   OH276995   1.672   6.425  15.936  0.4131  0.1135  0.0722
18527TIP3    H176996   1.647   6.516  15.952  0.0392  0.1078 -0.4582
18527TIP3    H276997   1.631   6.377  16.008  0.1845  0.3014  0.0711
18528TIP3   OH276998   1.519   3.341  11.981 -0.0441 -0.1598  0.3474
18528TIP3    H176999   1.543   3.433  11.971  1.0905 -0.5568 -0.7461
18528TIP3    H277000   1.520   3.306  11.892  0.5475 -1.4695  0.8479
18529TIP3   OH277001   1.530   2.579  12.659 -0.7785  0.1249 -0.3126
18529TIP3    H177002   1.481   2.580  12.577  0.1031 -0.5455 -0.8619
18529TIP3    H277003   1.592   2.652  12.651 -1.9105  1.2322  0.5486
18530TIP3   OH277004   1.768   3.901   4.583 -0.0515  0.7311  0.1156
18530TIP3    H177005   1.846   3.861   4.544  1.2351  1.4005  1.8893
18530TIP3    H277006   1.776   3.994   4.563  0.6134  1.0837  1.8308
18531TIP3   OH277007   2.243   2.069  12.820  0.4593 -0.3730 -0.4035
18531TIP3    H177008   2.265   2.145  12.766  1.0879 -0.7413 -0.6743
18531TIP3    H277009   2.213   2.003  12.757 -0.3972 -0.2471 -0.1377
18532TIP3   OH277010   5.979   2.872   5.427  0.4292  0.3924  1.1054
18532TIP3    H177011   6.050   2.840   5.372  0.2132  0.5716  0.7161
18532TIP3    H277012   5.960   2.799   5.487 -0.2971 -0.3657 -0.0073
18533TIP3   OH277013   1.134   0.201   4.294 -0.5134 -0.0434 -0.2272
18533TIP3    H177014   1.198   0.138   4.259 -0.0299 -0.3967  1.2102
18533TIP3    H277015   1.052   0.180   4.249 -0.2416 -1.3786 -0.1376
18534TIP3   OH277016   5.153   1.945  12.057  0.4282 -0.5407  0.0572
18534TIP3    H177017   5.129   1.939  12.149  0.4992 -1.8171  0.0051
18534TIP3    H277018   5.245   1.920  12.054  0.9695  1.3164 -0.1450
18535TIP3   OH277019   0.989   3.263  12.058  0.0795  0.4201  0.1237
18535TIP3    H177020   0.965   3.305  11.976 -1.1221  1.1410  0.8020
18535TIP3    H277021   0.913   3.277  12.115 -2.0778 -5.6229 -0.5411
18536TIP3   OH277022   2.385   3.295  12.343 -0.5128  0.1306 -0.4559
18536TIP3    H177023   2.299   3.328  12.368 -0.5600 -1.0272  1.0401
18536TIP3    H277024   2.392   3.210  12.386  1.1388 -0.0767 -1.0508
18537TIP3   OH277025   4.927   1.082  16.543 -0.3943  0.3533 -0.0539
18537TIP3    H177026   4.876   1.073  16.462  1.3593 -0.1574 -1.1680
18537TIP3    H277027   4.996   1.143  16.521 -0.2211  0.6662  1.2697
18538TIP3   OH277028   5.859   1.817  15.304 -0.7654  0.0466 -0.2617
18538TIP3    H177029   5.906   1.828  15.221  1.1110 -0.1990  0.7308
18538TIP3    H277030   5.927   1.813  15.371 -2.2413  0.3715  1.3398
18539TIP3   OH277031   2.890   2.793   2.450  0.1039 -0.3894  0.2912
18539TIP3    H177032   2.851   2.764   2.531 -1.2614  0.9925  0.1818
18539TIP3    H277033   2.886   2.717   2.392 -1.5069 -0.6043  0.6308
18540TIP3   OH277034   2.656   4.765  16.320 -0.0150 -0.2188 -0.3864
18540TIP3    H177035   2.672   4.691  16.378  1.9350  0.5633  0.1837
18540TIP3    H277036   2.603   4.825  16.372  0.0926 -0.3558 -0.1160
18541TIP3   OH277037   5.382   0.730  17.210 -0.3015 -0.2513  0.2766
18541TIP3    H177038   5.371   0.635  17.217  0.8488 -0.2900  2.4761
18541TIP3    H277039   5.440   0.752  17.284 -1.6603  2.3407  0.6479
18542TIP3   OH277040   1.435   4.174   6.766  0.6468 -0.2323  0.1675
18542TIP3    H177041   1.402   4.241   6.826  1.2041  0.8120 -0.6425
18542TIP3    H277042   1.359   4.148   6.714  0.3019 -0.6725  0.8871
18543TIP3   OH277043   1.612   2.062  15.747 -0.2635  0.3777  0.4488
18543TIP3    H177044   1.554   1.987  15.741  2.1261 -1.4286 -2.5092
18543TIP3    H277045   1.556   2.137  15.727 -1.5810 -1.3459 -3.2319
18544TIP3   OH277046   1.931   5.205  14.801 -0.0184  0.0245  0.4686
18544TIP3    H177047   1.853   5.170  14.758 -0.5189  0.8174  0.7122
18544TIP3    H277048   1.933   5.160  14.886  1.2268 -1.8875 -0.4770
18545TIP3   OH277049   3.487   5.063   0.435  0.2699  0.0963  1.1072
18545TIP3    H177050   3.526   5.034   0.353  0.4446  0.8047  0.9351
18545TIP3    H277051   3.486   4.985   0.491  0.8337 -0.2046  0.6933
18546TIP3   OH277052   4.063   4.697  13.777 -0.7849 -0.4651 -0.0870
18546TIP3    H177053   4.076   4.789  13.798  0.8460 -0.3138 -1.5240
18546TIP3    H277054   4.146   4.655  13.800 -1.6948 -1.7254  1.1047
18547TIP3   OH277055   1.788   0.801  15.485 -0.0048  0.1576  0.5890
18547TIP3    H177056   1.744   0.724  15.448  0.8052  0.5189 -1.2292
18547TIP3    H277057   1.841   0.835  15.413 -0.4080  2.4750  1.2976
18548TIP3   OH277058   0.602   4.779   5.131  0.4983 -0.6288 -0.5889
18548TIP3    H177059   0.530   4.722   5.156 -0.8032  0.7674 -0.9527
18548TIP3    H277060   0.644   4.804   5.213  1.0249 -1.9716 -0.4219
18549TIP3   OH277061   3.872   0.254   5.011  0.4960  1.0506  0.1022
18549TIP3    H177062   3.835   0.262   5.099  1.7101 -0.6938  0.8318
18549TIP3    H277063   3.952   0.203   5.024 -1.5483 -3.3798 -2.4609
18550TIP3   OH277064   6.704   2.393  11.177  0.1041 -0.4281 -0.2363
18550TIP3    H177065   6.614   2.362  11.169  0.4784 -1.6649  0.1640
18550TIP3    H277066   6.695   2.484  11.207 -1.0119 -1.6473  3.7418
18551TIP3   OH277067   6.294   1.609  16.585  0.5241  0.4741  0.3641
18551TIP3    H177068   6.358   1.579  16.650 -0.0535  1.1143  1.2480
18551TIP3    H277069   6.296   1.704  16.591 -2.7836  0.5753  2.7798
18552TIP3   OH277070   2.474   1.310   0.493 -0.6725 -0.3931  0.3882
18552TIP3    H177071   2.549   1.263   0.530  0.5521 -0.0112 -1.4870
18552TIP3    H277072   2.454   1.262   0.412 -1.2164  0.6324 -0.0999
18553TIP3   OH277073   5.358   0.400   6.292  0.4470 -0.0547 -0.3458
18553TIP3    H177074   5.317   0.316   6.274  0.8431  0.2988 -3.5904
18553TIP3    H277075   5.450   0.380   6.307  0.5365 -0.2291 -1.0964
18554TIP3   OH277076   0.964   5.375  15.978  0.1398 -0.2451  0.8231
18554TIP3    H177077   0.972   5.320  16.056  1.4673  0.6961  1.3823
18554TIP3    H277078   0.947   5.463  16.013 -1.5216 -0.1938 -0.0394
18555TIP3   OH277079   5.832   3.144   3.890  0.5064  0.1411 -0.4396
18555TIP3    H177080   5.898   3.151   3.959  0.0674  1.0122 -0.0836
18555TIP3    H277081   5.862   3.071   3.835  0.5649 -0.9459  0.9817
18556TIP3   OH277082   3.951   2.064   1.107 -0.2615  0.2774  0.0903
18556TIP3    H177083   3.881   2.041   1.046 -0.2127  0.7668 -0.1557
18556TIP3    H277084   3.997   2.136   1.064  1.0654 -0.7302 -0.2432
18557TIP3   OH277085   3.117   0.796   3.361 -0.3912  0.2839 -0.4406
18557TIP3    H177086   3.111   0.721   3.419  0.1296  1.1264  0.7389
18557TIP3    H277087   3.049   0.781   3.295 -1.8286 -0.1344  1.0602
18558TIP3   OH277088   4.115   1.720  10.782  0.0786  0.3851  0.1106
18558TIP3    H177089   4.029   1.682  10.762 -0.1394  0.8026  0.2571
18558TIP3    H277090   4.098   1.813  10.796  0.4125  0.3166  1.0439
18559TIP3   OH277091   2.006   5.588  16.639  0.0923  0.2172 -0.2655
18559TIP3    H177092   2.079   5.637  16.677  1.0892 -1.5409  0.1862
18559TIP3    H277093   2.010   5.608  16.545 -0.5218  2.1959  0.0815
18560TIP3   OH277094   5.260   0.915  15.164 -0.4589  0.1016 -0.4370
18560TIP3    H177095   5.204   0.845  15.133  2.1432 -1.9128 -0.9151
18560TIP3    H277096   5.346   0.896  15.126  0.7734  2.5611  0.8680
18561TIP3   OH277097   6.424   1.720   2.861 -0.3302 -0.5185  0.5157
18561TIP3    H177098   6.389   1.681   2.781 -1.1400 -1.6419  1.4019
18561TIP3    H277099   6.478   1.793   2.829 -1.2780 -0.4283 -1.0129
18562TIP3   OH277100   0.682   3.787  13.076  0.6304  0.0762  0.2759
18562TIP3    H177101   0.650   3.828  12.996 -0.7876  1.2234  1.3793
18562TIP3    H277102   0.760   3.837  13.099  0.9328 -0.1343 -0.2841
18563TIP3   OH277103   2.404   1.736  14.942  0.4788  0.4692 -0.1475
18563TIP3    H177104   2.498   1.735  14.962  0.4029  0.1748  0.2100
18563TIP3    H277105   2.380   1.644  14.936 -0.2082  0.4615  1.8220
18564TIP3   OH277106   3.773   6.203   6.017 -0.0597 -0.2023  1.1254
18564TIP3    H177107   3.809   6.291   6.012 -1.7498  0.4432 -1.8467
18564TIP3    H277108   3.679   6.215   6.026 -0.4985 -1.5966 -0.8419
18565TIP3   OH277109   5.970   4.497  12.022 -0.0458  0.2202 -0.3481
18565TIP3    H177110   5.934   4.424  11.971  0.0139  0.6252 -0.9874
18565TIP3    H277111   5.948   4.574  11.970 -0.1359  0.6601  0.3423
18566TIP3   OH277112   1.538   5.993   3.325  0.2659  0.2408 -0.3226
18566TIP3    H177113   1.545   5.897   3.333 -0.3288  0.1717 -0.6173
18566TIP3    H277114   1.595   6.026   3.394 -0.2587 -0.3315  0.4073
18567TIP3   OH277115   2.565   6.700   2.019 -0.0043  0.3824  0.0940
18567TIP3    H177116   2.633   6.758   1.984  0.6450 -0.7377 -0.5725
18567TIP3    H277117   2.552   6.730   2.109 -0.7846  2.5147 -0.6782
18568TIP3   OH277118   4.212   0.850   0.754  0.6148  0.8501 -0.2589
18568TIP3    H177119   4.151   0.780   0.729  1.3099 -0.0791  0.5474
18568TIP3    H277120   4.226   0.836   0.848  2.7546  0.4867 -0.5924
18569TIP3   OH277121   6.695   6.008   2.502  0.2462  0.4037  0.3167
18569TIP3    H177122   6.604   6.036   2.493  0.5074  1.4005  0.5586
18569TIP3    H277123   6.744   6.070   2.447  0.6211 -1.2044 -1.2565
18570TIP3   OH277124   3.872   3.193  15.437  0.4772  0.1510  0.2064
18570TIP3    H177125   3.936   3.205  15.367 -0.4437 -1.5392 -1.0096
18570TIP3    H277126   3.788   3.216  15.397 -0.3538 -2.8422 -0.0368
18571TIP3   OH277127   4.869   4.043   1.800  0.0898  0.1549  0.0493
18571TIP3    H177128   4.858   4.057   1.706  0.5034 -0.8909 -0.1560
18571TIP3    H277129   4.827   4.120   1.840 -1.0834  0.0593 -0.9484
18572TIP3   OH277130   5.420   4.416   3.106  0.6435 -0.1329  0.2361
18572TIP3    H177131   5.509   4.404   3.073  0.2806  0.1816 -0.9055
18572TIP3    H277132   5.430   4.480   3.177  1.2486  0.4064 -0.3176
18573TIP3   OH277133   3.454   0.109  14.925 -0.4900 -0.7759  0.2390
18573TIP3    H177134   3.464   0.183  14.984 -1.4522 -0.3884 -0.0745
18573TIP3    H277135   3.466   0.146  14.837  2.0900 -1.5397  0.1855
18574TIP3   OH277136   5.582   1.502  12.570  0.0342 -0.1375 -0.3521
18574TIP3    H177137   5.621   1.579  12.528 -2.4054  1.6688  0.4236
18574TIP3    H277138   5.509   1.477  12.513  0.6372 -1.7834 -0.4600
18575TIP3   OH277139   3.771   5.209   5.453  0.3323  0.2391 -0.1069
18575TIP3    H177140   3.766   5.157   5.373  2.2355 -0.9765  0.5022
18575TIP3    H277141   3.862   5.200   5.482 -0.2797  0.7369  2.1490
18576TIP3   OH277142   3.920   5.549  11.858  0.0449 -0.0957 -0.2856
18576TIP3    H177143   3.947   5.628  11.812  0.7349 -0.6775 -0.9081
18576TIP3    H277144   3.997   5.493  11.857 -0.8324 -1.3488 -1.0972
18577TIP3   OH277145   0.168   0.145   3.573 -0.6189 -0.5790  0.4467
18577TIP3    H177146   0.085   0.165   3.616 -0.0811  4.3612 -0.2242
18577TIP3    H277147   0.150   0.153   3.479  0.4857  0.1905  0.2755
18578TIP3   OH277148   0.752   4.390  11.853  0.5309 -0.2198  0.3377
18578TIP3    H177149   0.752   4.382  11.949  0.1861  0.3674  0.3918
18578TIP3    H277150   0.750   4.485  11.837 -0.6657 -0.3289 -0.2479
18579TIP3   OH277151   2.545   5.421  12.564 -0.1274 -0.7672 -0.8618
18579TIP3    H177152   2.477   5.383  12.509 -2.9749  1.3939  0.8789
18579TIP3    H277153   2.579   5.347  12.614  0.4048 -2.2439 -3.2341
18580TIP3   OH277154   5.295   4.026   3.084 -0.7673 -0.1399 -0.0870
18580TIP3    H177155   5.364   3.969   3.118  0.2808  1.3319  0.3763
18580TIP3    H277156   5.321   4.044   2.994 -0.6150  0.2636  0.0309
18581TIP3   OH277157   1.346   3.641   0.006 -0.4290 -0.4196  0.6141
18581TIP3    H177158   1.343   3.595   0.089  0.9144 -0.7395  0.5170
18581TIP3    H277159   1.359   3.572  -0.059 -0.4244 -0.0903  0.2583
18582TIP3   OH277160   1.756   3.288   3.248  0.6079  0.5479 -0.1773
18582TIP3    H177161   1.832   3.279   3.190  0.8652  3.9639 -0.5433
18582TIP3    H277162   1.793   3.283   3.336  1.3301  2.2264 -0.3517
18583TIP3   OH277163   3.240   1.321   1.377  0.4502 -0.2173 -0.0604
18583TIP3    H177164   3.322   1.310   1.329  0.9580 -1.2066  0.9600
18583TIP3    H277165   3.265   1.368   1.456 -0.2742  0.9162 -0.4908
18584TIP3   OH277166   3.562   5.833  16.077  0.3310  0.1719  0.3139
18584TIP3    H177167   3.568   5.888  15.999 -0.5034 -2.6891 -1.9359
18584TIP3    H277168   3.652   5.805  16.094  0.4682  0.5567  0.2452
18585TIP3   OH277169   1.240   4.354  16.924  0.6601 -0.7096 -0.4401
18585TIP3    H177170   1.187   4.314  16.856  1.3948 -1.3668 -0.6405
18585TIP3    H277171   1.321   4.380  16.880  0.8378 -0.4660  0.0201
18586TIP3   OH277172   1.233   2.738   1.692 -0.0238  0.1772 -0.2323
18586TIP3    H177173   1.168   2.808   1.679 -1.6320 -1.4275 -1.2124
18586TIP3    H277174   1.181   2.660   1.710  1.7471 -0.7581  1.1396
18587TIP3   OH277175   3.453   3.423  12.695  0.1481  0.2444  0.5635
18587TIP3    H177176   3.399   3.455  12.623  0.3188 -0.5345  0.0777
18587TIP3    H277177   3.542   3.454  12.674  0.6252 -1.8261 -0.7600
18588TIP3   OH277178   4.813   5.206   5.846 -0.1771  0.2432  0.1798
18588TIP3    H177179   4.741   5.185   5.786 -1.1339 -0.1984  1.4373
18588TIP3    H277180   4.770   5.237   5.926  1.0214 -0.1709  1.0165
18589TIP3   OH277181   1.303   1.759   5.133  0.2195  0.2050  0.0331
18589TIP3    H177182   1.360   1.814   5.079  0.0293  0.8243  0.4687
18589TIP3    H277183   1.328   1.669   5.108  0.1795  0.4724 -1.0395
18590TIP3   OH277184   4.619   6.051   4.162 -0.0721 -0.4990 -0.8577
18590TIP3    H177185   4.543   6.107   4.178  0.3669 -0.6501  2.3541
18590TIP3    H277186   4.686   6.111   4.128 -0.0999  0.7327  1.0807
18591TIP3   OH277187   1.760   0.734  14.281  0.0550 -0.2351  0.4453
18591TIP3    H177188   1.715   0.814  14.258  2.3548  0.6536 -1.3853
18591TIP3    H277189   1.751   0.727  14.376 -1.3071  1.4458  0.4686
18592TIP3   OH277190   0.205   2.950   3.693 -0.2825 -0.1276  0.5055
18592TIP3    H177191   0.257   2.996   3.758  1.7271 -1.8822  0.2502
18592TIP3    H277192   0.125   2.924   3.740  1.2611 -1.6438  2.4505
18593TIP3   OH277193   0.525   2.125  15.017  0.4722 -0.2807  0.4671
18593TIP3    H177194   0.524   2.089  15.105 -0.9824 -2.5736 -0.4090
18593TIP3    H277195   0.495   2.054  14.961  0.6152  1.3334 -1.8069
18594TIP3   OH277196   2.193   5.486  16.182 -0.0408  0.0427  0.3275
18594TIP3    H177197   2.237   5.522  16.105  1.2212 -1.0276  0.5124
18594TIP3    H277198   2.108   5.457  16.150 -0.2589  1.2664 -0.2553
18595TIP3   OH277199   5.547   4.833  16.733  0.3632 -0.4195 -0.3838
18595TIP3    H177200   5.472   4.786  16.770 -0.8965  1.9869  0.3366
18595TIP3    H277201   5.608   4.842  16.806 -0.5583  1.2484  0.2296
18596TIP3   OH277202   2.509   2.405   4.356  0.1419  0.5541 -0.3046
18596TIP3    H177203   2.586   2.434   4.308 -1.1270  2.7684 -1.1576
18596TIP3    H277204   2.505   2.462   4.433  0.6596 -1.1796  1.0832
18597TIP3   OH277205   1.543   5.622   5.823 -0.5263 -0.5350  0.0321
18597TIP3    H177206   1.632   5.599   5.847 -0.0168  1.0985 -0.2159
18597TIP3    H277207   1.492   5.606   5.902  0.3924  0.7096  0.8992
18598TIP3   OH277208   4.096   2.596   0.566 -0.1379  0.0136 -0.4445
18598TIP3    H177209   4.068   2.621   0.655  0.6651 -0.5938 -0.0035
18598TIP3    H277210   4.175   2.649   0.551 -1.1715  1.3435 -1.4755
18599TIP3   OH277211   4.459   3.853   3.987  0.6260  0.0088 -0.4057
18599TIP3    H177212   4.497   3.894   4.064 -0.5441  0.6243 -0.1400
18599TIP3    H277213   4.462   3.920   3.919 -0.7881  0.4018 -0.1216
18600TIP3   OH277214   1.767   4.394   1.910  0.0385 -0.7274  0.0906
18600TIP3    H177215   1.826   4.427   1.842 -0.4223  0.0374  0.0483
18600TIP3    H277216   1.772   4.299   1.902 -1.2162 -0.6851 -2.1057
18601TIP3   OH277217   5.660   1.781  10.603  0.0765 -0.3018 -0.7001
18601TIP3    H177218   5.754   1.765  10.596  0.2669  0.5771 -0.3481
18601TIP3    H277219   5.639   1.760  10.694 -0.0344 -0.3553 -0.7390
18602TIP3   OH277220   6.544   3.679  12.065 -0.3105  0.1945  0.4937
18602TIP3    H177221   6.488   3.752  12.038  1.0973  0.8567 -0.7811
18602TIP3    H277222   6.633   3.715  12.064  0.5253 -1.7121 -0.9636
18603TIP3   OH277223   3.985   2.238   5.122 -0.4327 -0.4466  0.1436
18603TIP3    H177224   4.054   2.213   5.060 -0.7012 -1.9313  0.4004
18603TIP3    H277225   4.008   2.326   5.149  1.1443 -0.7600 -0.0883
18604TIP3   OH277226   0.903   4.136  15.960  0.3509 -0.0074 -0.1712
18604TIP3    H177227   0.849   4.213  15.977  0.4767 -0.4981  2.8897
18604TIP3    H277228   0.991   4.171  15.947 -0.0335  0.5110 -1.6423
18605TIP3   OH277229   1.778   0.008  12.354 -0.1293 -0.0478  0.4780
18605TIP3    H177230   1.746   0.095  12.330 -0.5345 -0.2943  0.1118
18605TIP3    H277231   1.728  -0.052  12.299  1.3735 -0.4112 -0.5440
18606TIP3   OH277232   2.098   0.894   2.211  0.2210  0.3745  0.6265
18606TIP3    H177233   2.054   0.914   2.128  0.8834 -1.5272 -0.2589
18606TIP3    H277234   2.161   0.964   2.223  0.5364  0.3767 -0.8274
18607TIP3   OH277235   3.234   0.719  13.872 -0.0557  0.4462  0.6613
18607TIP3    H177236   3.220   0.760  13.787 -0.6890 -0.9733  0.0590
18607TIP3    H277237   3.193   0.780  13.934 -0.7991  0.8253 -0.1819
18608TIP3   OH277238   2.226   6.279  15.756  0.1215  0.7891 -0.4101
18608TIP3    H177239   2.139   6.255  15.788  0.3591 -0.7906 -0.8693
18608TIP3    H277240   2.229   6.245  15.667  2.1945 -1.7931  0.5191
18609TIP3   OH277241   4.197   3.681  15.154  0.2746 -0.1591  0.8680
18609TIP3    H177242   4.196   3.773  15.181 -0.3862  0.3730 -0.7908
18609TIP3    H277243   4.284   3.650  15.175  0.9187  1.2222  0.3510
18610TIP3   OH277244   1.442   3.585   6.288 -0.6882 -0.1602  0.2614
18610TIP3    H177245   1.522   3.565   6.336 -2.4828 -3.1601  2.3628
18610TIP3    H277246   1.402   3.657   6.336  0.1241  0.5158 -0.0593
18611TIP3   OH277247   1.269   0.724  15.077  0.2791  0.1071 -0.4080
18611TIP3    H177248   1.200   0.661  15.097  0.7018  0.0998  1.1720
18611TIP3    H277249   1.335   0.674  15.029 -0.6471  0.0458 -1.6678
18612TIP3   OH277250   4.341   5.697   3.145 -0.0780  0.1772 -0.0178
18612TIP3    H177251   4.281   5.757   3.189 -0.2844 -1.6670  2.4423
18612TIP3    H277252   4.297   5.676   3.063  0.0366  3.3089 -1.0049
18613TIP3   OH277253   3.127   0.355   5.133 -0.0545 -0.2381 -0.7524
18613TIP3    H177254   3.117   0.262   5.112  1.0896 -1.0989  2.0083
18613TIP3    H277255   3.058   0.372   5.197  1.1011  0.1600  0.4297
18614TIP3   OH277256   3.898   3.075   3.232 -0.1069  0.6199 -0.1570
18614TIP3    H177257   3.879   3.155   3.183 -2.1328  0.1682 -0.1663
18614TIP3    H277258   3.869   3.093   3.321 -0.6335 -0.1249 -0.1745
18615TIP3   OH277259   1.279   4.443  11.841  0.1143 -0.0336  0.5552
18615TIP3    H177260   1.237   4.392  11.910  0.2477 -0.1252  0.5688
18615TIP3    H277261   1.211   4.504  11.812  0.8070  1.8362  2.5635
18616TIP3   OH277262   6.767   0.930   4.212 -0.2055 -0.5530  0.0049
18616TIP3    H177263   6.683   0.912   4.255 -0.3593  0.9872  0.3830
18616TIP3    H277264   6.833   0.899   4.274 -0.4602  0.3087  0.7255
18617TIP3   OH277265   0.264   3.663   3.911  0.4352 -0.1811  0.1286
18617TIP3    H177266   0.249   3.700   3.824  1.2670 -2.3671 -1.0263
18617TIP3    H277267   0.307   3.733   3.960 -1.9951  1.8478 -0.4614
18618TIP3   OH277268   4.715   0.409  16.355  0.1204  0.2568 -0.6690
18618TIP3    H177269   4.686   0.477  16.417  0.6138  0.7502 -0.9733
18618TIP3    H277270   4.698   0.447  16.269  0.6268  0.0916 -0.8424
18619TIP3   OH277271   4.873   3.338  14.603 -0.3471 -0.0954  0.5075
18619TIP3    H177272   4.917   3.278  14.663 -1.2107 -0.1051  1.1480
18619TIP3    H277273   4.897   3.425  14.633  1.3455 -0.0743 -0.7478
18620TIP3   OH277274   4.622   1.172  13.720  0.1825  0.6339 -0.0434
18620TIP3    H177275   4.701   1.128  13.750 -0.8426 -0.4766  1.1601
18620TIP3    H277276   4.565   1.102  13.690 -1.3859  1.1058  1.6440
18621TIP3   OH277277   4.761   5.009  16.656 -0.4781  0.1853 -0.0015
18621TIP3    H177278   4.774   5.012  16.561 -0.4313  0.6867  0.0169
18621TIP3    H277279   4.798   4.926  16.683  1.6135  1.0167 -0.1225
18622TIP3   OH277280   1.974   2.143   5.833  0.2457 -0.3892 -0.0578
18622TIP3    H177281   1.912   2.137   5.906  1.2258  0.7418  0.9035
18622TIP3    H277282   1.921   2.176   5.760 -0.9034 -2.2135 -0.0983
18623TIP3   OH277283   2.673   5.694   1.043 -0.3559  0.4145 -0.0571
18623TIP3    H177284   2.716   5.777   1.024  0.8115  0.5867  2.7613
18623TIP3    H277285   2.606   5.715   1.108 -1.8562 -0.4999 -1.2520
18624TIP3   OH277286   5.500   1.732  10.982  0.5166 -0.0586 -0.2259
18624TIP3    H177287   5.568   1.720  10.916  1.5024  1.4046  0.4694
18624TIP3    H277288   5.533   1.686  11.059  0.7631  0.6875  0.1256
18625TIP3   OH277289   1.447   6.741  13.196 -0.0155  0.2841  0.5308
18625TIP3    H177290   1.393   6.820  13.198 -1.2147 -0.4583 -0.8779
18625TIP3    H277291   1.520   6.761  13.255 -1.0159  1.8989  1.3052
18626TIP3   OH277292   2.913   4.982  16.874  0.1521  0.3684 -0.1407
18626TIP3    H177293   2.936   4.966  16.782 -0.3403 -1.8610  0.0601
18626TIP3    H277294   2.982   4.939  16.924 -0.4904  0.0662  0.5107
18627TIP3   OH277295   4.675   2.303   0.338  0.6901  0.5803  0.1619
18627TIP3    H177296   4.726   2.225   0.317  0.5353 -0.0478  1.9209
18627TIP3    H277297   4.731   2.354   0.397 -0.0631  0.6586  0.8395
18628TIP3   OH277298   2.867   3.657  15.673  0.2120  0.1127 -0.0432
18628TIP3    H177299   2.931   3.636  15.605 -0.4756  2.1149 -1.4105
18628TIP3    H277300   2.918   3.697  15.743  0.7632 -0.7527  0.0655
18629TIP3   OH277301   1.965   4.247   1.731  0.8182 -0.1982 -0.4911
18629TIP3    H177302   2.047   4.252   1.781  0.9297  1.0493 -0.7723
18629TIP3    H277303   1.980   4.304   1.656 -0.6837  0.8976 -0.0054
18630TIP3   OH277304   2.873   5.280  12.668  0.6768 -0.1754  0.5388
18630TIP3    H177305   2.840   5.281  12.758  0.1006  1.5371  0.3517
18630TIP3    H277306   2.967   5.296  12.677  0.3083  2.2250  0.7980
18631TIP3   OH277307   3.385   3.030   2.309 -0.3624  0.0783 -0.2136
18631TIP3    H177308   3.318   2.968   2.337 -1.7292  0.3915 -2.5193
18631TIP3    H277309   3.410   3.076   2.389  0.1798 -2.8717  1.4648
18632TIP3   OH277310   4.922   2.433  12.569  0.2555 -0.4061  0.2888
18632TIP3    H177311   4.864   2.445  12.644  1.2185 -1.2038  1.1991
18632TIP3    H277312   4.891   2.495  12.504  0.2236  1.3229  1.8653
18633TIP3   OH277313   1.748   5.063   3.480  0.0383  0.3210  0.5912
18633TIP3    H177314   1.660   5.099   3.469  0.5821  1.2879 -0.8313
18633TIP3    H277315   1.762   5.061   3.575 -1.3532  0.5296  0.8160
18634TIP3   OH277316   0.904   5.269  11.559 -0.5076  0.0011 -0.2541
18634TIP3    H177317   0.986   5.312  11.536  0.8918 -1.5184  1.5246
18634TIP3    H277318   0.902   5.190  11.505 -0.5225 -0.2267  0.0739
18635TIP3   OH277319   4.642   6.254   5.184 -0.0090  0.2785  0.3394
18635TIP3    H177320   4.695   6.247   5.264  0.0465  0.6302  0.3351
18635TIP3    H277321   4.701   6.225   5.114  0.7456  2.2022  0.1097
18636TIP3   OH277322   1.152   4.857   6.348 -0.7140  0.1669  0.1162
18636TIP3    H177323   1.111   4.943   6.342 -0.7467  0.2002  0.8047
18636TIP3    H277324   1.200   4.858   6.431  1.7239  0.5783 -1.1770
18637TIP3   OH277325   6.789   5.201  13.944 -0.2553 -0.4602 -0.6371
18637TIP3    H177326   6.754   5.219  14.031  0.5039 -1.8937  0.0022
18637TIP3    H277327   6.723   5.234  13.884 -1.4281 -0.6598  0.5028
18638TIP3   OH277328   3.426   5.333  16.102  0.2720 -0.4738 -0.0210
18638TIP3    H177329   3.427   5.428  16.089 -4.0769 -0.3163 -0.6544
18638TIP3    H277330   3.391   5.297  16.020 -1.3708 -2.2198  1.3396
18639TIP3   OH277331   3.877   2.114   2.308 -0.1637 -0.6589 -0.3065
18639TIP3    H177332   3.890   2.207   2.327  0.3230 -0.5728 -1.0097
18639TIP3    H277333   3.795   2.111   2.258 -0.7668 -0.7408  0.6735
18640TIP3   OH277334   4.910   3.577   6.002 -0.1064 -0.2214 -0.1118
18640TIP3    H177335   4.874   3.657   6.042  0.7952 -0.3959  1.1255
18640TIP3    H277336   4.833   3.523   5.983 -0.6757  0.6074 -0.2467
18641TIP3   OH277337   0.209   6.262  14.754  0.0378 -0.6884  0.4527
18641TIP3    H177338   0.143   6.203  14.791 -1.5025  0.5872 -0.1644
18641TIP3    H277339   0.250   6.303  14.831 -3.5078  2.3660  1.0001
18642TIP3   OH277340   0.020   5.188  15.516 -0.4656 -0.5268 -0.1571
18642TIP3    H177341   0.032   5.264  15.573  4.0116 -0.0736 -1.3315
18642TIP3    H277342  -0.034   5.220  15.444 -0.3642  0.9283  0.3877
18643TIP3   OH277343   4.839   5.418   3.889 -0.2172  0.0943 -0.2367
18643TIP3    H177344   4.837   5.328   3.922  0.0826 -0.0116 -0.5018
18643TIP3    H277345   4.776   5.419   3.818  0.1841 -0.0565 -0.6010
18644TIP3   OH277346   3.778   6.540  11.318  0.1916  0.4363  0.0091
18644TIP3    H177347   3.852   6.585  11.277 -1.2008  0.7231 -2.4144
18644TIP3    H277348   3.793   6.448  11.299  1.1003  0.2214  1.6303
18645TIP3   OH277349   5.729   1.518  15.365  0.1910 -0.1140 -0.0263
18645TIP3    H177350   5.816   1.538  15.331 -0.0681  1.4676  0.1579
18645TIP3    H277351   5.712   1.427  15.338  0.8933  0.3435 -2.1606
18646TIP3   OH277352   1.049   5.422  16.665  0.3859  0.1589  0.3027
18646TIP3    H177353   1.139   5.416  16.633  0.5632 -2.2050  1.0702
18646TIP3    H277354   1.058   5.439  16.759  0.0670 -0.3924  0.4421
18647TIP3   OH277355   1.763   5.285   2.559  0.0996 -0.2409  0.3567
18647TIP3    H177356   1.697   5.342   2.598  0.2483  0.6463 -0.6291
18647TIP3    H277357   1.820   5.345   2.510  0.7446 -1.1517 -0.0294
18648TIP3   OH277358   3.267   4.415   3.958  0.5345  0.4638 -0.6540
18648TIP3    H177359   3.290   4.323   3.958 -0.4316  0.2074 -0.3144
18648TIP3    H277360   3.351   4.461   3.959  1.0391 -0.4171  0.3951
18649TIP3   OH277361   2.761   3.911  13.436 -0.5562  0.0041  0.2051
18649TIP3    H177362   2.745   4.003  13.460 -0.1584  0.0367  0.3500
18649TIP3    H277363   2.698   3.862  13.488 -1.7617  0.2954 -0.9401
18650TIP3   OH277364   4.028   3.615  12.535 -0.1212 -0.4776 -0.1172
18650TIP3    H177365   4.049   3.699  12.494 -1.4373 -0.2523 -0.3680
18650TIP3    H277366   4.108   3.591  12.583 -0.0048  1.3325  0.6662
18651TIP3   OH277367   2.231   2.475   2.871 -1.1178 -0.1095  0.3572
18651TIP3    H177368   2.309   2.427   2.896  1.0980  2.1743 -1.6559
18651TIP3    H277369   2.169   2.461   2.943  0.6762 -2.8939  1.5013
18652TIP3   OH277370   1.091   0.426  17.134 -0.1532 -0.3265 -0.5042
18652TIP3    H177371   1.014   0.477  17.109 -0.0566 -0.3292 -0.8120
18652TIP3    H277372   1.165   0.481  17.109 -0.0506 -0.5531 -0.7028
18653TIP3   OH277373   1.141   1.006   3.871 -0.1771  0.2177 -0.2853
18653TIP3    H177374   1.075   1.070   3.843 -2.2259 -1.7325 -0.2492
18653TIP3    H277375   1.141   0.940   3.801  0.7732 -0.5073  0.3812
18654TIP3   OH277376   2.671   3.149   3.926  0.1769  0.6553 -0.0378
18654TIP3    H177377   2.597   3.191   3.971  0.7503  1.4613  0.1754
18654TIP3    H277378   2.745   3.207   3.944  0.7961  0.0130 -0.5047
18655TIP3   OH277379   3.945   0.920   1.003 -0.8107 -0.5454 -0.0905
18655TIP3    H177380   3.927   0.862   1.077 -0.4303  0.1653  0.5680
18655TIP3    H277381   4.033   0.953   1.018 -1.7197  1.7499  0.6312
18656TIP3   OH277382   0.535   4.876   1.474  0.1394 -0.0416  0.0487
18656TIP3    H177383   0.565   4.960   1.439 -2.0869 -0.2070 -2.6101
18656TIP3    H277384   0.517   4.893   1.567  2.0412  1.6949  0.1666
18657TIP3   OH277385   3.170   5.058   6.689  0.5770  0.0282  0.5554
18657TIP3    H177386   3.219   5.060   6.607  1.3803  2.3696  1.0246
18657TIP3    H277387   3.218   4.996   6.744  1.8524  0.7793  0.3186
18658TIP3   OH277388   0.033   3.471  16.770 -0.7560  0.4991  0.1305
18658TIP3    H177389   0.107   3.506  16.819  0.4907 -0.6798 -0.8357
18658TIP3    H277390   0.018   3.536  16.700 -1.1794  1.1412  0.8048
18659TIP3   OH277391   1.917   2.996   2.356  0.2783  0.1085  0.0202
18659TIP3    H177392   1.889   2.933   2.289 -0.3074 -0.0643  0.4184
18659TIP3    H277393   1.926   3.078   2.309 -0.2128  0.0069 -0.2599
18660TIP3   OH277394   1.613   6.210   0.782 -0.4415  0.5013  0.4766
18660TIP3    H177395   1.662   6.250   0.854 -0.2221  0.2317  0.4782
18660TIP3    H277396   1.617   6.273   0.711 -0.4432  0.6577  0.6163
18661TIP3   OH277397   3.089   4.961  15.687 -0.5128  0.0658  0.0512
18661TIP3    H177398   3.052   4.905  15.756 -0.8880 -2.5891 -2.1306
18661TIP3    H277399   3.072   4.913  15.606  2.0290  1.8731 -1.6938
18662TIP3   OH277400   4.116   0.302   0.387  0.1428  0.2676  0.2270
18662TIP3    H177401   4.070   0.310   0.303 -1.6919 -0.2931  1.1311
18662TIP3    H277402   4.130   0.392   0.415 -0.5576  0.4598 -0.0046
18663TIP3   OH277403   5.464   1.167  14.495 -0.0255 -0.3203 -0.4774
18663TIP3    H177404   5.469   1.262  14.493  0.1660 -0.3067  0.2321
18663TIP3    H277405   5.539   1.137  14.444  0.6841 -0.0887  0.4148
18664TIP3   OH277406   2.289   2.293  17.071 -0.3720 -0.3720 -0.2931
18664TIP3    H177407   2.300   2.281  16.977  1.4202  0.4243 -0.2316
18664TIP3    H277408   2.335   2.375  17.089 -2.0740  0.3332  1.0364
18665TIP3   OH277409   0.099   2.172   3.604  0.0022 -0.0260  0.0090
18665TIP3    H177410   0.192   2.193   3.595 -0.4535  2.1242 -0.2534
18665TIP3    H277411   0.087   2.155   3.698  0.8908 -1.8018 -0.1560
18666TIP3   OH277412   3.452   3.010   0.264  0.2037  0.6556 -0.0919
18666TIP3    H177413   3.489   3.044   0.346  2.3336  2.9475 -1.8322
18666TIP3    H277414   3.498   2.928   0.249  1.1870  1.1703  0.0705
18667TIP3   OH277415   2.745   4.573   5.477 -0.4362 -0.7010 -0.8113
18667TIP3    H177416   2.670   4.605   5.527 -0.3107 -0.6246 -0.6725
18667TIP3    H277417   2.730   4.479   5.469  1.0289 -1.2783  1.9694
18668TIP3   OH277418   4.981   6.764  12.485  0.5599 -0.2615 -0.2272
18668TIP3    H177419   5.043   6.766  12.558  0.4393  0.8586 -0.1336
18668TIP3    H277420   4.960   6.672  12.473 -0.4683 -0.3946  2.0720
18669TIP3   OH277421   4.381   4.181   1.079  0.0806 -0.1269  0.1222
18669TIP3    H177422   4.292   4.147   1.072 -0.1676  0.3963  0.7042
18669TIP3    H277423   4.416   4.174   0.990  0.0774 -1.9793  0.2217
18670TIP3   OH277424   5.873   0.869  12.352 -0.2214  0.2118 -0.2842
18670TIP3    H177425   5.832   0.956  12.358 -1.0497 -0.1240 -0.8810
18670TIP3    H277426   5.950   0.883  12.298 -0.0685  0.6736  0.0427
18671TIP3   OH277427   1.717   4.177  15.904 -0.1244  0.0132 -0.4355
18671TIP3    H177428   1.733   4.181  15.810  2.9599 -0.2183 -0.0102
18671TIP3    H277429   1.769   4.102  15.934  0.7007  1.3462  1.7265
18672TIP3   OH277430   3.868   3.556  14.046 -0.0891 -0.3198  0.2195
18672TIP3    H177431   3.839   3.624  13.985 -0.7041 -0.7738  0.0022
18672TIP3    H277432   3.952   3.526  14.012 -0.3261 -0.4160 -0.2798
18673TIP3   OH277433   5.697   3.829   1.881 -0.5077 -0.0954  0.4199
18673TIP3    H177434   5.701   3.796   1.791 -1.2184  1.6403 -0.2929
18673TIP3    H277435   5.771   3.890   1.886 -0.8364  0.2712  0.8048
18674TIP3   OH277436   4.217   0.289   4.757 -0.0783  0.1713 -0.1352
18674TIP3    H177437   4.247   0.214   4.808 -2.9660 -1.0628 -0.0095
18674TIP3    H277438   4.170   0.343   4.821 -0.8498  0.3301 -0.8125
18675TIP3   OH277439   3.983   3.341  15.192  0.2894 -0.1978 -0.3376
18675TIP3    H177440   3.937   3.421  15.217  0.4842 -0.3778  0.6464
18675TIP3    H277441   4.074   3.358  15.214  0.4951 -0.3184 -1.0845
18676TIP3   OH277442   4.712   3.728   1.850  0.6264  0.5742 -0.2066
18676TIP3    H177443   4.772   3.752   1.920  1.5050 -2.1580  0.0709
18676TIP3    H277444   4.768   3.686   1.784 -0.6811 -0.0625 -0.9479
18677TIP3   OH277445   4.995   3.345  12.692  0.0495 -0.4387  0.0200
18677TIP3    H177446   5.017   3.390  12.610 -3.0190  0.6474 -0.3282
18677TIP3    H277447   5.009   3.252  12.673  2.4845 -0.0194 -0.6082
18678TIP3   OH277448   0.813   1.793  14.909  0.2228 -0.8010  0.0859
18678TIP3    H177449   0.785   1.720  14.854 -3.6073  0.7826 -0.3646
18678TIP3    H277450   0.819   1.868  14.849 -3.5457  0.8469  1.4295
18679TIP3   OH277451   4.544   4.227  11.601  0.1887  0.8883  0.6424
18679TIP3    H177452   4.599   4.151  11.581 -0.5409  0.8120 -1.1686
18679TIP3    H277453   4.537   4.227  11.697  0.7317 -0.9398  0.7039
18680TIP3   OH277454   0.767   2.390  14.491  0.9594 -0.1170 -0.1775
18680TIP3    H177455   0.724   2.449  14.553  2.7056  1.8502 -0.7455
18680TIP3    H277456   0.779   2.442  14.412  1.9547 -1.4577 -0.9521
18681TIP3   OH277457   4.345   5.965   4.546  0.5081 -0.3529 -0.1897
18681TIP3    H177458   4.351   6.025   4.621  1.8428 -0.1182 -0.4696
18681TIP3    H277459   4.435   5.946   4.523  0.1020 -1.1763 -1.1601
18682TIP3   OH277460   4.539   6.138   2.829 -0.3576 -0.3037  0.0403
18682TIP3    H177461   4.599   6.170   2.761  0.4314  2.4789  1.8603
18682TIP3    H277462   4.589   6.070   2.875  0.9711  1.0491  0.6898
18683TIP3   OH277463   1.412   4.543   5.795 -0.0948 -0.3324  0.5609
18683TIP3    H177464   1.463   4.499   5.727 -0.4224  1.0404 -0.6501
18683TIP3    H277465   1.473   4.605   5.835 -0.1076 -0.5809  0.9589
18684TIP3   OH277466   2.603   2.439  14.172  0.5990  0.3290 -0.3470
18684TIP3    H177467   2.527   2.431  14.114  0.2233 -2.7068  0.4176
18684TIP3    H277468   2.565   2.446  14.259  1.1851  4.2583 -0.2152
18685TIP3   OH277469   6.206   2.409   0.319 -0.2044  0.1791  0.2765
18685TIP3    H177470   6.198   2.413   0.224  0.4288  0.0931  0.2179
18685TIP3    H277471   6.118   2.387   0.350 -1.1246  2.8808 -0.1082
18686TIP3   OH277472   5.961   6.350   0.701  0.3734  0.4356  0.0979
18686TIP3    H177473   5.967   6.256   0.682  2.4881  0.6209 -0.4181
18686TIP3    H277474   5.893   6.382   0.642 -0.0812 -0.6926 -0.0263
18687TIP3   OH277475   1.033   6.275  15.846  0.0703  0.0265 -0.9882
18687TIP3    H177476   1.022   6.283  15.940 -0.7896 -0.0853 -1.0704
18687TIP3    H277477   0.950   6.305  15.809 -0.0043 -0.9279 -1.6570
18688TIP3   OH277478   6.179   0.268   0.217  0.2484 -0.0192  0.0472
18688TIP3    H177479   6.127   0.190   0.198  1.2456 -0.3682 -1.4179
18688TIP3    H277480   6.233   0.243   0.292  0.7659 -0.8353 -0.5912
18689TIP3   OH277481   3.677   4.118   0.513 -0.1020  0.2193 -0.0465
18689TIP3    H177482   3.697   4.193   0.568 -2.1389 -1.5795  3.5567
18689TIP3    H277483   3.585   4.129   0.490 -0.1201 -0.6105 -0.4217
18690TIP3   OH277484   2.858   0.799   5.841 -0.7189  0.5417  0.0085
18690TIP3    H177485   2.897   0.720   5.879 -1.5424 -1.0567 -2.2507
18690TIP3    H277486   2.776   0.810   5.889 -0.2679  0.4484  0.8119
18691TIP3   OH277487   0.359   0.587   2.915 -0.2226 -0.1207 -0.7382
18691TIP3    H177488   0.411   0.667   2.926  0.6223 -0.9801  2.4740
18691TIP3    H277489   0.390   0.549   2.833  0.8065  1.7718 -1.2883
18692TIP3   OH277490   1.192   5.036   3.355 -0.3763  0.1837  0.2112
18692TIP3    H177491   1.216   5.088   3.432 -1.7937  0.0325  0.7751
18692TIP3    H277492   1.138   4.965   3.389  2.3384 -2.3717 -0.3827
18693TIP3   OH277493   0.545   4.906   4.305 -0.1501  0.0768 -0.4155
18693TIP3    H177494   0.589   4.824   4.328 -0.3782 -0.1770 -0.8635
18693TIP3    H277495   0.554   4.961   4.383 -0.6308 -0.6338  0.1580
18694TIP3   OH277496   0.445   4.301  12.530  0.6631  0.5029  0.1100
18694TIP3    H177497   0.464   4.348  12.611 -3.8602  1.0017  1.1430
18694TIP3    H277498   0.375   4.240  12.554  0.9504 -1.2265 -2.9438
18695TIP3   OH277499   3.423   5.186  14.158  0.3372  0.3015 -0.0703
18695TIP3    H177500   3.444   5.244  14.085  0.5241  0.7545  0.3402
18695TIP3    H277501   3.508   5.153  14.188  0.3402  0.8030  0.4970
18696TIP3   OH277502   2.286   3.500  15.299 -0.7160 -0.3310  0.4864
18696TIP3    H177503   2.324   3.526  15.383  0.8557  0.2435 -0.3548
18696TIP3    H277504   2.331   3.555  15.235 -1.5443 -1.0868 -0.7716
18697TIP3   OH277505   5.765   1.876   1.436 -0.0239 -0.5374  0.4949
18697TIP3    H177506   5.735   1.960   1.469 -0.0271  0.6769 -2.3029
18697TIP3    H277507   5.854   1.867   1.470  2.0007  3.1314 -2.9137
18698TIP3   OH277508   4.878   4.910   3.922 -0.6606  0.0200  0.3042
18698TIP3    H177509   4.930   4.849   3.869  2.2681  0.4278  2.4688
18698TIP3    H277510   4.816   4.948   3.860  0.2164 -2.0660 -2.0242
18699TIP3   OH277511   2.186   6.400   1.435 -0.2510  0.3822  0.6580
18699TIP3    H177512   2.157   6.381   1.524  1.5618 -0.9718  1.0122
18699TIP3    H277513   2.113   6.373   1.380 -1.3396  1.0927  1.7002
18700TIP3   OH277514   6.405   3.161   5.956 -0.0581 -0.8757  0.1305
18700TIP3    H177515   6.310   3.145   5.953 -0.2747  0.2552  0.5880
18700TIP3    H277516   6.435   3.143   5.867 -1.1448  1.2518 -0.7450
18701TIP3   OH277517   6.557   4.405  12.039  0.7223  0.0958  0.5540
18701TIP3    H177518   6.566   4.318  12.078  0.6842 -0.9931 -1.7241
18701TIP3    H277519   6.645   4.428  12.010  0.6519  0.6492  0.7595
18702TIP3   OH277520   4.213   1.719  16.392  0.4568 -0.4792 -0.8917
18702TIP3    H177521   4.293   1.714  16.339  2.2042  1.4015  1.3359
18702TIP3    H277522   4.242   1.702  16.481 -1.4013  1.2715  0.1377
18703TIP3   OH277523   5.474   3.268   5.326 -0.0569  0.0632  0.1755
18703TIP3    H177524   5.420   3.298   5.399  2.1906  4.1959  0.4009
18703TIP3    H277525   5.412   3.249   5.256 -1.9818  1.7071  1.3443
18704TIP3   OH277526   6.735   2.854   3.694  0.9525 -0.0359  0.9740
18704TIP3    H177527   6.642   2.867   3.678  0.8557  0.3447  1.7747
18704TIP3    H277528   6.740   2.775   3.747  1.1529 -0.5035  0.2630
18705TIP3   OH277529   5.917   4.401   5.900  0.2518 -0.5232  0.3119
18705TIP3    H177530   5.916   4.400   5.995  1.4838 -1.9055  0.3502
18705TIP3    H277531   5.977   4.472   5.877 -0.1011 -0.1414  0.5489
18706TIP3   OH277532   4.582   1.845  16.976  0.2281 -0.2421  0.4011
18706TIP3    H177533   4.514   1.831  16.910  0.4726 -0.6078  0.2228
18706TIP3    H277534   4.549   1.799  17.053 -0.2947  0.6066  0.7015
18707TIP3   OH277535   5.077   0.276   3.298 -0.3229  0.8060 -0.6320
18707TIP3    H177536   5.160   0.317   3.324 -1.0020  0.8140  1.7383
18707TIP3    H277537   5.092   0.182   3.306  0.6089  0.4987 -4.1407
18708TIP3   OH277538   2.245   1.667   3.407 -0.1272  0.4052  0.1204
18708TIP3    H177539   2.154   1.686   3.382  0.0885 -0.8374 -1.9114
18708TIP3    H277540   2.242   1.577   3.439  0.3614  0.4445  0.2746
18709TIP3   OH277541   4.886   2.779   0.917 -0.2666 -0.6585 -0.0377
18709TIP3    H177542   4.873   2.738   0.831  1.1295 -0.4026 -0.4066
18709TIP3    H277543   4.977   2.758   0.939 -0.0442  0.8089  0.5341
18710TIP3   OH277544   5.632   3.194  10.744 -0.2029 -0.4817  0.0725
18710TIP3    H177545   5.714   3.241  10.760 -0.6659  0.1439  0.6760
18710TIP3    H277546   5.657   3.101  10.744  0.0444 -0.5343  3.5556
18711TIP3   OH277547   1.611   6.784  13.419  0.0412 -0.2055  0.7844
18711TIP3    H177548   1.580   6.866  13.457  2.0284  0.8727  0.1871
18711TIP3    H277549   1.663   6.744  13.489  1.5208  0.5132  0.1358
18712TIP3   OH277550   1.834   2.630  11.532  0.4134 -0.1421  0.1820
18712TIP3    H177551   1.879   2.545  11.530 -2.2418 -1.6390 -1.4075
18712TIP3    H277552   1.785   2.628  11.615  1.0274  0.2572  0.5631
18713TIP3   OH277553   2.105   3.027  10.576  0.5953  0.0654 -0.1385
18713TIP3    H177554   2.044   2.975  10.628  0.6628  0.5878  0.4759
18713TIP3    H277555   2.188   2.981  10.582  0.5418 -0.0129  0.0008
18714TIP3   OH277556   0.652   2.523  16.640  0.8146  0.1889 -0.2779
18714TIP3    H177557   0.696   2.531  16.724 -0.0859  2.0611  0.0718
18714TIP3    H277558   0.664   2.431  16.615  1.4077 -0.3216  1.7084
18715TIP3   OH277559   3.561   3.131   0.495 -0.1673 -0.5114  0.4222
18715TIP3    H177560   3.644   3.177   0.506  1.1423 -2.8896  1.1828
18715TIP3    H277561   3.572   3.049   0.544 -2.6210 -1.3313 -0.2416
18716TIP3   OH277562   0.304   0.402  13.295  0.9070 -0.0953 -0.2592
18716TIP3    H177563   0.319   0.357  13.379  0.3849 -0.2497 -0.2431
18716TIP3    H277564   0.327   0.493  13.312 -3.1762  0.8334  1.3247
18717TIP3   OH277565   2.869   0.536   0.617  0.0998  0.5158  0.2006
18717TIP3    H177566   2.953   0.490   0.619  0.3129  0.8401 -0.7482
18717TIP3    H277567   2.872   0.589   0.537 -0.3573  1.7825  0.9941
18718TIP3   OH277568   5.331   5.333   5.814 -0.1976  0.2399  0.8636
18718TIP3    H177569   5.281   5.335   5.895 -1.5407 -1.3004  0.1237
18718TIP3    H277570   5.265   5.344   5.745  0.7893  0.5403 -0.0668
18719TIP3   OH277571   2.485   2.588   5.363  0.1242  0.2518 -0.2364
18719TIP3    H177572   2.390   2.596   5.371  0.0570 -0.7818  0.1297
18719TIP3    H277573   2.515   2.677   5.346 -0.9414  0.5299 -0.7335
18720TIP3   OH277574   4.463   3.795   5.284  0.2901  0.1318 -0.3377
18720TIP3    H177575   4.530   3.816   5.219  0.1610 -2.1376 -1.3041
18720TIP3    H277576   4.468   3.699   5.293 -0.5238  0.2473  2.1125
18721TIP3   OH277577   4.431   5.209   3.530  0.1765 -0.3850 -0.6705
18721TIP3    H177578   4.483   5.268   3.474 -1.5445  0.7858 -1.1053
18721TIP3    H277579   4.424   5.255   3.613 -1.6128  0.3199 -1.1753
18722TIP3   OH277580   1.323   1.054   0.675  0.5230  0.0885  0.2307
18722TIP3    H177581   1.243   1.014   0.640 -0.2092 -0.3384  2.2824
18722TIP3    H277582   1.388   0.984   0.670  0.6526  0.2590 -0.8940
18723TIP3   OH277583   5.216   5.087   1.847  0.0273 -0.5169 -0.3924
18723TIP3    H177584   5.167   5.106   1.927 -0.8019  0.5426 -1.1271
18723TIP3    H277585   5.182   5.003   1.817 -0.6310 -0.2686 -0.3561
18724TIP3   OH277586   0.862   0.998   3.966 -0.5241 -0.8594  0.5816
18724TIP3    H177587   0.785   1.002   4.023 -2.3265  0.7607 -1.8028
18724TIP3    H277588   0.903   1.084   3.975  0.3125 -1.2756  0.8646
18725TIP3   OH277589   4.453   1.440   1.895  0.1655  0.4481 -1.4668
18725TIP3    H177590   4.498   1.360   1.923 -0.9092  0.2394 -0.2710
18725TIP3    H277591   4.520   1.507   1.897  1.1111 -0.4173 -2.5679
18726TIP3   OH277592   6.058   3.291  10.693  0.0082 -0.3688 -0.0971
18726TIP3    H177593   5.984   3.344  10.661 -0.6488 -0.2217  1.5521
18726TIP3    H277594   6.134   3.328  10.649 -0.7122  0.5118 -0.6562
18727TIP3   OH277595   4.341   1.484   5.843 -0.8870 -0.6142 -0.6395
18727TIP3    H177596   4.274   1.486   5.912  0.9454 -0.6566  1.2228
18727TIP3    H277597   4.421   1.457   5.888  0.4422 -0.4382 -2.7739
18728TIP3   OH277598   2.598   3.974   2.379  0.3172 -0.3104 -0.0964
18728TIP3    H177599   2.596   3.893   2.328 -0.0914 -0.5065  0.2241
18728TIP3    H277600   2.531   3.962   2.446  0.0364  0.4069 -0.2259
18729TIP3   OH277601   3.229   0.635  15.640  0.3013  0.6387 -0.5012
18729TIP3    H177602   3.161   0.569  15.626  1.3617 -0.6565  0.1993
18729TIP3    H277603   3.181   0.715  15.662 -0.9869 -0.5609  1.2952
18730TIP3   OH277604   3.005   0.749  14.078 -0.4054 -0.0446  0.0079
18730TIP3    H177605   3.047   0.785  14.156  1.7926  0.7569 -1.4476
18730TIP3    H277606   2.961   0.670  14.109 -0.5106  0.7989  2.2180
18731TIP3   OH277607   6.022   1.366  17.093 -0.0934 -0.8732  0.1016
18731TIP3    H177608   6.041   1.331  17.180 -1.1449 -0.5561  0.4757
18731TIP3    H277609   6.011   1.289  17.038 -2.0441 -1.1854  0.8418
18732TIP3   OH277610   1.806   5.279  15.390 -0.2222 -0.2507  0.1938
18732TIP3    H177611   1.820   5.213  15.322  5.0930  0.2859  0.3178
18732TIP3    H277612   1.790   5.361  15.342  2.1256 -0.1280 -0.4889
18733TIP3   OH277613   3.624   3.930  13.803 -0.6116 -0.2681  0.4275
18733TIP3    H177614   3.628   3.977  13.720 -0.2326 -0.6221  0.2457
18733TIP3    H277615   3.671   3.987  13.864  2.3213 -1.6215 -0.3881
18734TIP3   OH277616   0.617   6.066  14.086  0.3688 -0.7386  0.1848
18734TIP3    H177617   0.602   6.042  14.178  0.0253 -1.1177  0.0365
18734TIP3    H277618   0.709   6.044  14.070  1.5215  2.6706  1.4276
18735TIP3   OH277619   0.936   2.173  13.225 -0.0377  0.4910  0.8223
18735TIP3    H177620   0.890   2.179  13.309  1.3965  1.3555  1.5835
18735TIP3    H277621   0.889   2.105  13.177 -1.2949  0.4358  2.0594
18736TIP3   OH277622   0.056   3.449  16.268 -0.0790 -0.1163 -0.0620
18736TIP3    H177623   0.083   3.498  16.191  1.7873 -0.1129  0.5406
18736TIP3    H277624   0.029   3.515  16.331 -0.3062 -0.0384 -0.2410
18737TIP3   OH277625   1.603   6.547   4.661  0.5980 -0.2728  0.6057
18737TIP3    H177626   1.629   6.501   4.580 -1.5203 -0.4424 -0.0656
18737TIP3    H277627   1.574   6.476   4.719 -1.8477  0.0263 -0.1085
18738TIP3   OH277628   2.286   3.074   6.172 -0.5147 -0.4254  0.3338
18738TIP3    H177629   2.319   2.999   6.222  1.3912  1.1868  1.6270
18738TIP3    H277630   2.276   3.144   6.237 -1.7415  0.6231 -0.9178
18739TIP3   OH277631   3.633   4.292   2.012  0.0833  0.1473 -0.1048
18739TIP3    H177632   3.690   4.215   2.017 -0.1022 -0.0843 -1.3122
18739TIP3    H277633   3.573   4.281   2.086  1.2914  0.1695  0.9240
18740TIP3   OH277634   1.924   1.540   4.479 -0.0305 -0.1602 -0.2999
18740TIP3    H177635   1.942   1.612   4.540  0.3973 -0.3238 -0.2289
18740TIP3    H277636   1.848   1.496   4.516  0.7172 -0.7562  0.5697
18741TIP3   OH277637   4.391   4.789  12.145  0.1519  0.4616 -0.6056
18741TIP3    H177638   4.329   4.862  12.146 -1.6340 -0.9726  1.2583
18741TIP3    H277639   4.466   4.822  12.094 -1.8076  2.5066 -2.3968
18742TIP3   OH277640   5.072   3.006  12.820 -0.0796 -0.5325 -0.5160
18742TIP3    H177641   5.130   3.074  12.854  0.3365  0.1914 -2.5411
18742TIP3    H277642   5.129   2.948  12.769 -0.6417 -1.6684  0.1082
18743TIP3   OH277643   6.788   1.047  15.078  0.2664 -0.1513 -0.6880
18743TIP3    H177644   6.781   0.959  15.041  2.9779 -0.2308 -1.2627
18743TIP3    H277645   6.780   1.105  15.002 -2.2745  0.2247 -0.2169
18744TIP3   OH277646   1.729   6.184   2.312 -0.2796  0.3355 -0.1528
18744TIP3    H177647   1.777   6.116   2.265  0.2386  1.1822 -0.8768
18744TIP3    H277648   1.793   6.254   2.323 -0.2548  0.0395  2.1665
18745TIP3   OH277649   4.016   1.472  17.018 -0.4116  0.3510 -0.1887
18745TIP3    H177650   4.033   1.455  16.925 -0.3401  0.3589 -0.1771
18745TIP3    H277651   3.966   1.553  17.018 -1.5862 -0.3574 -0.2902
18746TIP3   OH277652   6.268   2.320  11.425 -0.1792 -0.1690 -0.1990
18746TIP3    H177653   6.257   2.225  11.431 -0.6963 -0.1185 -0.2730
18746TIP3    H277654   6.356   2.332  11.390  0.0424 -0.6134  0.1993
18747TIP3   OH277655   6.169   3.524   1.150  0.2221  0.5145  0.3460
18747TIP3    H177656   6.152   3.615   1.173  0.8435  0.5913  0.5048
18747TIP3    H277657   6.261   3.510   1.171  0.6262  0.3741 -1.3938
18748TIP3   OH277658   4.694   4.571  11.773  0.1165 -0.3179 -0.4229
18748TIP3    H177659   4.776   4.525  11.756  0.1454 -0.7196  0.7166
18748TIP3    H277660   4.630   4.527  11.717  0.6328 -0.1157 -1.1837
18749TIP3   OH277661   2.449   4.435  13.832  0.1088  0.5309  0.2442
18749TIP3    H177662   2.357   4.428  13.858  0.0234  0.6969 -0.0130
18749TIP3    H277663   2.489   4.487  13.902 -0.6199  3.0592 -1.0872
18750TIP3   OH277664   0.662   4.487  14.862  0.2939 -0.0470  0.1145
18750TIP3    H177665   0.640   4.580  14.865  0.4845  0.0378 -0.8511
18750TIP3    H277666   0.580   4.442  14.886  0.1663  0.3694  0.4504
18751TIP3   OH277667   6.112   3.547   4.391 -0.4371  0.2796  0.0704
18751TIP3    H177668   6.047   3.614   4.370 -1.2444  0.5095  2.9537
18751TIP3    H277669   6.063   3.465   4.390 -0.6548  0.3652  1.4781
18752TIP3   OH277670   4.684   1.403  13.474  0.0579 -0.5644 -0.1362
18752TIP3    H177671   4.621   1.473  13.457  0.0081 -0.6397 -0.2682
18752TIP3    H277672   4.658   1.333  13.415 -1.1188 -1.4814  1.4190
18753TIP3   OH277673   4.760   0.008  14.639 -0.0128  0.5225  0.3034
18753TIP3    H177674   4.848   0.015  14.602  0.1274  0.7864  0.6868
18753TIP3    H277675   4.728  -0.076  14.606  1.2272 -0.6643  1.9449
18754TIP3   OH277676   0.355   5.630  11.321  0.3363 -0.7006  0.6207
18754TIP3    H177677   0.294   5.571  11.365 -0.0478 -2.0590 -1.5612
18754TIP3    H277678   0.323   5.718  11.341 -0.3462 -1.2909  2.2149
18755TIP3   OH277679   6.490   4.091  15.448 -0.2598 -0.4647  0.2141
18755TIP3    H177680   6.538   4.114  15.527 -0.0571 -1.3493  0.3634
18755TIP3    H277681   6.553   4.039  15.397  0.3063  1.7114 -1.4555
18756TIP3   OH277682   5.496   6.435   4.186 -0.1258 -0.1559 -0.2897
18756TIP3    H177683   5.569   6.429   4.247  1.2448 -2.7138 -1.9878
18756TIP3    H277684   5.531   6.484   4.111 -0.2448 -1.0890 -0.9684
18757TIP3   OH277685   3.828   3.467  15.835  0.3518 -0.2199 -0.2031
18757TIP3    H177686   3.855   3.410  15.762 -1.5398 -1.0547 -0.2942
18757TIP3    H277687   3.881   3.546  15.824  0.1933 -0.3613 -2.4486
18758TIP3   OH277688   1.991   0.459   0.965 -0.1289 -0.5353  0.1692
18758TIP3    H177689   2.011   0.524   1.033  1.0916 -1.6767  0.9638
18758TIP3    H277690   1.906   0.485   0.931 -0.4081  0.5412  1.5883
18759TIP3   OH277691   1.542   2.862  12.431  0.0454 -0.0073  0.1287
18759TIP3    H177692   1.462   2.855  12.378 -0.1006  0.3712  0.2936
18759TIP3    H277693   1.515   2.913  12.508 -0.4266 -2.7995  1.9456
18760TIP3   OH277694   5.136   3.395  15.151 -0.4221  0.0341  0.1060
18760TIP3    H177695   5.129   3.440  15.235 -0.6339 -0.6628  0.4662
18760TIP3    H277696   5.207   3.332  15.163 -2.1461 -1.9217  0.6526
18761TIP3   OH277697   2.013   0.348  15.880 -0.1305 -0.0553  0.4519
18761TIP3    H177698   1.936   0.291  15.891 -0.8135  0.5630 -0.8439
18761TIP3    H277699   2.070   0.298  15.821 -1.2261  0.9820 -1.6028
18762TIP3   OH277700   0.507   6.672   2.912  0.0056 -0.0897 -0.7127
18762TIP3    H177701   0.548   6.643   2.831  1.6702 -0.9814  0.3928
18762TIP3    H277702   0.566   6.741   2.945 -1.4261  1.3027 -0.9610
18763TIP3   OH277703   4.434   3.931   2.476 -0.2114 -0.1717 -0.5003
18763TIP3    H177704   4.358   3.904   2.424 -1.2914 -1.7346  1.7673
18763TIP3    H277705   4.505   3.940   2.412 -1.5265 -1.7627 -2.2668
18764TIP3   OH277706   0.583   5.292   0.640  0.1691 -0.4086  0.2101
18764TIP3    H177707   0.561   5.333   0.724 -1.8592 -0.9313 -0.0056
18764TIP3    H277708   0.642   5.354   0.597  0.5922  0.2386  1.6796
18765TIP3   OH277709   5.850   1.944   0.592 -0.7484  0.2798 -0.5623
18765TIP3    H177710   5.786   2.015   0.582 -0.4807  0.8796  1.5471
18765TIP3    H277711   5.910   1.975   0.660  1.4260 -0.5511 -2.0091
18766TIP3   OH277712   4.711   4.035  11.540 -0.3838 -0.1096 -0.1391
18766TIP3    H177713   4.709   3.979  11.462  1.7572 -2.6870  1.5016
18766TIP3    H277714   4.656   3.989  11.603 -0.3084  0.7892  0.5958
18767TIP3   OH277715   1.578   6.299   0.236 -0.5100  0.2125 -0.0258
18767TIP3    H177716   1.541   6.217   0.204 -0.3707 -0.0645  0.5176
18767TIP3    H277717   1.661   6.307   0.188  0.1413 -0.6674  0.9105
18768TIP3   OH277718   6.775   3.860   2.947  0.0680 -0.2742 -0.1593
18768TIP3    H177719   6.756   3.772   2.978 -0.4567 -0.5201 -1.1528
18768TIP3    H277720   6.754   3.858   2.854  1.6911  0.4060 -0.5800
18769TIP3   OH277721   4.262   6.507   2.884  0.2351 -0.5439 -0.3464
18769TIP3    H177722   4.257   6.418   2.850  1.3473 -0.6670 -0.2333
18769TIP3    H277723   4.338   6.545   2.840 -0.9434  0.7722 -1.3222
18770TIP3   OH277724   2.056   3.410   4.805 -0.0499 -0.2231 -0.0350
18770TIP3    H177725   2.130   3.452   4.850  0.6890 -2.2820  0.8186
18770TIP3    H277726   1.979   3.456   4.838  0.7627  1.2771 -0.1291
18771TIP3   OH277727   1.967   5.394   4.379  0.5308  0.2193 -0.2171
18771TIP3    H177728   2.022   5.320   4.407  0.9129  0.7359  0.4210
18771TIP3    H277729   1.957   5.381   4.285  0.5478 -0.6769 -0.1049
18772TIP3   OH277730   0.413   0.268   3.554  0.2871 -0.0103 -0.1563
18772TIP3    H177731   0.395   0.221   3.635  1.3074  0.4582  0.3531
18772TIP3    H277732   0.375   0.212   3.485 -1.1022 -0.1307  0.6605
18773TIP3   OH277733   1.953   2.336   4.144  0.0890 -0.2627  0.2316
18773TIP3    H177734   2.028   2.318   4.087  0.4893 -3.6554  1.5904
18773TIP3    H277735   1.990   2.384   4.218  0.4702 -0.0463 -0.0927
18774TIP3   OH277736   0.622   6.496   0.676  0.2808 -0.0110 -0.3677
18774TIP3    H177737   0.586   6.583   0.694  2.7335  1.0550 -0.2522
18774TIP3    H277738   0.709   6.497   0.716  1.2221 -1.7718 -2.2019
18775TIP3   OH277739   2.735   0.705   4.945  0.3561  0.5088 -0.1685
18775TIP3    H177740   2.793   0.645   4.994  0.6742  1.9657  1.3415
18775TIP3    H277741   2.649   0.663   4.950  0.6580 -0.0775  0.4434
18776TIP3   OH277742   3.224   4.220   2.212 -0.1204  0.4986 -0.1007
18776TIP3    H177743   3.142   4.244   2.169  0.9882 -0.1750 -2.8239
18776TIP3    H277744   3.200   4.202   2.302 -2.8374  1.0048 -0.6445
18777TIP3   OH277745   1.518   4.786  13.497  0.0337 -0.1454 -0.4097
18777TIP3    H177746   1.599   4.754  13.456  1.0657  1.2342  0.4633
18777TIP3    H277747   1.534   4.879  13.510 -2.2478  0.4550 -1.4301
18778TIP3   OH277748   1.048   6.063   4.199 -0.6759 -0.5043  0.0459
18778TIP3    H177749   0.989   6.139   4.200 -0.2498 -0.1772  0.6561
18778TIP3    H277750   1.013   6.004   4.266 -0.9375 -0.7986 -0.3463
18779TIP3   OH277751   1.765   0.780   0.480 -0.1021 -0.5720 -0.0713
18779TIP3    H177752   1.856   0.755   0.496 -0.0739  0.1777  1.0152
18779TIP3    H277753   1.740   0.730   0.402  0.6418 -2.2323  0.7073
18780TIP3   OH277754   0.417   1.126  13.000 -0.6136 -0.0161  0.5958
18780TIP3    H177755   0.325   1.140  13.022 -1.3906 -2.9607 -0.3011
18780TIP3    H277756   0.422   1.146  12.906 -0.5714 -0.6866  0.4492
18781TIP3   OH277757   1.065   1.014   5.440  0.3833  0.1706 -0.8027
18781TIP3    H177758   1.041   1.015   5.532 -3.6281 -0.6873 -1.6541
18781TIP3    H277759   1.106   0.928   5.427  3.6678  1.3767  0.5824
18782TIP3   OH277760   1.773   4.654  14.372  0.8993  0.0610 -0.1789
18782TIP3    H177761   1.814   4.676  14.289  1.0044  1.2780  0.1839
18782TIP3    H277762   1.846   4.626  14.428  0.8914 -0.2936 -0.3456
18783TIP3   OH277763   0.126   5.769  11.905 -0.0258  0.0997  1.0366
18783TIP3    H177764   0.191   5.838  11.920  0.5641  0.1004 -1.1384
18783TIP3    H277765   0.152   5.730  11.822 -1.6468 -1.2886  1.1266
18784TIP3   OH277766   2.405   1.164  13.499 -0.3701 -0.4211  0.6186
18784TIP3    H177767   2.333   1.185  13.560 -1.5468  0.2178 -0.9181
18784TIP3    H277768   2.370   1.187  13.413  1.6398 -0.2834 -0.1996
18785TIP3   OH277769   2.828   6.615   0.665  0.2768  0.1223  0.1864
18785TIP3    H177770   2.800   6.627   0.756 -1.0312 -0.4541 -0.1078
18785TIP3    H277771   2.850   6.703   0.634  1.1839  0.2620  1.1864
18786TIP3   OH277772   1.883   6.000   5.371 -0.3419 -0.0230 -0.4478
18786TIP3    H177773   1.788   5.993   5.382 -0.2435 -1.1813 -0.1409
18786TIP3    H277774   1.914   6.031   5.456 -0.2223 -2.3228  0.4237
18787TIP3   OH277775   4.852   4.886  14.078 -0.0340 -0.5726 -0.1636
18787TIP3    H177776   4.810   4.808  14.040 -0.7448 -1.0599  1.5337
18787TIP3    H277777   4.934   4.854  14.115 -0.1079 -0.4193  0.1325
18788TIP3   OH277778   4.479   2.099  15.438  0.4148 -0.0418  0.4476
18788TIP3    H177779   4.385   2.119  15.430  0.2674 -1.5296 -3.6725
18788TIP3    H277780   4.523   2.174  15.397  0.8206 -0.7289 -0.3839
18789TIP3   OH277781   6.711   6.650  10.593 -0.4525 -0.1070  0.6034
18789TIP3    H177782   6.789   6.704  10.588 -0.8665  0.4921  0.4542
18789TIP3    H277783   6.725   6.592  10.668 -0.0706  0.3183  0.8587
18790TIP3   OH277784   5.840   2.056  15.503  0.0411  0.0219  0.3205
18790TIP3    H177785   5.878   2.101  15.578  0.7237  0.5122 -0.3093
18790TIP3    H277786   5.784   1.988  15.541  0.5909  0.0896  1.2626
18791TIP3   OH277787   4.279   5.527   2.385  0.1673 -0.3848 -1.0454
18791TIP3    H177788   4.359   5.489   2.421  0.1226 -0.8816 -1.4648
18791TIP3    H277789   4.214   5.456   2.389 -0.1339 -0.1154 -1.1090
18792TIP3   OH277790   3.628   4.659   2.978  0.5494 -0.0317 -0.2703
18792TIP3    H177791   3.616   4.746   2.939  3.5542  0.5008 -0.2164
18792TIP3    H277792   3.580   4.663   3.061  1.1328  1.7942  0.0135
18793TIP3   OH277793   0.216   2.431   5.777  0.2957  0.0931 -0.5788
18793TIP3    H177794   0.277   2.408   5.847 -0.3016 -2.4286 -0.7754
18793TIP3    H277795   0.273   2.460   5.705  0.9879  1.4317  0.4738
18794TIP3   OH277796   3.571   0.617   3.420 -0.0529 -0.0626 -0.2943
18794TIP3    H177797   3.505   0.672   3.462 -0.4021 -0.5787 -0.1564
18794TIP3    H277798   3.581   0.654   3.332  2.4795  2.5999  0.9379
18795TIP3   OH277799   4.671   0.009  10.444  0.4479  0.2040 -0.1939
18795TIP3    H177800   4.584   0.022  10.406 -0.0633  0.2186  0.9570
18795TIP3    H277801   4.715  -0.051  10.383 -0.6820 -0.5296 -0.3196
18796TIP3   OH277802   0.735   5.554   0.009  0.0891  0.3435  0.2474
18796TIP3    H177803   0.686   5.592  -0.065 -1.7516 -0.7195  0.8738
18796TIP3    H277804   0.710   5.607   0.084  1.1192  0.7366  0.3347
18797TIP3   OH277805   6.036   0.446   0.583 -0.0367 -0.0633  0.1325
18797TIP3    H177806   6.115   0.465   0.534 -0.4253  0.8926 -0.1533
18797TIP3    H277807   5.976   0.408   0.519 -0.0350 -0.1680  0.1938
18798TIP3   OH277808   0.700   5.334   4.851  0.1450  0.1304 -0.1809
18798TIP3    H177809   0.702   5.422   4.890 -1.7082  0.2528 -0.2705
18798TIP3    H277810   0.767   5.285   4.899  2.1151  1.8991 -0.9721
18799TIP3   OH277811   1.538   3.012  13.725  0.5606  0.2760 -0.2661
18799TIP3    H177812   1.532   2.929  13.678  2.5455 -0.9463  1.4381
18799TIP3    H277813   1.624   3.010  13.766 -0.8356  1.3748  3.0620
18800TIP3   OH277814   6.172   3.611   0.574  0.2733 -0.3057  0.2597
18800TIP3    H177815   6.168   3.630   0.668 -1.4391  0.8071  0.0100
18800TIP3    H277816   6.229   3.535   0.567  1.4087  0.3210  2.0771
18801TIP3   OH277817   5.639   1.633   5.349 -0.0172  0.7568 -0.1754
18801TIP3    H177818   5.729   1.626   5.379  0.5532  1.4829 -1.6011
18801TIP3    H277819   5.596   1.554   5.381  1.6881 -0.7036 -1.3157
18802TIP3   OH277820   2.670   5.414  11.048 -0.2771 -0.1109  0.4868
18802TIP3    H177821   2.631   5.358  10.980 -0.8969  0.7710  0.0940
18802TIP3    H277822   2.760   5.384  11.055  0.3925  1.0339 -2.1268
18803TIP3   OH277823   3.216   6.391   1.139 -0.0075 -0.1952  0.0928
18803TIP3    H177824   3.240   6.484   1.133 -1.5861  0.2415  0.1316
18803TIP3    H277825   3.262   6.360   1.217 -0.5388  0.9277  0.8914
18804TIP3   OH277826   1.281   1.615  16.550  0.0905  0.2507  0.4986
18804TIP3    H177827   1.343   1.664  16.496 -1.3793  1.5209 -0.0908
18804TIP3    H277828   1.213   1.586  16.488  0.1995 -1.3630  1.0823
18805TIP3   OH277829   3.264   4.774  12.283  0.6170 -0.2076 -0.1639
18805TIP3    H177830   3.178   4.733  12.291 -0.1598  1.4517  0.4146
18805TIP3    H277831   3.318   4.729  12.348 -0.2837 -0.1227  0.6633
18806TIP3   OH277832   0.297   0.946  14.573  0.0077 -0.0096 -0.1955
18806TIP3    H177833   0.392   0.938  14.578  0.2446  0.0222 -2.8976
18806TIP3    H277834   0.282   1.020  14.514 -1.7280  0.5751  0.9039
18807TIP3   OH277835   2.726   1.758   5.781  0.1852  0.1725 -0.1384
18807TIP3    H177836   2.754   1.815   5.710  1.0235  0.5301  0.4553
18807TIP3    H277837   2.712   1.673   5.740  1.6242  0.1248 -0.5770
18808TIP3   OH277838   2.715   6.132  16.464 -0.3468 -0.3615  0.1395
18808TIP3    H177839   2.780   6.196  16.494  0.3776 -0.4964 -1.0555
18808TIP3    H277840   2.668   6.107  16.543 -0.9412  1.9466  0.5982
18809TIP3   OH277841   3.134   3.769  16.997 -0.2829  0.1222  0.1870
18809TIP3    H177842   3.212   3.741  16.949 -0.1247  1.2146 -0.2426
18809TIP3    H277843   3.105   3.692  17.045  0.6531 -0.4879 -0.2094
18810TIP3   OH277844   4.368   1.978   6.344  0.0698  0.0446 -0.2831
18810TIP3    H177845   4.375   2.072   6.325  0.7099 -0.0765 -0.6654
18810TIP3    H277846   4.285   1.970   6.391  0.5083  0.9529  0.6903
18811TIP3   OH277847   3.198   3.860  13.502  0.0083 -0.3591  0.4441
18811TIP3    H177848   3.283   3.832  13.537 -0.5379 -1.2784  1.0727
18811TIP3    H277849   3.170   3.929  13.562  0.8054  0.7413 -0.4119
18812TIP3   OH277850   1.733   1.674  14.193  0.0318 -0.4070  0.0887
18812TIP3    H177851   1.788   1.690  14.270  1.4449 -0.0417 -0.9596
18812TIP3    H277852   1.729   1.759  14.149 -1.0430 -0.5382 -0.0889
18813TIP3   OH277853   4.085   2.001   6.439  0.2430  0.8637 -0.3063
18813TIP3    H177854   4.001   1.959   6.460  0.2919  1.3237  0.9001
18813TIP3    H277855   4.064   2.094   6.428  0.5761  0.9736 -0.0479
18814TIP3   OH277856   0.272   3.735  12.306 -0.2365 -0.0279 -0.6566
18814TIP3    H177857   0.211   3.683  12.357 -0.5585  0.7533 -0.2276
18814TIP3    H277858   0.280   3.817  12.354  0.5870  0.1596 -1.0955
18815TIP3   OH277859   2.659   0.909   3.311 -0.0204  0.1993 -0.2175
18815TIP3    H177860   2.667   0.955   3.227  0.6278 -0.0052 -0.2740
18815TIP3    H277861   2.575   0.864   3.306 -1.0137  1.9226  0.1132
18816TIP3   OH277862   3.533   1.003  10.936 -0.1073 -0.7067 -0.1376
18816TIP3    H177863   3.445   0.983  10.903  0.4366 -2.8999 -0.3870
18816TIP3    H277864   3.543   0.948  11.014  2.0312 -2.7119 -1.6964
18817TIP3   OH277865   0.279   2.217   4.193 -0.0262  0.4507 -0.1943
18817TIP3    H177866   0.290   2.285   4.259  1.0059 -0.3796  0.5228
18817TIP3    H277867   0.355   2.226   4.136  0.1723 -0.1608 -0.0336
18818TIP3   OH277868   2.815   6.460   1.709 -0.2009  0.1686 -0.1885
18818TIP3    H177869   2.819   6.477   1.803  3.2932 -1.6976  0.1752
18818TIP3    H277870   2.760   6.383   1.701  1.0464 -0.8500  0.6386
18819TIP3   OH277871   3.959   6.526  14.574 -0.6524 -0.1418  0.1367
18819TIP3    H177872   3.964   6.534  14.479  0.2523  0.3822  0.2160
18819TIP3    H277873   3.981   6.613  14.607  2.0254 -1.0088  0.8773
18820TIP3   OH277874   2.240   5.016  11.014  0.4270  0.5548 -0.2741
18820TIP3    H177875   2.157   4.970  10.998 -0.6375  1.5334  1.9844
18820TIP3    H277876   2.302   4.947  11.035 -0.5309 -0.0363  0.7241
18821TIP3   OH277877   3.491   6.723  13.844 -0.6960  0.3986 -0.1118
18821TIP3    H177878   3.576   6.765  13.829 -0.1411 -0.5137  0.4086
18821TIP3    H277879   3.461   6.699  13.756 -0.7385  1.3137 -0.3575
18822TIP3   OH277880   3.666   0.841   0.502 -0.0078  0.1015  0.3142
18822TIP3    H177881   3.705   0.759   0.474  0.7527  0.1333  1.2210
18822TIP3    H277882   3.739   0.902   0.509 -0.5909  0.9399 -0.5708
18823TIP3   OH277883   3.118   1.937  15.397  0.4142  0.0267 -0.2907
18823TIP3    H177884   3.063   1.871  15.438 -0.9214  2.4007  2.0207
18823TIP3    H277885   3.187   1.887  15.353 -0.3850 -2.8622  1.4926
18824TIP3   OH277886   4.766   0.221  16.545 -0.1494 -0.2552  0.3513
18824TIP3    H177887   4.751   0.285  16.476  0.8332 -1.5725 -1.1640
18824TIP3    H277888   4.685   0.172  16.551 -0.1473 -0.3152 -0.0762
18825TIP3   OH277889   6.257   3.800  15.567  0.0069  0.0871  0.3204
18825TIP3    H177890   6.294   3.720  15.530  0.4732  0.7097 -0.5998
18825TIP3    H277891   6.314   3.821  15.641  0.5721  0.2023 -0.1481
18826TIP3   OH277892   3.030   5.793   0.822 -0.3347 -0.0510  0.3250
18826TIP3    H177893   3.029   5.887   0.844 -0.3862 -0.2016  0.9781
18826TIP3    H277894   2.949   5.780   0.773 -0.3814  0.2230  0.3254
18827TIP3   OH277895   6.595   4.919  10.357 -0.1704 -0.1540 -0.3990
18827TIP3    H177896   6.668   4.950  10.304  0.8571 -2.3212 -0.3527
18827TIP3    H277897   6.622   4.935  10.448 -0.7510  1.0611 -0.4200
18828TIP3   OH277898   0.170   3.323  12.608 -0.7913 -0.5253 -0.6231
18828TIP3    H177899   0.150   3.263  12.536  0.0015  0.1786 -1.4540
18828TIP3    H277900   0.108   3.395  12.597 -0.3978 -0.2212 -0.8418
18829TIP3   OH277901   0.776   2.557  16.344 -0.5722  0.1539 -0.3090
18829TIP3    H177902   0.760   2.496  16.272 -0.6381  0.3013 -0.4207
18829TIP3    H277903   0.774   2.502  16.423 -2.4979  0.2552 -0.2231
18830TIP3   OH277904   6.088   0.091  13.043  0.0726  0.2776 -0.4759
18830TIP3    H177905   6.160   0.152  13.029 -0.4997  0.9485 -0.5901
18830TIP3    H277906   6.101   0.022  12.979 -1.2284  2.1249 -2.9114
18831TIP3   OH277907   4.992   4.302   4.587  0.1682  0.3658 -0.0322
18831TIP3    H177908   5.076   4.286   4.630  0.3931 -0.3103 -0.7195
18831TIP3    H277909   4.927   4.275   4.652  0.4899  0.3001  0.2669
18832TIP3   OH277910   1.211   1.317   0.373  0.5022 -0.5365  0.0298
18832TIP3    H177911   1.206   1.254   0.302 -0.6781 -0.1973 -0.2173
18832TIP3    H277912   1.155   1.281   0.442 -0.6582  0.4703 -0.3364
18833TIP3   OH277913   3.390   2.642  14.397 -0.1234  0.3517 -0.1678
18833TIP3    H177914   3.382   2.556  14.356 -1.3516  0.5437 -0.3706
18833TIP3    H277915   3.413   2.623  14.488 -0.7231 -0.2116 -0.1261
18834TIP3   OH277916   3.807   0.579   3.856  0.5562  0.4667  0.1129
18834TIP3    H177917   3.799   0.581   3.760 -2.1054 -0.1870  0.2463
18834TIP3    H277918   3.809   0.486   3.878  0.0159  0.5988  0.7367
18835TIP3   OH277919   3.754   5.277  15.690 -0.0549  0.1855  0.1215
18835TIP3    H177920   3.660   5.294  15.686  0.2545  1.8238 -0.6980
18835TIP3    H277921   3.793   5.340  15.629  1.6149 -0.1804  0.7616
18836TIP3   OH277922   1.946   2.798  12.866 -0.2012 -0.2079 -0.0195
18836TIP3    H177923   1.957   2.819  12.959 -2.3904 -0.5367  0.3784
18836TIP3    H277924   1.894   2.717  12.866 -0.7677  0.1306 -1.5303
18837TIP3   OH277925   3.002   3.282   0.744  0.3547  0.1237  0.0024
18837TIP3    H177926   3.009   3.190   0.721  1.4919  0.0776  0.4332
18837TIP3    H277927   3.048   3.328   0.674  1.6046  0.1798  0.8301
18838TIP3   OH277928   1.040   6.544   4.238  0.0232 -0.0474 -0.4439
18838TIP3    H177929   1.023   6.592   4.319 -1.0945  0.7814 -1.1490
18838TIP3    H277930   0.997   6.459   4.252 -3.3345  1.3154 -1.4373
18839TIP3   OH277931   2.483   1.915   5.795  0.4104 -0.2054 -0.1796
18839TIP3    H177932   2.560   1.858   5.782  0.9207  0.7908 -1.8888
18839TIP3    H277933   2.508   1.973   5.866  0.1684 -1.6114  1.0911
18840TIP3   OH277934   5.243   3.205  12.898 -0.2154 -0.3574 -0.4128
18840TIP3    H177935   5.266   3.295  12.919 -0.8394 -0.2520 -0.1863
18840TIP3    H277936   5.323   3.169  12.859 -0.0477  0.3681 -0.7593
18841TIP3   OH277937   1.918   1.611   0.939  0.3838  1.0533  0.0441
18841TIP3    H177938   1.850   1.603   1.006 -0.4853  0.2722 -0.9069
18841TIP3    H277939   1.997   1.631   0.989  0.0052 -0.6550  1.4263
18842TIP3   OH277940   1.742   5.191  13.888 -0.3704 -0.1007 -0.1337
18842TIP3    H177941   1.753   5.252  13.960 -1.4352  1.4602 -1.2326
18842TIP3    H277942   1.667   5.136  13.914  0.0101 -0.3447  0.4567
18843TIP3   OH277943   1.469   2.565   4.892 -0.2294 -0.1578  0.0941
18843TIP3    H177944   1.546   2.574   4.949  0.3720  0.0945 -0.7417
18843TIP3    H277945   1.428   2.651   4.893 -0.0361 -0.0642 -0.1157
18844TIP3   OH277946   5.905   0.662  11.196 -0.8759  0.1034  0.1132
18844TIP3    H177947   5.863   0.600  11.137 -0.7561  0.1772 -0.0510
18844TIP3    H277948   5.948   0.606  11.262 -1.7780  0.0481  0.6634
18845TIP3   OH277949   3.258   4.930   4.828 -0.2073  0.1412  0.5740
18845TIP3    H177950   3.213   4.846   4.836 -0.2438  0.1673  0.6434
18845TIP3    H277951   3.216   4.973   4.753  0.4446 -0.2936 -0.0570
18846TIP3   OH277952   2.340   1.455  14.956 -0.4459  0.2570  0.1103
18846TIP3    H177953   2.279   1.403  14.904 -0.4467  1.5562 -1.2558
18846TIP3    H277954   2.396   1.390  14.999 -1.1907 -0.8920 -0.6073
18847TIP3   OH277955   0.137   5.385   4.261  0.3770 -0.4933  0.2171
18847TIP3    H177956   0.087   5.384   4.342 -1.2418 -0.2986 -0.7362
18847TIP3    H277957   0.212   5.328   4.278 -0.4064 -1.1675  1.5442
18848TIP3   OH277958   5.875   3.331  15.436  0.1001 -0.2855 -0.1529
18848TIP3    H177959   5.953   3.277  15.427 -0.7443 -1.4798 -0.6082
18848TIP3    H277960   5.832   3.326  15.350 -0.8834 -0.3355  0.3215
18849TIP3   OH277961   4.726   6.012  12.878 -0.1436 -0.0967 -0.2494
18849TIP3    H177962   4.807   5.999  12.828  0.0463 -1.8482  0.4214
18849TIP3    H277963   4.658   5.970  12.826 -0.2192 -0.5428  0.1968
18850TIP3   OH277964   5.958   1.669   0.559  0.1374  0.1906  0.2461
18850TIP3    H177965   5.925   1.756   0.577 -1.9114 -0.5329  0.2653
18850TIP3    H277966   5.926   1.648   0.471 -0.3506 -0.9435  0.6681
18851TIP3   OH277967   6.242   6.413   0.603  0.7239  0.2124  0.0500
18851TIP3    H177968   6.223   6.393   0.512  1.9649  0.1423 -0.2090
18851TIP3    H277969   6.157   6.406   0.647  0.1089  0.2597 -1.0894
18852TIP3   OH277970   4.780   0.769   3.554 -0.0414 -0.0305 -0.0407
18852TIP3    H177971   4.755   0.753   3.463  1.3636 -2.8862 -0.0552
18852TIP3    H277972   4.756   0.860   3.570 -0.3979  0.5589 -3.2273
18853TIP3   OH277973   5.201   4.027  15.932  0.1704  0.7627 -0.2329
18853TIP3    H177974   5.287   4.010  15.970  1.2473  1.4362 -2.2219
18853TIP3    H277975   5.152   4.071  16.002  1.6226  0.8619  0.7674
18854TIP3   OH277976   6.145   1.453  13.628  0.2838 -0.2918  0.4697
18854TIP3    H177977   6.059   1.410  13.635  0.0387  0.3206  1.4957
18854TIP3    H277978   6.198   1.410  13.696  0.5923 -0.2172  0.2791
18855TIP3   OH277979   3.294   0.548  15.047 -0.7966  0.4974  0.2539
18855TIP3    H177980   3.361   0.549  15.115 -0.3772 -0.5292 -0.1226
18855TIP3    H277981   3.214   0.577  15.092 -0.7850 -1.2035  1.4880
18856TIP3   OH277982   2.582   1.758  13.303 -0.2450  0.0844 -0.4501
18856TIP3    H177983   2.540   1.830  13.351  0.0571 -0.4483  0.6560
18856TIP3    H277984   2.535   1.680  13.333 -0.1727 -0.2470 -1.1864
18857TIP3   OH277985   0.094   1.069   3.541 -0.6160 -0.6568 -0.6459
18857TIP3    H177986   0.024   1.116   3.495 -1.2810  0.1930  1.1661
18857TIP3    H277987   0.053   0.988   3.571 -0.4295 -0.7925 -0.7524
18858TIP3   OH277988   0.120   6.166  15.990 -0.5183  0.1514 -0.2011
18858TIP3    H177989   0.135   6.093  16.050  1.0840  0.9861  0.4501
18858TIP3    H277990   0.041   6.209  16.024  0.0311  0.2620  0.9809
18859TIP3   OH277991   2.739   0.978   2.397  0.1404 -0.4382  0.5072
18859TIP3    H177992   2.783   0.929   2.466 -0.0319  0.7658  1.5151
18859TIP3    H277993   2.654   1.001   2.435 -0.0794 -0.0217 -0.2248
18860TIP3   OH277994   6.151   4.317   4.701  0.2141 -0.3994  0.0658
18860TIP3    H177995   6.179   4.386   4.641 -0.1997 -0.9604 -0.7825
18860TIP3    H277996   6.121   4.365   4.779  1.3386  0.3059  0.0965
18861TIP3   OH277997   4.758   3.099   2.699 -0.2324  0.1452  0.5691
18861TIP3    H177998   4.711   3.160   2.756 -1.3865 -1.6139  1.6127
18861TIP3    H277999   4.702   3.088   2.623 -0.0845  0.3059  0.4378
18862TIP3   OH278000   3.937   3.784  12.834  0.3798 -0.2872 -1.0670
18862TIP3    H178001   4.023   3.748  12.815  0.7676 -0.7131  1.2376
18862TIP3    H278002   3.950   3.879  12.835  1.1742 -0.3821  0.5578
18863TIP3   OH278003   2.794   1.909   5.188 -0.5336 -0.5472 -0.3746
18863TIP3    H178004   2.738   1.848   5.236 -1.5983  0.2150 -0.5932
18863TIP3    H278005   2.850   1.948   5.254 -1.3211 -0.2174  0.1203
18864TIP3   OH278006   2.452   4.634   4.577 -0.0945  0.0922  0.1172
18864TIP3    H178007   2.394   4.559   4.583  1.5062 -1.2063  0.2554
18864TIP3    H278008   2.449   4.660   4.485  0.8176 -1.4323 -0.3825
18865TIP3   OH278009   0.924   2.768  11.828 -0.1105  0.1826 -0.2504
18865TIP3    H178010   0.845   2.816  11.807 -0.3336 -0.6377 -1.3875
18865TIP3    H278011   0.995   2.821  11.790 -0.3179 -0.1591 -1.1428
18866TIP3   OH278012   0.751   0.724   5.012  0.0421 -0.5633 -0.1776
18866TIP3    H178013   0.672   0.670   5.015  1.5546 -2.8850  1.4571
18866TIP3    H278014   0.816   0.669   4.970  1.2970  0.5392  0.2392
18867TIP3   OH278015   3.355   5.242  11.622 -0.2675  0.1245  0.0586
18867TIP3    H178016   3.369   5.149  11.601  0.9320  0.3353 -0.1606
18867TIP3    H278017   3.269   5.245  11.663 -1.1168 -0.8364 -1.5445
18868TIP3   OH278018   0.870   0.352   2.773 -0.3381 -0.0452 -0.1564
18868TIP3    H178019   0.819   0.433   2.781  0.4122  0.3936  0.2816
18868TIP3    H278020   0.961   0.380   2.782 -0.1029 -1.0164  0.6071
18869TIP3   OH278021   1.425   2.813  12.954 -0.1561  0.8778 -0.2389
18869TIP3    H178022   1.352   2.762  12.989  2.3628 -2.6677  0.4808
18869TIP3    H278023   1.412   2.810  12.859 -0.7451 -0.0414 -0.1432
18870TIP3   OH278024   5.339   6.315  12.911 -0.0423 -0.5981  0.0315
18870TIP3    H178025   5.287   6.386  12.875 -0.0505  0.3665  1.8802
18870TIP3    H278026   5.422   6.320  12.862  0.5468  1.6785  1.1316
18871TIP3   OH278027   0.050   3.710  13.445 -0.6671  0.1450  0.3921
18871TIP3    H178028   0.028   3.721  13.352  0.3172 -1.3203 -0.0466
18871TIP3    H278029   0.142   3.681  13.444 -0.5364  0.4314  1.8517
18872TIP3   OH278030   5.641   3.946  10.943  0.5150  0.0969  0.2521
18872TIP3    H178031   5.562   3.902  10.910 -0.0960  0.6471  0.9363
18872TIP3    H278032   5.707   3.931  10.875 -0.1189 -0.5550 -0.2365
18873TIP3   OH278033   0.126   2.367  15.961 -0.3049  0.3696  0.3839
18873TIP3    H178034   0.136   2.385  16.054 -0.4607  0.9542  0.2965
18873TIP3    H278035   0.214   2.350  15.929 -0.1875  0.6827  0.5400
18874TIP3   OH278036   4.480   1.840  13.556  0.0524 -0.4637 -0.4905
18874TIP3    H178037   4.445   1.926  13.579  1.0609 -0.0679 -0.3880
18874TIP3    H278038   4.465   1.787  13.634  0.7026  0.0278 -0.0092
18875TIP3   OH278039   3.873   3.644   4.951 -0.0575 -0.6107  0.0820
18875TIP3    H178040   3.831   3.730   4.941 -0.0917 -0.6004  0.3262
18875TIP3    H278041   3.811   3.583   4.912  0.8048 -0.3168 -1.8804
18876TIP3   OH278042   5.131   0.103  13.604  0.2149 -0.3126 -0.5102
18876TIP3    H178043   5.154   0.010  13.602 -0.5790 -0.5610  0.5592
18876TIP3    H278044   5.035   0.104  13.612  0.1684  0.6066 -1.0824
18877TIP3   OH278045   5.907   1.068   0.283  0.0901  0.3159 -0.0035
18877TIP3    H178046   5.814   1.090   0.276  0.0361  0.5625  1.2478
18877TIP3    H278047   5.942   1.130   0.347  0.4339 -1.7130  1.8867
18878TIP3   OH278048   1.038   1.505   3.140 -0.2907  0.3661  0.1173
18878TIP3    H178049   1.057   1.554   3.220  1.0531 -0.5281  0.3865
18878TIP3    H278050   0.983   1.564   3.088 -2.1142  0.5736  2.1234
18879TIP3   OH278051   2.633   6.584   0.915  0.3545  0.5228 -0.2090
18879TIP3    H178052   2.602   6.603   1.003 -2.9357 -0.5999 -0.9770
18879TIP3    H278053   2.661   6.493   0.919 -1.3003 -0.0348 -0.6123
18880TIP3   OH278054   2.594   3.298  14.011  0.2636  0.1322  0.4765
18880TIP3    H178055   2.552   3.380  14.037 -0.1545 -0.4184  1.5894
18880TIP3    H278056   2.583   3.295  13.916 -0.8057  0.7708  0.5618
18881TIP3   OH278057   4.973   4.328   0.450  0.1152 -0.0497  0.0292
18881TIP3    H178058   4.978   4.235   0.475  2.7643 -0.1640 -0.6532
18881TIP3    H278059   5.011   4.375   0.524 -0.2966  0.4052 -0.0449
18882TIP3   OH278060   5.183   2.361   4.674  0.3047 -0.2621  0.3801
18882TIP3    H178061   5.261   2.366   4.618  0.1602  0.6567  0.2397
18882TIP3    H278062   5.217   2.358   4.763  0.5229  1.8556  0.4314
18883TIP3   OH278063   1.148   2.474  12.048 -0.1422 -0.2925 -0.2507
18883TIP3    H178064   1.125   2.465  12.140 -0.0883  0.2077 -0.1848
18883TIP3    H278065   1.134   2.387  12.011 -2.0056 -0.0468 -0.1953
18884TIP3   OH278066   0.035   2.578   0.912 -0.0918  0.2259 -0.0611
18884TIP3    H178067   0.049   2.598   1.005  1.1055 -1.2174  0.1144
18884TIP3    H278068   0.101   2.512   0.892 -1.4104 -0.7180 -1.5139
18885TIP3   OH278069   4.242   3.894   0.776 -0.3212  0.2685  0.4713
18885TIP3    H178070   4.311   3.895   0.710 -0.3143 -2.1143  0.3518
18885TIP3    H278071   4.288   3.896   0.860 -0.0716 -1.2871  0.3913
18886TIP3   OH278072   6.074   6.056   6.003  0.4352  0.1257  0.0184
18886TIP3    H178073   6.128   6.067   5.925  0.9515 -0.5279  0.2722
18886TIP3    H278074   6.137   6.042   6.074  0.0280  1.9350  0.7901
18887TIP3   OH278075   0.893   6.029   2.455  0.5064 -0.2008  0.2824
18887TIP3    H178076   0.813   6.068   2.420  0.5679  0.5251  0.9177
18887TIP3    H278077   0.932   5.982   2.381 -0.7984 -1.0644  0.1139
18888TIP3   OH278078   1.012   5.591   4.833  0.8399  0.0744  0.5110
18888TIP3    H178079   1.043   5.581   4.742 -0.5185  4.2553 -0.6179
18888TIP3    H278080   1.093   5.593   4.885  1.8275  0.2722 -0.9571
18889TIP3   OH278081   1.510   5.616  13.185  0.6879  0.4136  0.0221
18889TIP3    H178082   1.542   5.593  13.098  0.3879 -0.9929  0.2651
18889TIP3    H278083   1.424   5.574  13.191 -0.0087  1.8197  0.4199
18890TIP3   OH278084   0.604   3.714   2.665 -0.2283 -0.0108 -0.0353
18890TIP3    H178085   0.667   3.642   2.663  1.0923  1.0923 -2.3352
18890TIP3    H278086   0.615   3.759   2.581 -2.3270  1.7706  0.5213
18891TIP3   OH278087   2.260   4.324  12.699 -0.3656  0.3955  0.6835
18891TIP3    H178088   2.296   4.282  12.777  2.3864  0.6170 -0.3463
18891TIP3    H278089   2.337   4.352  12.650 -2.0392  2.1892 -1.0825
18892TIP3   OH278090   3.095   3.568  13.420  0.1797 -0.4903  0.2683
18892TIP3    H178091   3.097   3.662  13.435  0.4446 -0.3256 -0.7252
18892TIP3    H278092   3.165   3.533  13.476  0.6657  0.0094 -0.0203
18893TIP3   OH278093   4.094   1.646   1.127 -0.7310  0.6157 -0.1610
18893TIP3    H178094   4.176   1.682   1.094  0.1247 -1.3386 -0.3316
18893TIP3    H278095   4.099   1.657   1.222  0.9544 -1.6782  0.1085
18894TIP3   OH278096   0.902   6.025   2.756  0.3091  0.2614  0.2840
18894TIP3    H178097   0.913   6.117   2.731  1.0468  0.9714  2.9805
18894TIP3    H278098   0.945   5.976   2.685 -0.2615  1.9396 -1.2958
18895TIP3   OH278099   0.129   5.313  10.520  0.2055  0.2487 -0.4425
18895TIP3    H178100   0.134   5.231  10.471 -0.9236 -0.1418  0.0754
18895TIP3    H278101   0.211   5.316  10.571 -0.0446 -0.8851  0.0468
18896TIP3   OH278102   5.383   6.461   1.659  0.2987  0.3448 -0.2845
18896TIP3    H178103   5.290   6.463   1.633  0.8063  2.3322 -2.2796
18896TIP3    H278104   5.422   6.396   1.601  0.5056  1.1021 -1.0243
18897TIP3   OH278105   4.741   4.640  14.016 -0.0029 -0.7399  0.0686
18897TIP3    H178106   4.664   4.583  14.014 -0.5599  0.0218 -0.7022
18897TIP3    H278107   4.803   4.600  13.956 -0.8884  0.1239 -1.4712
18898TIP3   OH278108   5.115   1.469  13.687 -0.0683  0.6054 -0.4579
18898TIP3    H178109   5.079   1.389  13.723  1.2643  0.4272  0.5688
18898TIP3    H278110   5.055   1.494  13.617 -1.3034 -0.4666  0.1941
18899TIP3   OH278111   4.656   2.900  15.973 -0.6106  0.9188  0.0133
18899TIP3    H178112   4.668   2.947  16.055  0.4787  1.0788 -0.2279
18899TIP3    H278113   4.564   2.915  15.950 -1.8195 -1.3839  2.5971
18900TIP3   OH278114   4.665   4.933   0.324 -0.2511 -0.0881 -0.1112
18900TIP3    H178115   4.603   4.994   0.363 -0.2847 -0.1604 -0.0520
18900TIP3    H278116   4.612   4.876   0.269 -0.1181  0.4736 -0.8446
18901TIP3   OH278117   2.364   5.440   0.484  0.4397  0.1567 -0.4238
18901TIP3    H178118   2.319   5.514   0.523 -1.0104 -0.2885 -1.2000
18901TIP3    H278119   2.430   5.479   0.427  1.0591  0.8156  0.7201
18902TIP3   OH278120   4.026   2.329  16.352  0.8626 -0.0567  0.7632
18902TIP3    H178121   4.050   2.297  16.439  1.0362 -2.0826  0.0285
18902TIP3    H278122   3.951   2.387  16.368  1.4186  0.2862  2.3224
18903TIP3   OH278123   3.231   5.067   4.118 -0.0022 -0.0100 -0.2455
18903TIP3    H178124   3.253   4.996   4.179  0.6042  0.5575  0.2182
18903TIP3    H278125   3.313   5.116   4.107 -0.7028  1.4040  0.4894
18904TIP3   OH278126   4.376   1.543   1.403  0.0983  0.1864  0.4452
18904TIP3    H178127   4.374   1.465   1.348  0.6108  0.8702 -0.5861
18904TIP3    H278128   4.417   1.514   1.485 -1.3574 -1.0216  0.7867
18905TIP3   OH278129   1.381   3.339  12.317  0.6117 -0.1231  0.1995
18905TIP3    H178130   1.360   3.248  12.295  0.6599 -0.0356 -0.2168
18905TIP3    H278131   1.323   3.391  12.261 -0.1157  0.1013  1.1293
18906TIP3   OH278132   0.000   4.862  14.980 -0.2464  0.1476 -0.2257
18906TIP3    H178133  -0.031   4.792  15.037  2.3451 -0.7414  0.2515
18906TIP3    H278134  -0.067   4.930  14.985 -1.7605 -1.3719  1.0757
18907TIP3   OH278135   4.628   0.913  14.919  0.3015 -0.3593  0.2903
18907TIP3    H178136   4.719   0.919  14.891 -0.2589  1.7465 -1.2295
18907TIP3    H278137   4.584   0.864  14.850  0.0283 -0.2956  0.4163
18908TIP3   OH278138   4.681   6.519   5.298  0.1885 -0.4438  0.1065
18908TIP3    H178139   4.713   6.446   5.245 -2.0514 -2.9287  1.9493
18908TIP3    H278140   4.590   6.531   5.270 -0.2000 -0.0031  1.4894
18909TIP3   OH278141   6.032   5.629   4.806 -0.2982  0.1791  0.3339
18909TIP3    H178142   6.008   5.646   4.897 -0.3869 -2.6231  0.8993
18909TIP3    H278143   5.959   5.580   4.770  1.1480 -1.6730 -0.2270
18910TIP3   OH278144   1.704   3.168   2.680 -0.0890 -0.3980 -0.3742
18910TIP3    H178145   1.774   3.185   2.743  1.7949 -1.5716 -2.0412
18910TIP3    H278146   1.733   3.210   2.599 -2.9685  2.0483 -0.3580
18911TIP3   OH278147   4.739   1.666  16.820 -0.2482  0.1805 -0.1965
18911TIP3    H178148   4.657   1.706  16.794 -0.1797  0.5541  0.1656
18911TIP3    H278149   4.751   1.691  16.911  1.2235  1.7854 -0.7733
18912TIP3   OH278150   1.360   3.787  12.635  0.5027 -0.6364 -0.0445
18912TIP3    H178151   1.265   3.793  12.642  0.2180 -1.1487 -2.6956
18912TIP3    H278152   1.388   3.876  12.613  0.8161 -0.2175  1.8768
18913TIP3   OH278153   4.039   0.844   4.550 -0.0618  0.1935  0.6365
18913TIP3    H178154   4.079   0.867   4.634 -1.4409 -0.1927  1.4346
18913TIP3    H278155   3.961   0.900   4.544 -0.7356 -0.7468  0.2751
18914TIP3   OH278156   6.326   6.697  17.019  0.4407 -0.1827 -0.2356
18914TIP3    H178157   6.410   6.687  16.974  0.9903 -1.0865  0.9398
18914TIP3    H278158   6.318   6.791  17.034  1.2813 -0.0927 -0.2892
18915TIP3   OH278159   2.219   5.579   0.148 -0.3299 -0.2134 -0.1256
18915TIP3    H178160   2.134   5.618   0.166 -0.5436  0.2295 -1.8507
18915TIP3    H278161   2.198   5.493   0.112 -0.0169 -0.3955  0.1244
18916TIP3   OH278162   6.289   3.428   0.375  0.0580  0.4844  0.3067
18916TIP3    H178163   6.284   3.447   0.282 -0.4000  0.6264  0.3586
18916TIP3    H278164   6.383   3.431   0.395  0.4656 -2.2076 -0.6865
18917TIP3   OH278165   3.062   3.022  14.329  0.5321 -0.4431 -0.4420
18917TIP3    H178166   3.050   2.986  14.240  0.7868 -2.5277  0.2996
18917TIP3    H278167   3.108   2.952  14.376  1.0173  0.9074  1.1547
18918TIP3   OH278168   0.294   5.822   6.789  0.4346  1.0458 -0.1583
18918TIP3    H178169   0.365   5.860   6.739  0.9153 -2.7616 -2.7784
18918TIP3    H278170   0.217   5.873   6.765  1.5427  2.5153 -0.7018
18919TIP3   OH278171   2.357   4.536  12.865 -0.5940  0.0430 -0.5682
18919TIP3    H178172   2.291   4.501  12.805  0.0225 -0.9722 -0.6864
18919TIP3    H278173   2.349   4.481  12.943 -1.2387  1.2083  0.2203
18920TIP3   OH278174   3.835   4.866   0.715  0.6227 -0.0367 -0.0856
18920TIP3    H178175   3.867   4.909   0.636  0.6883  0.7740  0.3677
18920TIP3    H278176   3.906   4.876   0.779  0.8894 -1.3678 -0.1422
18921TIP3   OH278177   0.744   1.590   0.284 -0.1976 -0.6156  0.2319
18921TIP3    H178178   0.726   1.641   0.205  0.6190 -1.3768 -0.4684
18921TIP3    H278179   0.773   1.654   0.348 -0.6012 -0.0218 -0.1719
18922TIP3   OH278180   6.222   0.769  11.798  0.5925 -0.0005  0.1269
18922TIP3    H178181   6.198   0.729  11.881  1.0402 -0.1343  0.1975
18922TIP3    H278182   6.287   0.835  11.822 -0.1606  0.7998  0.0209
18923TIP3   OH278183   2.091   2.025   2.281  0.5507  0.2284  0.0081
18923TIP3    H178184   2.076   2.119   2.290 -0.6861  0.1195 -0.6306
18923TIP3    H278185   2.162   2.018   2.217 -0.2013  0.7292 -0.9100
18924TIP3   OH278186   0.896   1.740  11.682 -0.2355 -0.3105 -0.5417
18924TIP3    H178187   0.991   1.752  11.681 -0.3947  1.7643  0.8572
18924TIP3    H278188   0.865   1.785  11.604 -0.2209  1.5583  0.4761
18925TIP3   OH278189   1.152   2.707  12.373 -0.1898 -0.5152  0.2967
18925TIP3    H178190   1.077   2.648  12.365 -1.6306  1.2220  0.3888
18925TIP3    H278191   1.127   2.769  12.441 -0.3599  2.4460 -2.2300
18926TIP3   OH278192   4.975   3.995  11.578  0.2706 -0.3937  0.1600
18926TIP3    H178193   4.889   3.988  11.536  0.2692 -1.7552  0.3589
18926TIP3    H278194   5.037   3.966  11.510  0.5146 -0.0607  0.2391
18927TIP3   OH278195   5.447   6.400  13.439 -0.2207  0.4614  0.2406
18927TIP3    H178196   5.401   6.329  13.485  0.8794 -1.3151 -1.3070
18927TIP3    H278197   5.390   6.421  13.365 -0.4719  1.1176  0.6133
18928TIP3   OH278198   0.118   5.332   6.684 -0.1831 -0.0493  0.0721
18928TIP3    H178199   0.139   5.289   6.601 -0.5153  0.7739 -0.4595
18928TIP3    H278200   0.029   5.304   6.704 -0.2180 -0.0014 -0.0151
18929TIP3   OH278201   4.570   3.598  12.616  0.2355  0.0431 -0.4753
18929TIP3    H178202   4.624   3.529  12.578 -0.4920 -0.0937 -1.2899
18929TIP3    H278203   4.608   3.680  12.585 -0.6346 -0.0766 -1.9287
18930TIP3   OH278204   3.926   2.591  15.629 -0.2443 -0.1643  0.2895
18930TIP3    H178205   3.898   2.572  15.719  0.5905  0.4588  0.6981
18930TIP3    H278206   3.964   2.508  15.598  0.4749 -0.0863  0.9210
18931TIP3   OH278207   5.505   3.136  11.259  0.6218  0.2535 -0.3307
18931TIP3    H178208   5.428   3.181  11.293  0.2806 -1.0578  0.7036
18931TIP3    H278209   5.508   3.159  11.166 -0.6397  0.8388 -0.2372
18932TIP3   OH278210   0.274   5.322  11.154  0.6475 -0.0034  0.0146
18932TIP3    H178211   0.207   5.336  11.088  1.2482  1.0961 -0.3841
18932TIP3    H278212   0.314   5.408  11.167  0.7619 -0.2504  1.5764
18933TIP3   OH278213   5.641   4.673  16.325 -0.0101  0.3630 -0.2297
18933TIP3    H178214   5.591   4.624  16.390  0.6589  0.9955  0.7951
18933TIP3    H278215   5.584   4.677  16.248 -0.4765 -1.1532 -0.0037
18934TIP3   OH278216   5.927   5.298  16.952  0.3562  0.4737  0.0079
18934TIP3    H178217   5.937   5.339  16.866  0.6729  0.3261 -0.0260
18934TIP3    H278218   5.907   5.206  16.933 -1.4585  0.8234  0.0690
18935TIP3   OH278219   6.280   0.327  14.109 -0.3056  0.1316 -0.4745
18935TIP3    H178220   6.373   0.335  14.088  0.4615  0.2643  2.5115
18935TIP3    H278221   6.247   0.417  14.108  0.2212  0.3622  0.7528
18936TIP3   OH278222   5.988   1.865  15.669 -0.0932 -0.2464 -0.9810
18936TIP3    H178223   5.902   1.848  15.708  0.2278 -1.5446 -0.8077
18936TIP3    H278224   6.039   1.786  15.687  1.9064  1.3800  0.9671
18937TIP3   OH278225   2.282   1.324  12.621  0.0947  0.0430  0.2069
18937TIP3    H178226   2.300   1.363  12.707  0.6593 -1.3445  0.7572
18937TIP3    H278227   2.254   1.235  12.642  0.7461 -0.4771 -1.0788
18938TIP3   OH278228   5.778   3.009   4.809  0.2280 -0.2770 -0.1494
18938TIP3    H178229   5.782   2.959   4.890 -2.4561 -0.5620 -0.0856
18938TIP3    H278230   5.765   3.099   4.837  0.4831 -0.2029 -0.2676
18939TIP3   OH278231   3.258   6.229  15.521  0.0167 -1.1751  0.3639
18939TIP3    H178232   3.259   6.144  15.477 -0.9904 -2.2579  2.2760
18939TIP3    H278233   3.214   6.212  15.605 -1.7684  1.5874  0.1328
18940TIP3   OH278234   5.266   0.829   5.045  0.2105  0.3962  0.0897
18940TIP3    H178235   5.322   0.757   5.018 -1.4685 -1.4651  1.3284
18940TIP3    H278236   5.189   0.822   4.989  0.3878  1.8435 -0.3955
18941TIP3   OH278237   4.101   4.680  12.177 -0.7875  0.5099  0.3791
18941TIP3    H178238   4.040   4.626  12.126  1.5029 -0.0498 -1.9327
18941TIP3    H278239   4.123   4.753  12.120  1.1485  0.3826  0.8825
18942TIP3   OH278240   2.161   6.436  15.319  0.4140  0.1265 -0.2375
18942TIP3    H178241   2.132   6.486  15.395 -0.3612  1.0549 -1.1121
18942TIP3    H278242   2.223   6.372  15.354 -1.2868 -0.6897  1.4444
18943TIP3   OH278243   5.522   1.152   5.212  0.6406  0.4912 -0.4847
18943TIP3    H178244   5.589   1.203   5.259  0.9626 -0.2750 -0.0975
18943TIP3    H278245   5.557   1.063   5.211  0.4023  0.3985 -1.7504
18944TIP3   OH278246   3.183   4.152  12.148  0.2473  0.1263 -0.7206
18944TIP3    H178247   3.146   4.240  12.143 -1.9965 -0.6472  0.7074
18944TIP3    H278248   3.138   4.104  12.079 -0.5750 -0.5249  0.2379
18945TIP3   OH278249   6.767   2.974  15.139 -0.3493  0.5215 -0.1819
18945TIP3    H178250   6.840   2.925  15.100  0.0581  1.3379 -0.4671
18945TIP3    H278251   6.700   2.908  15.156  0.7300 -0.3613  0.7623
18946TIP3   OH278252   1.799   5.562  11.746 -0.4585  0.1058  0.1947
18946TIP3    H178253   1.706   5.581  11.733 -0.4569  0.0658  0.1272
18946TIP3    H278254   1.844   5.636  11.706 -0.4899  0.9062  1.5514
18947TIP3   OH278255   1.208   3.441   6.391 -0.2821 -0.1827  0.0063
18947TIP3    H178256   1.125   3.411   6.353 -0.0117  1.3776 -1.9847
18947TIP3    H278257   1.210   3.535   6.373  1.7321 -0.1126  0.3739
18948TIP3   OH278258   3.153   1.082   4.765  0.0411  0.4790 -0.7151
18948TIP3    H178259   3.081   1.025   4.792  0.3361 -0.4517 -1.8151
18948TIP3    H278260   3.189   1.114   4.847  1.7737 -3.3043  0.2260
18949TIP3   OH278261   1.514   5.726  16.594  0.1395 -0.3366  0.4550
18949TIP3    H178262   1.588   5.700  16.539  0.1961  0.9791 -0.1198
18949TIP3    H278263   1.437   5.689  16.550  0.3349 -0.6314  0.3594
18950TIP3   OH278264   0.044   0.690   6.067  0.4685 -0.0888 -0.3386
18950TIP3    H178265   0.109   0.748   6.105  1.4700 -2.0341  1.1168
18950TIP3    H278266  -0.028   0.689   6.129  1.2023 -1.6468  0.5607
18951TIP3   OH278267   6.776   4.191   0.751 -0.5046  0.4346  0.8634
18951TIP3    H178268   6.808   4.277   0.725 -3.2068  1.6318  1.2177
18951TIP3    H278269   6.844   4.157   0.809  1.2604  1.6982 -0.3660
18952TIP3   OH278270   6.609   0.837  14.951 -0.0251  0.7252 -0.1037
18952TIP3    H178271   6.638   0.793  15.031 -1.2676  0.8639  0.4444
18952TIP3    H278272   6.523   0.799  14.932 -1.4772  3.3342  0.7804
18953TIP3   OH278273   3.132   0.563   2.931  0.0467  0.6006  0.4026
18953TIP3    H178274   3.099   0.571   3.020 -2.2932 -0.0008 -0.3454
18953TIP3    H278275   3.094   0.481   2.898  1.6428  0.3036 -0.8541
18954TIP3   OH278276   3.203   5.640  12.817  0.2227 -0.6572  1.1246
18954TIP3    H178277   3.216   5.731  12.842  0.0187 -0.3553  0.1847
18954TIP3    H278278   3.211   5.640  12.722 -1.3580 -1.3460  0.9592
18955TIP3   OH278279   4.111   6.324   5.577  0.3134  0.4486 -0.2318
18955TIP3    H178280   4.063   6.355   5.653 -0.2260  1.0986 -0.8323
18955TIP3    H278281   4.187   6.277   5.614  0.4517  1.3760  0.6918
18956TIP3   OH278282   3.802   5.963   5.611  0.2573  0.4609  0.5357
18956TIP3    H178283   3.886   5.927   5.582  0.7760  3.1995 -1.8856
18956TIP3    H278284   3.741   5.890   5.606  1.8149 -0.8202 -1.1036
18957TIP3   OH278285   0.169   3.076   5.462 -0.6516 -0.3953  0.5717
18957TIP3    H178286   0.084   3.033   5.471 -0.2569 -1.0427  1.2490
18957TIP3    H278287   0.232   3.005   5.458 -0.1335  0.0835  0.0440
18958TIP3   OH278288   5.510   5.298  17.114  0.1590 -0.1915  0.0201
18958TIP3    H178289   5.416   5.312  17.117  0.3385  0.9666  0.8750
18958TIP3    H278290   5.525   5.223  17.171  0.0244  1.4082  2.2685
18959TIP3   OH278291   6.075   5.737  15.950  0.8252  0.0812  0.5654
18959TIP3    H178292   6.159   5.694  15.932  0.7393 -1.0714  2.5102
18959TIP3    H278293   6.041   5.689  16.026 -2.1453 -0.2387 -0.8475
18960TIP3   OH278294   3.401   0.384   0.654  0.1653 -0.1016  0.3414
18960TIP3    H178295   3.417   0.347   0.567 -0.2940 -0.4438  0.3970
18960TIP3    H278296   3.392   0.478   0.639  0.4585 -0.1164  0.0726
18961TIP3   OH278297   4.119   4.282   5.195  0.3509 -0.0444 -0.3583
18961TIP3    H178298   4.067   4.329   5.129 -1.7607 -0.1488  1.1355
18961TIP3    H278299   4.175   4.349   5.234  0.2714  0.4003 -0.9886
18962TIP3   OH278300   1.622   2.032  10.894 -0.1964  0.0585 -0.1070
18962TIP3    H178301   1.668   2.114  10.916  0.2688 -0.6372  1.6276
18962TIP3    H278302   1.629   1.978  10.973  0.7357 -2.2375 -1.6575
18963TIP3   OH278303   3.260   2.001   4.077  0.1860 -0.4109  0.2220
18963TIP3    H178304   3.167   2.020   4.079  0.1828 -0.1606 -1.2122
18963TIP3    H278305   3.266   1.913   4.038  0.4823 -1.0566  1.6841
18964TIP3   OH278306   0.190   6.630  11.798 -0.1930 -0.1738 -0.0166
18964TIP3    H178307   0.250   6.705  11.801 -1.0505  0.4776  1.8823
18964TIP3    H278308   0.102   6.669  11.799 -0.7174 -1.1295 -2.2654
18965TIP3   OH278309   4.267   1.826  11.167 -0.3529 -0.1735  0.3326
18965TIP3    H178310   4.254   1.859  11.256  1.5336 -1.3558  1.1267
18965TIP3    H278311   4.227   1.891  11.111 -2.1843  0.2840  2.0626
18966TIP3   OH278312   2.626   6.095  13.817 -0.3738  0.2439 -0.2786
18966TIP3    H178313   2.595   6.005  13.806 -1.0568  0.4850 -0.3690
18966TIP3    H278314   2.556   6.139  13.865  1.3883 -0.1160  2.8884
18967TIP3   OH278315   3.114   6.502  14.519  0.4717  0.0845 -0.9779
18967TIP3    H178316   3.142   6.428  14.465 -1.1981 -0.9370 -0.5156
18967TIP3    H278317   3.022   6.513  14.498 -0.0911  0.0335  1.2046
18968TIP3   OH278318   6.402   3.417   5.661 -0.5753  0.1679 -0.5753
18968TIP3    H178319   6.326   3.365   5.689  1.1827 -1.6095  1.2581
18968TIP3    H278320   6.397   3.417   5.565 -2.7954  0.0549 -0.5271
18969TIP3   OH278321   2.285   2.753   0.891 -0.9220 -0.3049  0.2026
18969TIP3    H178322   2.246   2.667   0.904 -0.2263 -0.6186  0.2503
18969TIP3    H278323   2.263   2.776   0.800 -1.7228 -0.2076  0.4138
18970TIP3   OH278324   6.666   0.116  11.472 -0.1097  0.2311  0.4647
18970TIP3    H178325   6.717   0.162  11.405  0.3050  0.6254  1.0375
18970TIP3    H278326   6.626   0.042  11.426  0.3668  0.3535 -0.1570
18971TIP3   OH278327   0.380   2.164  12.396  0.2426 -0.1264  0.0440
18971TIP3    H178328   0.301   2.217  12.404 -0.3994 -1.0708  0.0838
18971TIP3    H278329   0.399   2.163  12.302 -1.7813 -2.6558 -0.4635
18972TIP3   OH278330   6.097   0.309  10.730 -0.0870 -0.1086  0.5848
18972TIP3    H178331   6.085   0.244  10.661 -1.0728  1.5237 -0.8929
18972TIP3    H278332   6.191   0.327  10.731  0.0177 -0.6140  0.0907
18973TIP3   OH278333   5.260   2.708   0.811  0.0781 -0.2202 -0.4898
18973TIP3    H178334   5.206   2.681   0.885 -0.3453 -0.9964 -1.0663
18973TIP3    H278335   5.198   2.742   0.747  0.0806 -2.4445 -1.7395
18974TIP3   OH278336   2.982   0.702  13.058 -0.2642 -0.5315 -0.4831
18974TIP3    H178337   3.071   0.673  13.075  0.2214  0.4105 -1.3133
18974TIP3    H278338   2.987   0.746  12.973 -1.6496 -1.0268 -0.8464
18975TIP3   OH278339   4.720   0.292   3.819  0.0387 -0.0561  0.3718
18975TIP3    H178340   4.752   0.377   3.789 -2.1372  0.0459 -1.9625
18975TIP3    H278341   4.781   0.229   3.780 -0.0735  0.3125 -0.4149
18976TIP3   OH278342   3.838   0.852  16.090  0.3625 -0.3619  0.5043
18976TIP3    H178343   3.821   0.827  16.181 -1.7882 -1.6127 -0.1668
18976TIP3    H278344   3.908   0.794  16.061  1.0785  0.0651  1.3424
18977TIP3   OH278345   4.785   1.811   1.823  0.3133 -0.2689 -0.6652
18977TIP3    H178346   4.750   1.875   1.760  1.3771  0.8391 -0.1834
18977TIP3    H278347   4.843   1.863   1.879 -2.1881 -0.7547  2.6464
18978TIP3   OH278348   2.288   2.802   4.702 -0.3207  0.3560  0.1731
18978TIP3    H178349   2.220   2.771   4.762  0.5667  1.3700  1.8037
18978TIP3    H278350   2.241   2.826   4.622 -1.7552  0.2520  0.9511
18979TIP3   OH278351   3.460   3.817  11.521 -0.1771  0.8366  0.0969
18979TIP3    H178352   3.393   3.841  11.457 -2.1558 -0.4446  1.5553
18979TIP3    H278353   3.533   3.876  11.503 -0.3280  0.1338 -3.7111
18980TIP3   OH278354   5.729   1.422  17.067  0.3701 -0.0875  0.1015
18980TIP3    H178355   5.802   1.415  17.129  0.0836 -0.8451  0.3594
18980TIP3    H278356   5.704   1.331  17.048 -0.2837  0.1572 -0.2501
18981TIP3   OH278357   4.516   0.554  14.367 -0.7356 -0.2453 -0.3413
18981TIP3    H178358   4.430   0.564  14.326 -2.0921  0.4600  2.4266
18981TIP3    H278359   4.499   0.504  14.447  1.3919  0.1578  0.4305
18982TIP3   OH278360   5.392   0.378  14.267  0.3471 -0.3347 -0.0256
18982TIP3    H178361   5.336   0.351  14.195 -0.4712  0.0044  0.4748
18982TIP3    H278362   5.476   0.397  14.225 -0.0410 -0.3748 -0.8537
18983TIP3   OH278363   3.034   1.877  13.363 -0.4579  0.2424  0.3315
18983TIP3    H178364   3.075   1.816  13.425 -0.3676 -0.2006 -0.1575
18983TIP3    H278365   3.047   1.836  13.278  0.3252  1.3536 -0.0990
18984TIP3   OH278366   2.839   5.131   1.470 -0.0797  0.2945 -0.1366
18984TIP3    H178367   2.783   5.158   1.543 -1.0623 -1.4781 -0.1798
18984TIP3    H278368   2.922   5.175   1.487 -0.3956  0.2367  1.8495
18985TIP3   OH278369   1.630   1.641  11.766  0.4199 -0.3110 -0.3409
18985TIP3    H178370   1.543   1.612  11.793  1.2610 -1.7915  0.9849
18985TIP3    H278371   1.650   1.714  11.825 -0.0049  0.1906 -0.8090
18986TIP3   OH278372   2.706   3.868   0.284 -0.1978  0.3797  0.3045
18986TIP3    H178373   2.798   3.876   0.259 -0.2657  1.5584  0.3682
18986TIP3    H278374   2.705   3.884   0.378 -0.3889 -0.3307  0.4279
18987TIP3   OH278375   0.956   3.623   2.005 -0.0850  0.1805  0.0663
18987TIP3    H178376   1.045   3.654   2.020 -0.2454  0.0411  1.4277
18987TIP3    H278377   0.967   3.542   1.955  0.7053 -0.9206  1.9008
18988TIP3   OH278378   0.071   3.096  17.194 -0.7603  0.5253 -0.1538
18988TIP3    H178379  -0.018   3.107  17.160 -0.5201  1.2916 -0.5562
18988TIP3    H278380   0.069   3.012  17.240 -1.9496  0.9789  0.6764
18989TIP3   OH278381   0.258   2.322   0.876  0.0845  0.7547 -0.7153
18989TIP3    H178382   0.262   2.227   0.881  1.6102  0.8360  0.1851
18989TIP3    H278383   0.295   2.344   0.790 -0.3750  0.5444 -0.9708
18990TIP3   OH278384   0.656   5.605   3.988  0.2700 -0.0662  0.5320
18990TIP3    H178385   0.600   5.560   4.052 -1.1185  1.2979  0.3334
18990TIP3    H278386   0.701   5.673   4.040 -1.0112  1.1759  0.0850
18991TIP3   OH278387   2.502   4.736   6.082 -0.2978 -0.0958  0.2341
18991TIP3    H178388   2.457   4.816   6.110 -0.9404 -0.3774  0.0262
18991TIP3    H278389   2.594   4.753   6.099 -0.3189  1.0718 -0.6816
18992TIP3   OH278390   3.327   1.317  10.767  0.8171  0.3541 -0.0645
18992TIP3    H178391   3.422   1.308  10.757  0.9599  2.3803 -1.2840
18992TIP3    H278392   3.292   1.229  10.755  2.5197 -0.3699  0.0563
18993TIP3   OH278393   0.484   1.945   0.058  0.0559  0.4662  0.1946
18993TIP3    H178394   0.434   1.929   0.138 -0.9860  0.4424 -0.4428
18993TIP3    H278395   0.557   1.882   0.063  0.6611  1.2297  1.6471
18994TIP3   OH278396   1.419   2.282  16.596 -0.0794 -0.0693 -0.7047
18994TIP3    H178397   1.373   2.284  16.680  1.4100 -2.7326  0.3030
18994TIP3    H278398   1.511   2.296  16.618  0.1479  0.9336 -2.1462
18995TIP3   OH278399   3.920   1.721   0.306 -0.4342 -0.0466  0.0144
18995TIP3    H178400   3.878   1.688   0.386  1.1732 -0.8412  0.5744
18995TIP3    H278401   4.006   1.751   0.335 -0.3170  0.8737 -1.2146
18996TIP3   OH278402   4.623   4.897   3.701  0.0736 -0.3876 -0.1699
18996TIP3    H178403   4.556   4.904   3.633  0.4604 -0.6018 -0.5790
18996TIP3    H278404   4.671   4.817   3.679  1.5271  0.6159 -0.8680
18997TIP3   OH278405   0.406   6.790   5.653 -0.4006 -0.4042 -0.1938
18997TIP3    H178406   0.339   6.780   5.585 -1.1264 -0.3705  0.5080
18997TIP3    H278407   0.409   6.884   5.671 -1.2367 -0.5613  0.8296
18998TIP3   OH278408   0.019   2.174  11.803 -0.3173  0.1360  0.0167
18998TIP3    H178409   0.067   2.093  11.819 -1.6119 -0.4852  1.0271
18998TIP3    H278410   0.047   2.203  11.717  3.0217  0.6751  1.1431
18999TIP3   OH278411   1.502   3.075  12.066  0.2121  0.3922 -0.7674
18999TIP3    H178412   1.526   3.025  11.988 -1.1708  1.7591 -2.1220
18999TIP3    H278413   1.481   3.162  12.033 -2.1684  0.5253  0.8822
19000TIP3   OH278414   3.834   2.104  11.506 -0.2108 -0.4852 -0.3607
19000TIP3    H178415   3.806   2.195  11.514 -1.2575 -0.9130  1.5574
19000TIP3    H278416   3.752   2.055  11.500  0.2533 -1.4362  0.6813
19001TIP3   OH278417   0.880   2.630  12.989 -0.3727  0.1398 -0.3308
19001TIP3    H178418   0.886   2.575  13.068  1.6643 -0.1611 -0.6151
19001TIP3    H278419   0.811   2.590  12.937 -0.0002 -1.2432  0.1850
19002TIP3   OH278420   1.284   1.694  14.820 -0.4542 -0.2844  0.3048
19002TIP3    H178421   1.329   1.635  14.881 -1.0623 -0.8184  0.2472
19002TIP3    H278422   1.268   1.640  14.743 -0.1106  0.2544 -0.1478
19003TIP3   OH278423   2.165   3.801   5.391 -0.1030  0.0551 -0.4552
19003TIP3    H178424   2.126   3.774   5.308 -0.5305  0.3360 -0.3495
19003TIP3    H278425   2.109   3.760   5.458 -1.1641  1.7036 -0.2838
19004TIP3   OH278426   5.410   0.297  12.756 -0.0324 -1.0261  0.0215
19004TIP3    H178427   5.501   0.321  12.775 -0.2475 -0.1010 -0.0459
19004TIP3    H278428   5.370   0.288  12.842  0.0267 -1.0668  0.0455
19005TIP3   OH278429   2.418   1.644   1.008 -0.6399 -0.4361  0.4386
19005TIP3    H178430   2.500   1.692   1.025 -0.0202 -0.9538 -0.9138
19005TIP3    H278431   2.382   1.685   0.930 -0.9281 -1.1467  0.1886
19006TIP3   OH278432   2.964   4.063   4.865  0.1854 -0.1769 -0.2973
19006TIP3    H178433   3.033   4.043   4.929  1.0547 -0.1961 -1.2122
19006TIP3    H278434   2.892   4.006   4.890  0.6569 -0.4914  0.4137
19007TIP3   OH278435   1.575   5.013  15.532 -0.9987  0.2141 -0.2201
19007TIP3    H178436   1.636   5.086  15.543 -0.4346 -0.4476  1.2160
19007TIP3    H278437   1.489   5.052  15.546 -0.7182  0.6388  0.3894
19008TIP3   OH278438   5.090   6.395  15.366 -0.2885 -0.0632 -0.3499
19008TIP3    H178439   5.051   6.324  15.416  0.3334 -1.1201 -1.3425
19008TIP3    H278440   5.026   6.415  15.297 -0.9717  1.1321  0.5879
19009TIP3   OH278441   3.028   0.217   3.461  0.0158  0.2998 -0.0568
19009TIP3    H178442   2.964   0.279   3.425 -0.7844  0.8646  2.1639
19009TIP3    H278443   2.974   0.154   3.509  1.0049 -0.5883 -0.0954
19010TIP3   OH278444   1.291   2.007   0.673 -0.3721 -0.3112 -0.4192
19010TIP3    H178445   1.233   1.932   0.681 -2.8214  1.0858 -3.0419
19010TIP3    H278446   1.362   1.976   0.616 -0.1590 -1.1832  0.2914
19011TIP3   OH278447   4.367   1.475  17.114  0.3464 -0.0062 -0.0730
19011TIP3    H178448   4.455   1.498  17.145 -0.2035 -0.2510  1.8336
19011TIP3    H278449   4.376   1.385  17.082  0.4945 -0.6996  1.7596
19012TIP3   OH278450   1.711   6.739   5.896  0.5051 -0.2853 -0.0034
19012TIP3    H178451   1.759   6.691   5.964  1.1427  0.0657 -0.1959
19012TIP3    H278452   1.626   6.758   5.935 -1.5355 -5.2137 -1.2700
19013TIP3   OH278453   1.624   6.676   0.273  0.0804 -0.1618  0.2728
19013TIP3    H178454   1.699   6.715   0.318 -1.1583  0.3985  1.9823
19013TIP3    H278455   1.587   6.614   0.337 -0.7498 -0.6085 -0.6187
19014TIP3   OH278456   0.278   3.147  11.531  0.0820 -0.4522  0.3611
19014TIP3    H178457   0.325   3.064  11.529  1.4826  0.3235  0.1348
19014TIP3    H278458   0.345   3.213  11.547 -1.1103  0.5797  1.3828
19015TIP3   OH278459   4.864   6.149  11.628  0.2291  0.8656  0.1624
19015TIP3    H178460   4.862   6.231  11.579 -2.1373 -0.0207 -1.4316
19015TIP3    H278461   4.905   6.086  11.568 -1.0776  0.1664 -0.0451
19016TIP3   OH278462   4.578   0.356  11.602  1.0435  0.4838  0.0705
19016TIP3    H178463   4.648   0.350  11.537 -1.3619  0.8781 -2.7611
19016TIP3    H278464   4.538   0.269  11.603  2.0192 -0.0175  2.3530
19017TIP3   OH278465   2.161   0.286  13.245 -0.1974 -0.1058 -0.2552
19017TIP3    H178466   2.160   0.195  13.274  0.6188 -0.5786 -1.5986
19017TIP3    H278467   2.225   0.329  13.301 -1.3863 -0.0690  1.1239
19018TIP3   OH278468   0.557   6.478   5.055  0.1675  0.6988  0.0393
19018TIP3    H178469   0.551   6.571   5.078  0.8788  1.0431 -1.1110
19018TIP3    H278470   0.650   6.458   5.063 -0.0336 -0.0270  0.6517
19019TIP3   OH278471   0.522   4.483  11.553  0.6842  0.3332  0.2702
19019TIP3    H178472   0.587   4.549  11.529  1.1589 -0.3192 -0.2576
19019TIP3    H278473   0.565   4.399  11.536 -0.8766 -0.1252 -1.7484
19020TIP3   OH278474   3.421   3.922   3.413  0.6671 -0.4826  0.2156
19020TIP3    H178475   3.356   3.908   3.481  0.0192  0.3103 -0.2164
19020TIP3    H278476   3.490   3.859   3.432 -0.4420 -1.6747  0.4070
19021TIP3   OH278477   3.877   0.901  13.159 -0.0807  0.8663  0.3855
19021TIP3    H178478   3.906   0.992  13.156 -1.0381  1.2280  1.4998
19021TIP3    H278479   3.857   0.885  13.251  1.4239 -0.9177  0.4725
19022TIP3   OH278480   1.296   2.465  12.719 -0.4078  0.0405 -0.3831
19022TIP3    H178481   1.378   2.512  12.730 -0.5105 -0.0540  1.0007
19022TIP3    H278482   1.232   2.532  12.694 -0.5668  0.6939  1.6096
19023TIP3   OH278483   0.121   2.242  11.263  0.0290 -0.2977  0.1983
19023TIP3    H178484   0.118   2.151  11.234 -1.0387 -0.2391  0.0794
19023TIP3    H278485   0.041   2.281  11.228  1.3405  1.1743 -1.3427
19024TIP3   OH278486   0.358   3.096   3.861  1.1384 -0.0524 -0.0537
19024TIP3    H178487   0.356   3.188   3.887  0.4719 -0.3839  1.1402
19024TIP3    H278488   0.402   3.052   3.933 -2.7206 -1.3176  1.8099
19025TIP3   OH278489   0.280   0.777  16.976 -0.4285  0.1220 -0.2277
19025TIP3    H178490   0.265   0.689  17.012 -0.4441 -0.2931 -1.2083
19025TIP3    H278491   0.266   0.836  17.050 -0.4319 -0.7007  0.4490
19026TIP3   OH278492   4.470   5.165  14.943 -0.0459  0.0300  0.1681
19026TIP3    H178493   4.535   5.098  14.920 -1.4134 -1.5180  0.5946
19026TIP3    H278494   4.396   5.115  14.979 -2.0131  1.5989 -1.4821
19027TIP3   OH278495   2.313   6.457  14.138 -0.3610 -0.8237 -0.4997
19027TIP3    H178496   2.387   6.399  14.117 -0.2560 -0.9071  0.0787
19027TIP3    H278497   2.322   6.473  14.232 -0.6799 -0.2687 -0.5633
19028TIP3   OH278498   3.052   2.939  13.298  0.1592 -0.6396 -0.5741
19028TIP3    H178499   2.989   2.905  13.234  0.1947 -0.9924 -0.4280
19028TIP3    H278500   3.025   3.030  13.313 -0.9637 -1.0776  0.2521
19029TIP3   OH278501   6.466   5.931  13.144  0.4989  0.3117  0.0776
19029TIP3    H178502   6.531   5.896  13.084  0.3233  0.4763 -0.2073
19029TIP3    H278503   6.404   5.979  13.089  0.2555  0.3408  0.3694
19030TIP3   OH278504   5.171   3.197   3.999  0.1651  0.1627 -0.1053
19030TIP3    H178505   5.081   3.193   3.965  1.2363 -0.6931 -3.1638
19030TIP3    H278506   5.170   3.137   4.073 -1.3541 -1.5279 -1.3806
19031TIP3   OH278507   3.348   3.066   3.943  0.4439 -0.3269 -0.1739
19031TIP3    H178508   3.342   3.124   3.867  0.8700 -0.7014 -0.5000
19031TIP3    H278509   3.261   3.025   3.948  0.7897 -1.2610 -1.2516
19032TIP3   OH278510   3.011   1.560  15.603  0.4945  0.5307 -0.2618
19032TIP3    H178511   2.975   1.615  15.534  0.2429  0.6649 -0.0243
19032TIP3    H278512   3.075   1.504  15.558 -1.0078 -0.7122 -0.9437
19033TIP3   OH278513   2.022   4.280   6.215  0.0225 -0.3740 -0.1481
19033TIP3    H178514   1.983   4.200   6.250 -1.6686 -0.6062 -2.3529
19033TIP3    H278515   1.970   4.350   6.254  2.0950 -0.1673  2.5276
19034TIP3   OH278516   4.823   2.051   0.315  0.0359 -0.2049 -0.3482
19034TIP3    H178517   4.893   1.986   0.312  0.0126 -0.2132 -1.5884
19034TIP3    H278518   4.743   2.000   0.323  0.2074 -0.1246  3.6734
19035TIP3   OH278519   1.786   0.463  14.426 -0.0600  0.2452 -0.2060
19035TIP3    H178520   1.785   0.548  14.469 -1.0662  0.6179 -0.9196
19035TIP3    H278521   1.872   0.459  14.383 -0.9247  2.0100 -2.2540
19036TIP3   OH278522   5.308   3.061   2.898  0.2292  0.0860  0.3599
19036TIP3    H178523   5.218   3.074   2.867  0.5157  1.1253 -0.0649
19036TIP3    H278524   5.340   3.149   2.915  0.7876 -0.3425  1.6287
19037TIP3   OH278525   2.002   2.167   1.488 -0.1714 -0.0682  0.1462
19037TIP3    H178526   1.944   2.090   1.488 -1.5735  0.9158 -1.1546
19037TIP3    H278527   1.963   2.226   1.553 -1.4117  1.0969 -1.5782
19038TIP3   OH278528   0.254   1.966   5.075 -0.6903 -0.0646 -0.2135
19038TIP3    H178529   0.329   2.020   5.098  0.6451 -1.7298 -0.4990
19038TIP3    H278530   0.275   1.879   5.109 -1.0123 -1.3558 -3.0667
19039TIP3   OH278531   5.047   2.802   3.612 -0.0451 -0.1868  0.0887
19039TIP3    H178532   5.050   2.897   3.621  0.2079 -0.3396  2.2391
19039TIP3    H278533   5.130   2.772   3.649 -1.4017 -1.3452  2.4561
19040TIP3   OH278534   5.583   2.556  12.030  0.3168 -0.1783  0.5530
19040TIP3    H178535   5.673   2.537  12.053 -0.2008 -1.0550  1.9897
19040TIP3    H278536   5.553   2.617  12.097 -0.5738 -1.0037  0.9265
19041TIP3   OH278537   3.276   1.221   4.965 -0.2990 -0.0266  0.1800
19041TIP3    H178538   3.314   1.298   4.923 -1.7787  0.2329 -0.7779
19041TIP3    H278539   3.265   1.247   5.057  1.2871  0.0697  0.3650
19042TIP3   OH278540   5.716   1.653   1.782 -0.4166 -0.0190  0.1255
19042TIP3    H178541   5.801   1.649   1.825 -0.6363 -2.0870  0.4599
19042TIP3    H278542   5.733   1.631   1.690 -0.4688  0.5747 -0.0320
19043TIP3   OH278543   3.484   3.000  11.379  0.5711 -0.7465  0.2179
19043TIP3    H178544   3.505   3.093  11.376 -0.3717 -0.5450 -0.6998
19043TIP3    H278545   3.548   2.958  11.322 -0.3898 -0.3476 -1.2152
19044TIP3   OH278546   2.126   4.083   2.370  0.1789  0.3936  0.2753
19044TIP3    H178547   2.107   3.996   2.404 -0.8990  0.7077  0.5204
19044TIP3    H278548   2.101   4.142   2.441  2.1408  0.8621  0.6281
19045TIP3   OH278549   6.423   1.266  10.541  0.6691  0.0888 -0.5048
19045TIP3    H178550   6.414   1.362  10.542 -1.3282 -0.0446  1.5697
19045TIP3    H278551   6.339   1.234  10.511 -0.1166 -1.0117  2.5342
19046TIP3   OH278552   2.409   0.254   5.031  0.1445 -0.8803 -0.2324
19046TIP3    H178553   2.332   0.312   5.025  0.3221 -0.5606  0.4639
19046TIP3    H278554   2.373   0.169   5.057  0.1188 -0.4322  1.3258
19047TIP3   OH278555   5.627   0.616  15.292 -0.1286  0.2767  0.3950
19047TIP3    H178556   5.711   0.618  15.338 -0.5528  2.1347  1.1687
19047TIP3    H278557   5.650   0.594  15.202  1.2295  1.0316  0.5276
19048TIP3   OH278558   1.077   5.993   1.257 -0.2138  0.4750  0.3560
19048TIP3    H178559   1.035   5.981   1.342 -1.3082  0.9933 -0.0908
19048TIP3    H278560   1.170   5.990   1.275 -0.4256 -1.1762  1.3231
19049TIP3   OH278561   3.884   5.149  14.523 -0.4255 -0.1644 -0.4525
19049TIP3    H178562   3.872   5.103  14.606 -1.0991  0.9869  0.1095
19049TIP3    H278563   3.840   5.233  14.536 -0.2513  0.1618 -1.8659
19050TIP3   OH278564   0.083   0.090  12.473  0.5111  0.0342 -0.1253
19050TIP3    H178565   0.120   0.009  12.436 -1.1753 -0.4033 -0.9763
19050TIP3    H278566   0.000   0.062  12.513 -0.6042  1.4787 -1.3286
19051TIP3   OH278567   5.484   1.993  11.606  0.4253 -0.4983  0.4745
19051TIP3    H178568   5.416   2.058  11.617  0.5526  0.0105 -1.4201
19051TIP3    H278569   5.521   1.981  11.694 -0.0178  1.5091  0.9778
19052TIP3   OH278570   2.816   2.093   5.837 -0.4760 -0.4673  0.1084
19052TIP3    H178571   2.753   2.032   5.877  0.3578 -0.7138  1.0716
19052TIP3    H278572   2.761   2.164   5.804 -1.1927  0.0350  2.2124
19053TIP3   OH278573   0.381   5.348   5.211 -0.0559 -0.0037  0.4611
19053TIP3    H178574   0.376   5.362   5.116  0.5898 -0.8042  0.2941
19053TIP3    H278575   0.292   5.328   5.237 -0.1000 -0.6228 -0.1297
19054TIP3   OH278576   0.110   0.754   4.368 -0.1565  0.0515  0.2437
19054TIP3    H178577   0.121   0.789   4.456 -1.2786  0.1638  0.3503
19054TIP3    H278578   0.198   0.726   4.343  0.3268  0.7796  1.0667
19055TIP3   OH278579   1.607   1.839  11.100  0.0363  0.3340 -0.3586
19055TIP3    H178580   1.619   1.745  11.089 -1.3469 -0.0230  0.7908
19055TIP3    H278581   1.543   1.847  11.172  0.5463  2.1569 -0.0425
19056TIP3   OH278582   1.300   1.956  14.901 -0.2829  0.6508  0.3024
19056TIP3    H178583   1.252   1.951  14.984  0.0060 -1.0774  0.4115
19056TIP3    H278584   1.316   1.865  14.878  1.4949  1.1431 -0.5827
19057TIP3   OH278585   6.294   5.153   1.597  0.3333  0.2750 -0.0763
19057TIP3    H178586   6.351   5.221   1.633 -0.5955  0.8390  0.3889
19057TIP3    H278587   6.220   5.202   1.560 -1.2642 -0.5109  1.8708
19058TIP3   OH278588   2.801   5.540  14.020 -0.6214  0.1741 -0.2795
19058TIP3    H178589   2.823   5.630  13.996 -1.2345 -0.0695 -1.8768
19058TIP3    H278590   2.785   5.496  13.937 -1.6369 -1.0716  0.5334
19059TIP3   OH278591   1.919   5.474  17.073 -0.2859 -0.5721  0.2885
19059TIP3    H178592   1.970   5.554  17.058 -1.0934 -0.1248 -0.1330
19059TIP3    H278593   1.854   5.473  17.003  0.8349 -2.5588 -0.8188
19060TIP3   OH278594   3.114   6.728   0.070 -0.2371  0.4134 -0.1262
19060TIP3    H178595   3.188   6.687   0.115  0.2638  1.5398  0.0989
19060TIP3    H278596   3.087   6.663   0.005  0.0141 -0.6040  0.7515
19061TIP3   OH278597   5.566   2.670   1.851  0.0454  0.6948  0.4169
19061TIP3    H178598   5.625   2.640   1.920 -1.4905 -1.0317  1.0540
19061TIP3    H278599   5.485   2.693   1.896 -0.7552  0.2191 -0.7410
19062TIP3   OH278600   0.357   3.652  12.720  0.2131 -0.0146 -0.2570
19062TIP3    H178601   0.391   3.631  12.807  2.7991  1.2288 -0.8728
19062TIP3    H278602   0.282   3.593  12.709 -0.3398 -0.0695  2.8534
19063TIP3   OH278603   0.578   0.575  15.985  0.2680  0.3651 -0.1469
19063TIP3    H178604   0.621   0.494  15.957  1.8383  1.4238 -0.9981
19063TIP3    H278605   0.551   0.617  15.903 -0.1328  0.8971  0.2534
19064TIP3   OH278606   3.066   6.471   1.923  0.6852  0.3766  0.7813
19064TIP3    H178607   3.029   6.454   1.836  4.2573  0.4454 -0.9519
19064TIP3    H278608   3.018   6.547   1.955 -1.5768 -0.4012 -0.5355
19065TIP3   OH278609   2.980   6.598   3.574  0.2855  0.4237 -0.2440
19065TIP3    H178610   3.005   6.687   3.599 -2.5743  0.7476  1.8927
19065TIP3    H278611   3.022   6.585   3.489  2.1973  3.1290  0.1370
19066TIP3   OH278612   3.537   4.036  13.494 -0.2991 -0.5268 -0.1271
19066TIP3    H178613   3.514   3.958  13.443 -1.9588 -0.9457  1.1784
19066TIP3    H278614   3.482   4.105  13.458  1.7841  0.3289 -1.8584
19067TIP3   OH278615   3.601   0.254  13.753  0.1088  0.2265  0.1931
19067TIP3    H178616   3.644   0.169  13.748 -1.2397 -0.5917  1.6203
19067TIP3    H278617   3.626   0.288  13.839 -1.1827  0.2171  0.5902
19068TIP3   OH278618   3.316   0.454  11.511  0.1750 -0.3413 -0.0825
19068TIP3    H178619   3.331   0.369  11.552 -1.1784 -1.6224 -2.0966
19068TIP3    H278620   3.368   0.453  11.431  2.0327  1.7439  0.9847
19069TIP3   OH278621   0.427   4.925  13.288 -0.6616  0.3321 -0.4773
19069TIP3    H178622   0.425   4.862  13.216 -1.2009  0.9777 -1.0465
19069TIP3    H278623   0.384   4.880  13.361 -0.2662 -0.2661 -0.6138
19070TIP3   OH278624   4.288   5.953   1.569 -0.5286  0.5671 -0.0426
19070TIP3    H178625   4.204   5.930   1.528 -0.5858  0.2328  0.2505
19070TIP3    H278626   4.269   5.952   1.663  0.0291 -0.4697  0.0785
19071TIP3   OH278627   3.254   3.471   6.534  0.2141  0.1874 -0.4073
19071TIP3    H178628   3.287   3.551   6.575 -0.5455  0.7012 -0.7731
19071TIP3    H278629   3.313   3.403   6.564  1.1310  0.9518 -0.4251
19072TIP3   OH278630   6.627   6.700  15.213  0.2406 -0.3697 -0.5728
19072TIP3    H178631   6.685   6.774  15.229 -0.7612  0.3533 -0.1334
19072TIP3    H278632   6.673   6.647  15.147  0.8558  0.7912 -1.1187
19073TIP3   OH278633   0.882   6.516   0.161 -0.0702  0.4536  0.0739
19073TIP3    H178634   0.895   6.601   0.204  0.9343  0.9705 -1.2085
19073TIP3    H278635   0.954   6.462   0.194 -1.2622 -0.2608  1.6524
19074TIP3   OH278636   3.432   2.314   0.869  0.6334  0.3391  0.3915
19074TIP3    H178637   3.338   2.318   0.851  0.9252  0.2518 -1.4261
19074TIP3    H278638   3.441   2.341   0.960 -1.1796  0.0053  0.7106
19075TIP3   OH278639   1.437   0.074   2.018 -0.1942  0.1225 -0.3769
19075TIP3    H178640   1.391  -0.001   2.055 -0.5988  0.8266  0.5918
19075TIP3    H278641   1.519   0.038   1.985  0.4719 -0.4776  1.7560
19076TIP3   OH278642   3.013   2.934   5.470  0.6963 -0.3360  0.7134
19076TIP3    H178643   2.984   2.921   5.560  1.7493  1.9230  1.4795
19076TIP3    H278644   2.942   2.984   5.429  0.4921 -0.8215  0.4697
19077TIP3   OH278645   1.573   2.953  15.039  0.3475  0.2605  0.2298
19077TIP3    H178646   1.596   2.934  15.130  1.8409  2.1666  0.3143
19077TIP3    H278647   1.504   2.890  15.018 -0.2855 -0.0026  2.7759
19078TIP3   OH278648   0.028   5.231   5.493 -0.2854  0.7092  0.1790
19078TIP3    H178649   0.111   5.265   5.459  0.4942 -1.8411 -0.6671
19078TIP3    H278650   0.052   5.182   5.572 -0.5545 -1.9509 -1.2876
19079TIP3   OH278651   6.282   3.963  15.078  0.2867  0.1527  0.2929
19079TIP3    H178652   6.267   4.002  15.164 -0.1839 -0.5089  0.5181
19079TIP3    H278653   6.207   3.905  15.064  1.3911 -1.3425  0.3547
19080TIP3   OH278654   6.186   2.172   3.888 -0.1297 -0.2463 -0.0730
19080TIP3    H178655   6.253   2.236   3.915 -0.3736 -0.1291  0.2651
19080TIP3    H278656   6.199   2.163   3.794  2.0909 -2.2061  0.3224
19081TIP3   OH278657   2.384   0.307  17.023 -0.1493  0.1951 -0.6805
19081TIP3    H178658   2.388   0.382  16.963 -0.7029  0.2462 -0.6579
19081TIP3    H278659   2.344   0.237  16.972 -0.3013  0.1347 -0.4794
19082TIP3   OH278660   2.339   4.804   1.518 -0.1679  0.2330 -0.2928
19082TIP3    H178661   2.375   4.892   1.524 -0.0013  0.2666 -1.4593
19082TIP3    H278662   2.412   4.746   1.540 -0.7231  0.3780  2.2454
19083TIP3   OH278663   4.903   0.556   2.128 -0.1945  0.1183  0.8408
19083TIP3    H178664   4.972   0.620   2.111  0.2613 -0.4209  0.6427
19083TIP3    H278665   4.942   0.494   2.188 -0.6661  0.0720  1.0985
19084TIP3   OH278666   2.156   2.390  14.392 -0.2965  0.1536  0.8922
19084TIP3    H178667   2.199   2.437  14.320 -1.2616 -0.9133 -0.4307
19084TIP3    H278668   2.066   2.421  14.391 -0.7622 -1.1640  0.4684
19085TIP3   OH278669   2.708   5.419  17.069 -0.2239  0.3106  0.0570
19085TIP3    H178670   2.766   5.475  17.018  0.2694  0.0126  0.2832
19085TIP3    H278671   2.752   5.334  17.070 -0.3903  0.2272  0.6949
19086TIP3   OH278672   1.545   1.295   5.240  0.6930  0.0783 -0.0087
19086TIP3    H178673   1.491   1.220   5.217 -1.1982  1.1298  0.8346
19086TIP3    H278674   1.628   1.257   5.269  0.3564 -1.5816 -1.1222
19087TIP3   OH278675   3.054   2.811   2.724 -0.2599 -0.0553  0.1596
19087TIP3    H178676   2.993   2.819   2.797 -0.0677 -1.0243  0.4384
19087TIP3    H278677   2.999   2.809   2.646 -0.5162  0.1461  0.3348
19088TIP3   OH278678   4.748   4.272   2.158  0.3381  0.2805  0.0831
19088TIP3    H178679   4.823   4.220   2.130 -0.4188 -1.4011  0.9886
19088TIP3    H278680   4.739   4.253   2.252 -0.6977  1.1254  0.1783
19089TIP3   OH278681   3.313   0.350  13.099  0.4608 -0.3448 -0.0638
19089TIP3    H178682   3.384   0.389  13.151  0.6638  0.1118 -0.6761
19089TIP3    H278683   3.238   0.350  13.159  1.0077 -0.9765  0.6425
19090TIP3   OH278684   0.925   3.303   0.026 -0.0995  0.2210  0.1242
19090TIP3    H178685   0.895   3.249  -0.047  0.4971  1.6856 -1.2610
19090TIP3    H278686   0.985   3.246   0.074  0.2908 -0.4665 -1.1256
19091TIP3   OH278687   0.720   0.726  16.454  0.4022  0.3399  0.3570
19091TIP3    H178688   0.788   0.677  16.502  1.7459  0.9755 -0.8155
19091TIP3    H278689   0.642   0.670  16.459  1.2681 -0.8688  0.9448
19092TIP3   OH278690   6.430   5.070   0.174 -0.0259  0.2549 -0.3673
19092TIP3    H178691   6.348   5.070   0.224  0.1001 -1.5529 -0.0846
19092TIP3    H278692   6.433   5.156   0.133 -0.7339  1.3828  1.7662
19093TIP3   OH278693   2.641   5.448   3.819  0.1711  0.1760  0.7918
19093TIP3    H178694   2.565   5.469   3.765  1.3741  1.8359 -0.3532
19093TIP3    H278695   2.690   5.384   3.767  0.4483  0.4659  0.6909
19094TIP3   OH278696   5.223   6.643  15.462 -0.6048  0.3024 -0.8407
19094TIP3    H178697   5.162   6.578  15.426 -0.5569 -0.7095  0.8163
19094TIP3    H278698   5.306   6.623  15.419 -0.2434 -1.7118  0.6538
19095TIP3   OH278699   3.187   1.978   1.828 -0.2336 -0.1554 -0.3336
19095TIP3    H178700   3.159   2.066   1.855 -1.1410 -0.6363  0.3443
19095TIP3    H278701   3.161   1.921   1.900  0.2822 -1.0037 -0.7958
19096TIP3   OH278702   2.392   3.809   0.805  0.0501 -0.7561 -1.1762
19096TIP3    H178703   2.411   3.840   0.893  0.9322 -0.4470 -1.4672
19096TIP3    H278704   2.317   3.861   0.777 -0.0198 -0.6176 -0.7395
19097TIP3   OH278705   2.609   3.180   6.391  0.3993  0.3144 -0.0748
19097TIP3    H178706   2.582   3.261   6.435 -2.1033 -0.4818  0.0458
19097TIP3    H278707   2.535   3.120   6.405  0.5292 -0.7881 -3.2326
19098TIP3   OH278708   1.860   4.442   3.326 -0.0521 -0.3483 -0.1130
19098TIP3    H178709   1.791   4.486   3.376 -0.2696  1.0276 -1.5401
19098TIP3    H278710   1.935   4.442   3.385 -0.5080  0.5173  0.4993
19099TIP3   OH278711   0.042   4.505   3.551 -0.2035  0.2361  0.3441
19099TIP3    H178712   0.044   4.456   3.469  0.0602  0.6161  0.1173
19099TIP3    H278713  -0.008   4.450   3.611  1.1963 -0.9080  0.5030
19100TIP3   OH278714   3.630   3.337   5.308  0.5673  0.3915 -0.5025
19100TIP3    H178715   3.721   3.307   5.316  0.2123 -0.2235  2.1982
19100TIP3    H278716   3.579   3.274   5.358 -1.2252  1.3952 -0.9535
19101TIP3   OH278717   2.794   5.476   0.721  0.2786  0.6537 -0.1063
19101TIP3    H178718   2.744   5.432   0.653  1.2713 -0.8188  0.0659
19101TIP3    H278719   2.797   5.568   0.694 -1.2226  0.5025 -0.8611
19102TIP3   OH278720   6.060   5.618  16.515 -0.3089 -0.1246 -0.2114
19102TIP3    H178721   6.037   5.538  16.469 -0.5265 -1.8602  2.6578
19102TIP3    H278722   6.150   5.605  16.543 -0.6636  0.1582  1.1469
19103TIP3   OH278723   0.914   1.101  14.025  0.7435 -0.4201 -0.1280
19103TIP3    H178724   0.912   1.006  14.029 -0.0383 -0.3795  0.8357
19103TIP3    H278725   0.956   1.128  14.106  0.0739  0.0768  0.0603
19104TIP3   OH278726   3.664   4.976   1.565  0.2447 -0.4786 -0.6279
19104TIP3    H178727   3.603   4.974   1.638  3.2796  1.2776  2.2488
19104TIP3    H278728   3.640   5.055   1.516  0.3233  0.3533  0.6233
19105TIP3   OH278729   1.823   2.601   6.581  0.7490 -0.3352  0.2652
19105TIP3    H178730   1.754   2.537   6.562 -0.0083  0.6656 -0.4104
19105TIP3    H278731   1.894   2.578   6.521  0.6505 -0.7949  0.3163
19106TIP3   OH278732   3.437   4.786   5.590  0.1755 -0.1404  0.0942
19106TIP3    H178733   3.426   4.705   5.540 -1.8473  0.3033 -0.2513
19106TIP3    H278734   3.487   4.759   5.667 -0.4487 -1.7404 -0.0146
19107TIP3   OH278735   5.673   2.394  15.028  0.2243 -0.1388  0.4775
19107TIP3    H178736   5.665   2.326  15.095  2.6949  0.3765  1.4285
19107TIP3    H278737   5.647   2.475  15.073  1.4807  0.1440  0.7485
19108TIP3   OH278738   2.562   5.946   1.900  0.4580 -0.4220 -0.1045
19108TIP3    H178739   2.503   5.944   1.976 -1.0619  2.1179 -1.0668
19108TIP3    H278740   2.640   5.992   1.931  0.3632 -0.4958  0.2463
19109TIP3   OH278741   4.487   2.831  15.716 -0.2492  0.0532  0.6751
19109TIP3    H178742   4.413   2.855  15.773 -0.5280 -1.4382  0.9775
19109TIP3    H278743   4.530   2.759  15.762  0.5153 -0.0806 -0.2310
19110TIP3   OH278744   2.815   6.279   5.347  0.1038  0.0581 -0.4396
19110TIP3    H178745   2.726   6.254   5.372 -0.3145  0.2507 -1.6954
19110TIP3    H278746   2.829   6.363   5.390 -0.6476  0.4414 -0.9252
19111TIP3   OH278747   4.347   2.994  15.068  0.0741  0.1070  0.1312
19111TIP3    H178748   4.296   2.923  15.029 -0.4462  0.6982 -0.2890
19111TIP3    H278749   4.283   3.045  15.118  0.6930 -0.5284  1.6385
19112TIP3   OH278750   0.483   3.255   4.743  1.2262  0.5198 -0.2235
19112TIP3    H178751   0.539   3.322   4.703  0.4509  0.5578 -1.3141
19112TIP3    H278752   0.509   3.173   4.699  0.4652  0.5366 -0.7351
19113TIP3   OH278753   2.581   1.669  10.977 -0.2708  0.0144  0.2767
19113TIP3    H178754   2.673   1.673  11.001  0.4314  1.5403 -2.3545
19113TIP3    H278755   2.543   1.747  11.018  0.3428  1.1420 -1.2266
19114TIP3   OH278756   4.189   4.358  14.703 -0.1500  0.4979 -0.1244
19114TIP3    H178757   4.202   4.394  14.615 -1.6368  1.6191  0.0839
19114TIP3    H278758   4.271   4.378  14.749  0.0002  1.4353 -0.7626
19115TIP3   OH278759   2.425   6.350   5.100  0.1353 -0.1323 -0.0057
19115TIP3    H178760   2.365   6.289   5.141  1.0370 -1.0605 -0.0282
19115TIP3    H278761   2.453   6.408   5.171  0.6515 -0.8882  0.4320
19116TIP3   OH278762   2.607   4.075   5.178 -0.1795  0.1935 -0.6514
19116TIP3    H178763   2.588   4.161   5.217 -0.4659 -0.3596  0.4619
19116TIP3    H278764   2.535   4.019   5.207  0.5766 -0.6988 -0.4716
19117TIP3   OH278765   1.435   5.263  15.140  0.4262  0.3823 -0.4880
19117TIP3    H178766   1.454   5.303  15.225  1.6527  1.2687 -1.1367
19117TIP3    H278767   1.431   5.337  15.080  0.6836 -0.3132 -1.3799
19118TIP3   OH278768   0.310   4.030   3.453  0.3382  0.1627 -0.2143
19118TIP3    H178769   0.339   4.122   3.448  0.3052  0.1261 -1.2233
19118TIP3    H278770   0.285   4.008   3.364 -1.4265 -0.2678  0.3480
19119TIP3   OH278771   3.127   4.524   2.055  0.5664 -0.3907  0.2101
19119TIP3    H178772   3.061   4.456   2.046  1.7551 -1.7796  1.3755
19119TIP3    H278773   3.176   4.521   1.973  0.1866 -0.4614 -0.0151
19120TIP3   OH278774   2.185   5.776  15.977 -0.6265  0.0505  0.7507
19120TIP3    H178775   2.104   5.729  16.000 -1.2583  0.8560  0.2191
19120TIP3    H278776   2.249   5.706  15.962 -1.3729 -0.6277  0.6247
19121TIP3   OH278777   1.883   4.303   4.334  0.4395  0.2918  0.0763
19121TIP3    H178778   1.902   4.395   4.350  1.5533  0.1976 -0.5976
19121TIP3    H278779   1.854   4.300   4.243 -0.3252  0.0615  0.3142
19122TIP3   OH278780   1.696   4.033  15.032 -0.3763 -0.0181  0.4871
19122TIP3    H178781   1.658   4.079  15.107 -0.6241 -1.1113  1.0691
19122TIP3    H278782   1.635   3.960  15.016  0.3032 -0.4891 -0.0119
19123TIP3   OH278783   3.393   0.307  11.280  0.0071 -0.1193  0.7016
19123TIP3    H178784   3.475   0.351  11.257 -0.0733 -0.9536 -1.3921
19123TIP3    H278785   3.420   0.222  11.314  0.0323 -0.1509  0.6037
19124TIP3   OH278786   4.645   3.318   5.782 -0.1609  0.3827 -0.2390
19124TIP3    H178787   4.733   3.289   5.757 -0.6426 -0.5670 -0.9065
19124TIP3    H278788   4.658   3.368   5.863  0.9011 -0.3277  0.0468
19125TIP3   OH278789   6.164   5.064  16.351  0.1697  0.1231 -0.4171
19125TIP3    H178790   6.089   5.018  16.389 -0.0355  0.5873 -0.2571
19125TIP3    H278791   6.148   5.062  16.257 -0.5527  1.0780 -0.3296
19126TIP3   OH278792   4.106   3.153   4.326  0.4864 -0.0967  0.0457
19126TIP3    H178793   4.160   3.094   4.379  0.0720 -0.3408  0.2038
19126TIP3    H278794   4.139   3.240   4.347 -0.7876 -0.0294  2.0781
19127TIP3   OH278795   4.031   0.563  11.034 -0.3514  0.2044  0.3917
19127TIP3    H178796   4.052   0.620  11.108 -0.4818  0.1250  0.4890
19127TIP3    H278797   4.039   0.475  11.069  1.4272  0.1047 -0.1621
19128TIP3   OH278798   3.769   1.755   4.177  0.0289  0.1774  0.0438
19128TIP3    H178799   3.677   1.780   4.178 -0.0843 -0.2545  0.1888
19128TIP3    H278800   3.809   1.816   4.114 -0.1008  1.2320  0.9683
19129TIP3   OH278801   2.804   6.024   5.590  0.4227 -0.5209 -0.6856
19129TIP3    H178802   2.874   6.082   5.620 -0.3558 -0.5830  1.4074
19129TIP3    H278803   2.776   6.061   5.507  2.8292 -0.4363 -1.5384
19130TIP3   OH278804   1.562   4.257   3.349 -0.0485  0.3791 -0.5574
19130TIP3    H178805   1.477   4.264   3.306  0.4723 -0.6928 -1.8285
19130TIP3    H278806   1.594   4.347   3.354 -0.7469  0.6662 -1.1412
19131TIP3   OH278807   2.501   6.063  11.744 -0.4614 -0.2655  0.0079
19131TIP3    H178808   2.462   6.143  11.709 -1.5451 -0.8500 -0.1733
19131TIP3    H278809   2.457   6.051  11.828 -1.1815 -1.2928 -0.4979
19132TIP3   OH278810   6.649   3.400  15.216 -1.1462  0.0869  0.0899
19132TIP3    H178811   6.652   3.491  15.244 -1.6092  0.3893 -0.7728
19132TIP3    H278812   6.570   3.365  15.257 -0.7842 -0.0323  0.6981
19133TIP3   OH278813   1.934   0.159  16.254 -0.2286 -0.4324  0.2756
19133TIP3    H178814   1.974   0.245  16.265 -0.6737 -0.4019  1.8732
19133TIP3    H278815   1.983   0.119  16.182  0.3328  0.9370 -0.1303
19134TIP3   OH278816   0.294   6.343  13.270  0.9019  0.3693  0.4488
19134TIP3    H178817   0.272   6.368  13.360 -1.1512  1.9513 -0.4166
19134TIP3    H278818   0.338   6.419  13.234  0.5998  0.2256 -0.2406
19135TIP3   OH278819   5.913   2.604  15.037 -0.3984 -1.0345 -0.0955
19135TIP3    H178820   5.901   2.517  14.998 -0.8460 -0.4872 -1.2476
19135TIP3    H278821   5.847   2.658  14.993 -0.7791 -0.3257  1.3132
19136TIP3   OH278822   3.317   3.500  12.460 -0.2650  0.1948 -0.1028
19136TIP3    H178823   3.225   3.473  12.465  0.1783 -1.2571  1.3634
19136TIP3    H278824   3.351   3.456  12.382 -0.4040 -0.7391  0.3464
19137TIP3   OH278825   1.158   2.746  12.703 -0.5173 -0.3262  0.0271
19137TIP3    H178826   1.065   2.725  12.704 -0.9983  1.5788  0.2057
19137TIP3    H278827   1.175   2.782  12.616 -0.0809 -0.1885  0.1623
19138TIP3   OH278828   3.936   5.521   4.160  0.2792 -0.0136 -0.2142
19138TIP3    H178829   3.901   5.477   4.238  0.5323  0.4804  0.1871
19138TIP3    H278830   3.881   5.598   4.148 -0.3782 -0.6105 -1.1199
19139TIP3   OH278831   1.800   6.716   3.815 -1.1509 -0.2145  0.1926
19139TIP3    H178832   1.895   6.723   3.818 -0.9836 -1.9811 -0.0401
19139TIP3    H278833   1.773   6.781   3.750  0.0324 -0.6794 -0.7988
19140TIP3   OH278834   2.805   5.059  12.500 -0.3679  0.2665  0.0678
19140TIP3    H178835   2.832   5.120  12.569  0.1388  0.5486 -0.3659
19140TIP3    H278836   2.865   5.078  12.428  0.5461 -1.5265  0.3123
19141TIP3   OH278837   2.677   0.105  14.851 -0.6427  0.2279  0.1969
19141TIP3    H178838   2.591   0.066  14.832  0.0649 -0.3782 -2.0185
19141TIP3    H278839   2.726   0.033  14.892 -0.8383  0.2565  0.4898
19142TIP3   OH278840   4.957   1.925   0.746  0.1432 -0.1572  0.1206
19142TIP3    H178841   4.919   1.906   0.831  0.9986 -1.7856  0.1674
19142TIP3    H278842   4.891   1.980   0.702 -0.3175  0.6954  1.7871
19143TIP3   OH278843   4.600   3.369   5.317 -0.5589 -0.1755 -0.1813
19143TIP3    H178844   4.612   3.386   5.223  0.5608 -0.5282 -0.1217
19143TIP3    H278845   4.535   3.298   5.320  0.4811 -1.2107 -0.7855
19144TIP3   OH278846   3.818   0.977   1.554 -0.0427 -0.6689 -0.8045
19144TIP3    H178847   3.853   0.907   1.499 -1.1493  0.8089 -3.5293
19144TIP3    H278848   3.723   0.965   1.551 -0.1606 -0.2264  0.3982
19145TIP3   OH278849   5.520   0.966   4.048 -0.0820  0.2461 -0.7616
19145TIP3    H178850   5.559   0.901   4.107 -1.0235 -0.0115 -0.4060
19145TIP3    H278851   5.541   1.050   4.088 -1.1339  0.0604  0.2352
19146TIP3   OH278852   3.308   5.826  17.018 -0.3860 -0.3932  0.2905
19146TIP3    H178853   3.370   5.836  16.946 -3.1124  0.7202 -2.0832
19146TIP3    H278854   3.329   5.897  17.078 -0.4705  1.0936 -1.3780
19147TIP3   OH278855   1.613   3.077  16.367 -0.5698 -0.1759 -0.5987
19147TIP3    H178856   1.641   3.056  16.456 -0.2293  1.7415 -0.2100
19147TIP3    H278857   1.520   3.098  16.375 -1.0409 -1.8948 -1.0748
19148TIP3   OH278858   1.904   4.970  10.671  0.4680 -0.5262  0.2687
19148TIP3    H178859   1.810   4.986  10.670  0.4477 -0.5966  0.6404
19148TIP3    H278860   1.928   4.975  10.764  0.7851 -0.7581  0.2031
19149TIP3   OH278861   0.700   0.291  12.266 -0.1387  0.1968 -0.6931
19149TIP3    H178862   0.663   0.356  12.326  3.5727  1.0652  0.9411
19149TIP3    H278863   0.723   0.340  12.188 -1.0861 -0.0583 -1.1447
19150TIP3   OH278864   2.684   3.588  14.259 -0.0378 -0.4396  0.5445
19150TIP3    H178865   2.688   3.683  14.267 -0.5809 -0.5003  1.6770
19150TIP3    H278866   2.591   3.568  14.252  0.0947 -0.8670 -0.1275
19151TIP3   OH278867   6.460   4.413   0.042  0.3539 -0.0795  0.1140
19151TIP3    H178868   6.434   4.351  -0.026 -1.7057 -1.1413  1.7362
19151TIP3    H278869   6.437   4.499   0.006 -2.9503 -0.7641  0.2262
19152TIP3   OH278870   6.608   5.239  11.088  0.9358 -0.5176 -0.0866
19152TIP3    H178871   6.669   5.257  11.159  3.2201 -2.5372 -1.4104
19152TIP3    H278872   6.553   5.168  11.122 -1.4443  1.8434  1.4188
19153TIP3   OH278873   2.632   1.320  12.231 -0.1167  0.8770 -0.4055
19153TIP3    H178874   2.583   1.273  12.299  0.3413  1.1502  0.1292
19153TIP3    H278875   2.614   1.272  12.150 -0.6369  0.5176 -0.0808
19154TIP3   OH278876   6.362   5.971   4.521 -0.6084 -0.2263  0.2406
19154TIP3    H178877   6.421   5.900   4.545 -1.2331 -0.7641  0.2291
19154TIP3    H278878   6.275   5.938   4.543 -0.8786  0.6854  0.5817
19155TIP3   OH278879   3.494   6.452  11.978  0.0814  0.2222 -0.1598
19155TIP3    H178880   3.521   6.401  11.901  2.3264  2.3186 -0.9215
19155TIP3    H278881   3.423   6.507  11.946  0.8240  0.8903 -0.7073
19156TIP3   OH278882   6.690   2.200  15.917  0.0252 -0.5778 -1.0631
19156TIP3    H178883   6.772   2.250  15.923 -0.4847  0.5244 -2.6724
19156TIP3    H278884   6.692   2.143  15.994  0.4538  2.2104  1.1620
19157TIP3   OH278885   5.254   0.142  14.812  0.3277 -0.5164 -0.4088
19157TIP3    H178886   5.238   0.069  14.872 -0.6226  0.0975  0.1280
19157TIP3    H278887   5.169   0.158  14.770  0.0887  1.2198  0.6062
19158TIP3   OH278888   4.189   6.566  14.231 -0.0346  0.3229  0.3411
19158TIP3    H178889   4.240   6.594  14.307  0.6342  1.9419 -0.6452
19158TIP3    H278890   4.231   6.485  14.202  0.0630  0.0042  1.3467
19159TIP3   OH278891   4.924   3.392  11.811 -0.0137 -0.3262  0.1546
19159TIP3    H178892   5.019   3.397  11.818  0.0267 -0.8682  0.0087
19159TIP3    H278893   4.902   3.304  11.842 -0.5650  0.1504  1.1580
19160TIP3   OH278894   3.065   5.113   4.394 -0.0446  0.1578 -0.0141
19160TIP3    H178895   3.098   5.170   4.325 -0.7172  1.6494  0.8633
19160TIP3    H278896   3.001   5.057   4.350  0.9237 -0.2285 -0.9700
19161TIP3   OH278897   5.235   4.215   4.658 -0.4162  0.1838 -0.7004
19161TIP3    H178898   5.258   4.180   4.744 -0.3577  2.2497  0.1885
19161TIP3    H278899   5.301   4.179   4.598  0.1529 -0.4727  0.2964
19162TIP3   OH278900   3.907   2.851  14.270  0.0277 -0.0105  0.0620
19162TIP3    H178901   3.935   2.922  14.328  0.2054 -0.5245  0.6213
19162TIP3    H278902   3.839   2.889  14.215 -0.9446  0.1957  1.3707
19163TIP3   OH278903   4.170   1.498   2.596  0.0917 -0.3889  0.0801
19163TIP3    H178904   4.077   1.480   2.605  0.0792 -1.1367 -1.2860
19163TIP3    H278905   4.213   1.432   2.651 -0.1964  0.7114  1.6700
19164TIP3   OH278906   2.514   4.654  13.094  0.1189  0.0639  0.1374
19164TIP3    H178907   2.517   4.674  13.001  0.9230  1.3179  0.4181
19164TIP3    H278908   2.600   4.618  13.114 -0.1219 -0.3974  0.3687
19165TIP3   OH278909   1.786   0.155  11.673  0.1372  0.1265 -0.0754
19165TIP3    H178910   1.794   0.250  11.660 -1.0242  0.2182 -0.2206
19165TIP3    H278911   1.738   0.146  11.755 -0.7164 -0.2993 -0.6001
19166TIP3   OH278912   2.687   6.153   4.979  0.2380  0.8134 -0.5912
19166TIP3    H178913   2.623   6.219   5.007  0.7978  1.6051 -1.1530
19166TIP3    H278914   2.643   6.105   4.909  0.3272  1.4904 -1.1171
19167TIP3   OH278915   2.049   2.532  11.769 -0.0124  0.1324 -0.1094
19167TIP3    H178916   1.965   2.568  11.797 -0.2191  0.0859 -0.6564
19167TIP3    H278917   2.025   2.462  11.707  0.4529  1.7414 -2.2206
19168TIP3   OH278918   0.582   0.222  11.334  0.6382  0.2617 -0.3963
19168TIP3    H178919   0.517   0.253  11.271  0.8892 -0.6125 -1.1095
19168TIP3    H278920   0.650   0.181  11.280  0.9339 -0.3758  0.4394
19169TIP3   OH278921   4.314   2.644  12.595  0.5350  0.2602  0.0110
19169TIP3    H178922   4.348   2.731  12.611 -0.9213  1.2172 -1.7131
19169TIP3    H278923   4.222   2.658  12.572 -1.1228 -2.1306  4.0898
19170TIP3   OH278924   0.255   1.024  12.475 -0.0016  0.5391  0.3002
19170TIP3    H178925   0.264   1.089  12.406  0.1412 -0.3863 -0.5829
19170TIP3    H278926   0.168   1.041  12.513 -0.1734  0.9276 -0.2494
19171TIP3   OH278927   1.901   1.329  11.781  0.6501  0.1480 -0.1845
19171TIP3    H178928   1.970   1.279  11.826 -0.7600 -0.8705  0.9312
19171TIP3    H278929   1.872   1.271  11.711 -1.3159 -0.9024  1.4021
19172TIP3   OH278930   0.336   1.635   3.663 -0.6608 -0.0523 -0.2761
19172TIP3    H178931   0.416   1.589   3.689  0.2881  1.4203 -0.4549
19172TIP3    H278932   0.287   1.645   3.744 -1.0881 -1.6990 -0.2999
19173TIP3   OH278933   6.058   6.452   0.999 -0.0424 -0.1459 -0.4699
19173TIP3    H178934   5.981   6.498   1.032  0.8239 -0.6532  2.5351
19173TIP3    H278935   6.031   6.419   0.913 -3.0843 -0.0925  0.3548
19174TIP3   OH278936   5.525   5.301  11.099  0.1083 -0.2174  0.4102
19174TIP3    H178937   5.457   5.360  11.131  0.0427  0.1293 -0.3555
19174TIP3    H278938   5.477   5.234  11.051  0.3941  1.2792 -2.1417
19175TIP3   OH278939   5.106   6.722  14.955  0.0122 -0.2350 -0.1929
19175TIP3    H178940   5.140   6.636  14.980 -1.0950 -0.2495  1.4261
19175TIP3    H278941   5.013   6.718  14.976 -0.7029  0.4100 -2.8212
19176TIP3   OH278942   3.871   4.723  14.375 -0.1817  0.2876  0.6432
19176TIP3    H178943   3.812   4.738  14.301 -0.0044 -0.0890  0.4232
19176TIP3    H278944   3.874   4.628  14.384  0.6157  0.2962  0.4760
19177TIP3   OH278945   6.603   4.127   6.801 -0.1950 -0.2572 -0.2374
19177TIP3    H178946   6.592   4.222   6.795 -2.2191 -0.3150  1.4527
19177TIP3    H278947   6.654   4.104   6.723 -0.3277  2.0982 -1.1085
19178TIP3   OH278948   5.990   5.356  16.407  0.5074  0.3073  0.4512
19178TIP3    H178949   6.068   5.318  16.449 -0.0986 -0.8627  0.5469
19178TIP3    H278950   5.936   5.281  16.383 -0.7196  1.0989  0.6159
19179TIP3   OH278951   4.978   6.743  11.597  0.0218 -0.3419 -0.3258
19179TIP3    H178952   4.961   6.742  11.503 -0.4299 -0.5232 -0.2422
19179TIP3    H278953   4.991   6.835  11.618 -0.8553 -0.1961 -0.3925
19180TIP3   OH278954   2.798   6.394  15.132 -0.2000  0.1294  0.1013
19180TIP3    H178955   2.736   6.321  15.138 -1.0398  0.9016  1.1609
19180TIP3    H278956   2.806   6.426  15.221  0.1638  1.3390 -0.3484
19181TIP3   OH278957   2.978   5.015  14.114  0.2855  0.0284  0.1940
19181TIP3    H178958   3.056   4.963  14.094 -0.3096 -1.1447  0.7719
19181TIP3    H278959   3.000   5.104  14.087  1.3482 -0.5230 -0.8316
19182TIP3   OH278960   1.999   1.483  16.670  0.2893  0.0676  0.5352
19182TIP3    H178961   1.912   1.444  16.680  0.6780 -1.2564 -0.8250
19182TIP3    H278962   1.993   1.534  16.589 -0.0927  2.6243  2.0834
19183TIP3   OH278963   0.090   0.686  15.402  0.2734 -0.2911  0.1530
19183TIP3    H178964   0.125   0.651  15.483  1.7622  1.3559  0.3041
19183TIP3    H278965   0.102   0.781  15.410 -1.5195  0.0893 -1.1069
19184TIP3   OH278966   4.501   5.874   3.388 -0.1308 -0.3039 -0.2279
19184TIP3    H178967   4.565   5.885   3.318  1.0569 -1.6856  0.5765
19184TIP3    H278968   4.465   5.962   3.402  0.5360  0.2273 -1.6806
19185TIP3   OH278969   1.116   2.663  13.589 -0.4572 -0.1325 -0.8151
19185TIP3    H178970   1.146   2.580  13.551  0.0394  0.0763 -0.8792
19185TIP3    H278971   1.090   2.716  13.513 -0.8848 -0.2672 -0.7666
19186TIP3   OH278972   4.270   4.064   5.231 -0.3229  0.1159  0.3228
19186TIP3    H178973   4.232   4.151   5.245  0.6268  0.4162  1.1719
19186TIP3    H278974   4.202   4.003   5.259 -1.2921  0.5409 -0.9950
19187TIP3   OH278975   3.591   2.067   1.104 -0.1859  0.1802  0.3240
19187TIP3    H178976   3.640   2.063   1.022 -1.4443  0.6506 -0.4897
19187TIP3    H278977   3.645   2.120   1.162  1.1892 -0.9645  0.1555
19188TIP3   OH278978   0.597   3.114  13.430 -0.2533 -0.0408 -0.2031
19188TIP3    H178979   0.666   3.169  13.393 -0.5456  1.3599  1.1768
19188TIP3    H278980   0.617   3.110  13.523 -0.3658 -2.1761 -0.2288
19189TIP3   OH278981   5.509   1.956  13.937  0.1410  0.1149 -0.3419
19189TIP3    H178982   5.520   2.004  13.854 -0.7860 -0.2198 -0.6756
19189TIP3    H278983   5.434   1.898  13.921 -0.3447  0.3803  0.8923
19190TIP3   OH278984   0.589   2.084  12.993 -0.2222  0.0595  0.2105
19190TIP3    H178985   0.651   2.085  13.066  1.5745 -1.3142 -1.1840
19190TIP3    H278986   0.536   2.006  13.007 -0.9145  0.6239  0.8125
19191TIP3   OH278987   0.482   2.822  13.727 -0.1400  0.3917  0.1712
19191TIP3    H178988   0.399   2.837  13.772 -0.8589 -0.5451 -0.7848
19191TIP3    H278989   0.538   2.782  13.794  0.5112  3.4027  1.6082
19192TIP3   OH278990   2.876   1.682  15.827  0.2336  0.1270  0.3297
19192TIP3    H178991   2.888   1.590  15.802  0.1128  0.2291 -0.1071
19192TIP3    H278992   2.853   1.678  15.919  1.5825 -0.2108  0.6797
19193TIP3   OH278993   4.477   3.684  13.131 -0.0831 -0.3470 -0.6234
19193TIP3    H178994   4.534   3.759  13.146 -1.0523 -0.0665  2.2971
19193TIP3    H278995   4.514   3.641  13.054  1.8556  1.8264 -1.0212
19194TIP3   OH278996   0.171   6.195  11.421  0.0867 -0.0215 -0.4085
19194TIP3    H178997   0.195   6.254  11.492 -0.7658 -1.0158  0.7408
19194TIP3    H278998   0.254   6.163  11.386  0.5125  0.1321  0.4506
19195TIP3   OH278999   4.059   6.300  14.696 -0.3644 -0.4995  0.6277
19195TIP3    H179000   4.108   6.351  14.761 -0.1165  0.6175 -0.3923
19195TIP3    H279001   4.019   6.366  14.639 -1.1124 -1.4368  0.0372
19196TIP3   OH279002   4.670   3.154  11.394  0.4600 -0.0965 -0.3589
19196TIP3    H179003   4.706   3.150  11.306  2.2281 -1.1731  0.3535
19196TIP3    H279004   4.713   3.230  11.434 -0.2149  0.2939 -0.3618
19197TIP3   OH279005   1.644   4.087  14.248  0.4928 -0.0638 -0.6025
19197TIP3    H179006   1.623   4.001  14.211  0.6626 -0.6042  0.5397
19197TIP3    H279007   1.582   4.147  14.205  0.2862 -0.7630 -1.3086
19198TIP3   OH279008   2.689   4.710   4.913  0.7213  0.5265  0.1755
19198TIP3    H179009   2.620   4.657   4.874 -0.7635  0.9662  2.0605
19198TIP3    H279010   2.703   4.671   4.999  3.0737  0.2757 -0.2553
19199TIP3   OH279011   1.901   6.150  17.065  0.1236 -0.3564 -0.1522
19199TIP3    H179012   1.842   6.156  17.140 -0.4060  0.8898 -0.6434
19199TIP3    H279013   1.927   6.058  17.063 -2.7461 -1.2435 -0.6299
19200TIP3   OH279014   6.460   5.005  12.025 -0.3694 -0.0415  0.0036
19200TIP3    H179015   6.526   5.044  11.969 -0.6535  1.9638  0.9862
19200TIP3    H279016   6.470   4.910  12.012  0.0738  0.3117 -2.7846
19201TIP3   OH279017   3.548   2.869   0.859  0.1488 -0.3014  0.0409
19201TIP3    H179018   3.560   2.928   0.934 -0.2751  0.6701 -0.6354
19201TIP3    H279019   3.456   2.845   0.862  0.3449 -1.0337  0.3783
19202TIP3   OH279020   5.568   5.757  12.983  0.0852  0.3833 -0.2482
19202TIP3    H179021   5.634   5.690  12.965  0.8177  0.9791  0.1798
19202TIP3    H279022   5.576   5.819  12.910 -1.1232 -0.3764 -1.0604
19203TIP3   OH279023   0.389   2.349  15.655 -0.0248  0.6496  0.0186
19203TIP3    H179024   0.393   2.443  15.674 -0.1445  0.8685 -0.9687
19203TIP3    H279025   0.442   2.308  15.723 -0.9888  1.3164  1.2135
19204TIP3   OH279026   2.628   0.815  15.121 -0.5590 -0.1048  0.2015
19204TIP3    H179027   2.538   0.849  15.117 -0.7082 -0.5809 -0.7981
19204TIP3    H279028   2.618   0.721  15.133 -0.1651 -0.0159  1.3115
19205TIP3   OH279029   1.522   4.862   6.901  0.6124  0.2968  0.0873
19205TIP3    H179030   1.458   4.868   6.972  1.6457 -1.7738  1.3026
19205TIP3    H279031   1.480   4.804   6.837  0.4977  0.5407 -0.0620
19206TIP3   OH279032   4.215   6.664   0.967  0.4144  0.2491 -0.4981
19206TIP3    H179033   4.200   6.754   0.938  2.1507  0.2740 -1.4784
19206TIP3    H279034   4.155   6.611   0.913 -0.5011  0.7931 -0.0258
19207TIP3   OH279035   1.496   0.513   3.879  0.0372  0.7006  0.3850
19207TIP3    H179036   1.534   0.597   3.856  0.5809  0.2667 -0.3370
19207TIP3    H279037   1.442   0.489   3.804  0.7456 -0.0902  0.1015
19208TIP3   OH279038   3.629   4.915   2.884  0.5279  0.0356 -0.1025
19208TIP3    H179039   3.696   4.920   2.816  0.4811  0.9168 -0.1051
19208TIP3    H279040   3.672   4.945   2.964 -0.0967  1.5981 -0.3130
19209TIP3   OH279041   5.329   2.032   0.405 -0.2418  0.0380  0.0611
19209TIP3    H179042   5.395   1.964   0.394  0.0329  0.6852 -3.7347
19209TIP3    H279043   5.256   1.988   0.450  0.4090 -2.4202 -1.1219
19210TIP3   OH279044   1.351   1.527   6.304  0.2004  0.0639 -0.0609
19210TIP3    H179045   1.325   1.440   6.273  0.0522  0.0715  0.0384
19210TIP3    H279046   1.435   1.514   6.347 -0.5683 -0.3370  1.4088
19211TIP3   OH279047   0.222   4.750   5.458  0.5676 -0.2798  0.0606
19211TIP3    H179048   0.167   4.823   5.486  1.4352  0.4844 -0.1747
19211TIP3    H279049   0.221   4.690   5.533  2.9363  1.7747  1.9156
19212TIP3   OH279050   1.274   5.707  15.615  0.5601 -0.1093  0.3032
19212TIP3    H179051   1.266   5.654  15.694  0.4918 -0.6102 -0.0321
19212TIP3    H279052   1.208   5.776  15.625  2.8054  1.9348  2.2655
19213TIP3   OH279053   5.713   6.671   0.024 -0.1617  0.0585  0.7643
19213TIP3    H179054   5.753   6.688  -0.062 -1.4642 -1.0348 -0.1074
19213TIP3    H279055   5.683   6.757   0.054  1.3943  0.6494  0.7217
19214TIP3   OH279056   0.925   6.618  15.841  0.2739  0.1090  0.0908
19214TIP3    H179057   0.857   6.674  15.805 -0.4395 -1.1915 -0.6163
19214TIP3    H279058   0.895   6.598  15.930 -0.1778 -0.3148 -0.1558
19215TIP3   OH279059   1.831   5.513   2.385  0.5135  0.2473 -0.4034
19215TIP3    H179060   1.761   5.454   2.357 -0.0649  0.4876  0.5178
19215TIP3    H279061   1.787   5.592   2.413  1.0818  0.1056  0.9592
19216TIP3   OH279062   5.801   3.953   1.070  0.8783 -0.1687  0.0905
19216TIP3    H179063   5.733   3.947   1.003  0.3754  0.0511  0.5718
19216TIP3    H279064   5.777   4.030   1.122 -0.5406 -2.0385  2.4450
19217TIP3   OH279065   0.139   3.374   1.317 -0.7537  0.1514  0.6982
19217TIP3    H179066   0.217   3.339   1.273  0.7734  0.2592  3.1377
19217TIP3    H279067   0.071   3.310   1.298  0.2850 -0.7215 -0.2915
19218TIP3   OH279068   1.144   5.326  14.927 -0.1527 -0.0737  0.7181
19218TIP3    H179069   1.215   5.261  14.920  0.6436  0.7105  1.2163
19218TIP3    H279070   1.188   5.404  14.960 -1.1831  0.5800  0.5621
19219TIP3   OH279071   0.103   2.109  13.013 -0.2806 -0.5858 -0.7703
19219TIP3    H179072   0.128   2.201  13.006  1.0172 -0.7627  0.9202
19219TIP3    H279073   0.009   2.108  12.996 -0.5882  1.2614  0.5205
19220TIP3   OH279074   3.640   3.820   4.268  0.0989  0.0004 -0.0091
19220TIP3    H179075   3.607   3.731   4.282  1.9200 -0.7887 -0.3798
19220TIP3    H279076   3.602   3.846   4.185 -1.4770  0.0962  0.7181
19221TIP3   OH279077   3.807   1.399   4.935 -0.4354  0.9493 -0.0394
19221TIP3    H179078   3.875   1.456   4.972  0.5786 -0.2800  0.0743
19221TIP3    H279079   3.849   1.359   4.859 -0.7759 -0.3917  0.4584
19222TIP3   OH279080   4.427   6.063  14.041 -0.6177 -0.1306 -0.0794
19222TIP3    H179081   4.417   6.084  14.134 -2.4153  1.3298 -0.5325
19222TIP3    H279082   4.518   6.085  14.021 -0.0890 -0.8421  1.3921
19223TIP3   OH279083   4.332   5.768  16.654  0.5253  0.0167  0.3512
19223TIP3    H179084   4.259   5.706  16.647 -0.2137  0.8640  0.4154
19223TIP3    H279085   4.405   5.723  16.612  0.6470 -1.8536  2.3939
19224TIP3   OH279086   0.960   4.517   2.315  0.2513 -0.1935  0.2364
19224TIP3    H179087   0.937   4.563   2.234  0.0984  1.4256  1.1574
19224TIP3    H279088   0.918   4.568   2.384  2.1135 -0.3195  1.5223
19225TIP3   OH279089   6.675   6.194  11.806  0.2047 -0.8972  0.1009
19225TIP3    H179090   6.725   6.260  11.758  0.3858 -0.7198  0.5319
19225TIP3    H279091   6.720   6.186  11.890  0.5138 -1.9707 -0.1603
19226TIP3   OH279092   4.216   5.712  15.932  0.0160  0.3187  0.6722
19226TIP3    H179093   4.301   5.691  15.894 -0.9274 -1.1310 -0.7690
19226TIP3    H279094   4.229   5.703  16.026  1.6163  0.8692  0.5425
19227TIP3   OH279095   3.393   2.670  16.094 -0.0201 -1.0183  0.5975
19227TIP3    H179096   3.425   2.668  16.184  0.5052  1.9691  0.5840
19227TIP3    H279097   3.471   2.661  16.040  0.6063  2.7779  0.5707
19228TIP3   OH279098   5.136   5.714   2.264 -0.2379  0.0978 -0.2546
19228TIP3    H179099   5.088   5.671   2.193  1.8978 -1.4536 -0.8842
19228TIP3    H279100   5.100   5.675   2.344 -0.5104 -0.5246 -0.6638
19229TIP3   OH279101   4.694   1.396   4.456  0.1773 -0.4666 -0.6273
19229TIP3    H179102   4.790   1.406   4.458  0.0889  0.4545  0.2312
19229TIP3    H279103   4.671   1.402   4.364  0.8566  0.4816 -0.7500
19230TIP3   OH279104   6.289   2.632   4.146 -0.2217 -0.1276 -0.2243
19230TIP3    H179105   6.199   2.600   4.145  0.2250 -1.4150 -0.7932
19230TIP3    H279106   6.343   2.554   4.136  1.0008  0.5345  0.9145
19231TIP3   OH279107   6.636   3.045  16.539 -0.1537 -0.6567 -0.2932
19231TIP3    H179108   6.672   3.005  16.460  1.2555  0.3445 -0.1987
19231TIP3    H279109   6.615   2.971  16.596 -2.4138 -1.4844 -2.0310
19232TIP3   OH279110   3.070   2.226   1.207 -0.2043 -0.3399 -0.4049
19232TIP3    H179111   3.012   2.217   1.131 -0.3315  0.7571 -0.4666
19232TIP3    H279112   3.155   2.194   1.177 -0.4722 -0.7626 -0.7221
19233TIP3   OH279113   1.485   6.364  15.271 -0.6445 -0.4246 -0.1051
19233TIP3    H179114   1.553   6.405  15.324 -1.1411  0.7421 -0.3209
19233TIP3    H279115   1.532   6.315  15.204 -0.0225 -0.5437  0.4062
19234TIP3   OH279116   6.106   5.843  13.926 -0.1944 -0.0318  0.3772
19234TIP3    H179117   6.063   5.908  13.982 -0.7406 -2.1394  2.5600
19234TIP3    H279118   6.166   5.895  13.872 -1.3036  2.3749  1.2857
19235TIP3   OH279119   6.779   0.712   3.349  0.1983 -0.1243  0.0540
19235TIP3    H179120   6.778   0.731   3.255  1.3103  0.6494  0.1872
19235TIP3    H279121   6.791   0.617   3.354 -1.1486 -0.3564 -0.5837
19236TIP3   OH279122   2.336   6.009  11.950 -0.0441 -0.7935  0.2826
19236TIP3    H179123   2.265   5.946  11.961 -1.1368  0.6385  2.0701
19236TIP3    H279124   2.296   6.093  11.971  1.1724  0.6710 -2.7622
19237TIP3   OH279125   4.334   3.190   1.063  0.3951  0.0340  0.1246
19237TIP3    H179126   4.380   3.109   1.038  1.2088  0.7770 -0.9100
19237TIP3    H279127   4.394   3.235   1.122  0.5870  0.5342 -0.4318
19238TIP3   OH279128   1.360   6.106   6.390  0.2067 -0.1207  0.1350
19238TIP3    H179129   1.443   6.143   6.417 -0.8288  1.6746  1.0403
19238TIP3    H279130   1.378   6.013   6.377  1.7972 -0.2660  2.7942
19239TIP3   OH279131   1.384   1.631  16.068 -0.1871  0.7476 -0.1293
19239TIP3    H179132   1.289   1.644  16.075 -0.3683  0.1991 -1.3118
19239TIP3    H279133   1.397   1.539  16.091 -0.1486  0.3990 -1.4728
19240TIP3   OH279134   4.576   2.087  12.531 -0.2964 -0.5395 -0.3719
19240TIP3    H179135   4.544   2.112  12.617  2.0800  0.3499  0.3289
19240TIP3    H279136   4.514   2.021  12.500 -0.6506 -1.6724  2.4753
19241TIP3   OH279137   6.006   5.406  12.178 -0.3256 -0.1667 -0.2969
19241TIP3    H179138   6.005   5.499  12.154  0.2794 -0.3047 -0.9080
19241TIP3    H279139   6.083   5.396  12.234 -0.0606 -0.3950 -0.6897
19242TIP3   OH279140   2.842   3.580  12.849 -0.1454  0.6085  0.0617
19242TIP3    H179141   2.919   3.587  12.793 -1.1412 -0.0010 -1.4386
19242TIP3    H279142   2.861   3.506  12.907  0.2988  0.3297 -0.4378
19243TIP3   OH279143   5.332   0.468  15.065 -0.3893  0.0607  0.1424
19243TIP3    H179144   5.239   0.450  15.050 -0.2434 -1.4810  0.9306
19243TIP3    H279145   5.347   0.442  15.156  0.9758 -0.3723 -0.1862
19244TIP3   OH279146   5.019   4.199   5.206  0.0738  0.3554  0.0795
19244TIP3    H179147   5.045   4.211   5.297  0.5586  2.4102 -0.2949
19244TIP3    H279148   4.936   4.247   5.199 -0.3335 -0.3998 -0.4112
19245TIP3   OH279149   4.635   3.298   3.985  0.2813 -0.3592 -0.0732
19245TIP3    H179150   4.695   3.352   3.934 -1.3221 -0.1619 -1.8611
19245TIP3    H279151   4.559   3.288   3.929 -1.8169  0.2462  2.4981
19246TIP3   OH279152   3.963   4.035  13.619 -0.3373 -0.0172 -0.2389
19246TIP3    H179153   3.880   4.082  13.618  0.7162  1.9343 -0.4757
19246TIP3    H279154   4.002   4.053  13.534  0.4058 -0.8077 -0.0840
19247TIP3   OH279155   1.848   4.013  11.176  0.1477  0.2595  0.1368
19247TIP3    H179156   1.937   4.026  11.145  0.0551  1.6099  0.3671
19247TIP3    H279157   1.794   4.016  11.098  0.3150 -0.8092 -0.0304
19248TIP3   OH279158   5.284   0.888  14.769  0.2539 -0.3779 -0.2899
19248TIP3    H179159   5.247   0.973  14.744  0.6438  0.1738  0.9382
19248TIP3    H279160   5.226   0.824  14.728  0.1125  0.4643 -1.4677
19249TIP3   OH279161   4.675   1.008  16.371  0.0985 -0.0265 -0.6767
19249TIP3    H179162   4.646   1.099  16.364 -2.0230 -0.7931 -3.7182
19249TIP3    H279163   4.713   0.989  16.285 -0.6012 -2.3423 -0.5173
19250TIP3   OH279164   2.405   5.687  13.287 -0.0438 -0.5698  0.3902
19250TIP3    H179165   2.398   5.736  13.205 -2.3866 -0.1829  0.7694
19250TIP3    H279166   2.398   5.595  13.261  0.6036 -0.5247  0.0409
19251TIP3   OH279167   6.295   3.293  14.497  0.0975 -0.1822  0.5622
19251TIP3    H179168   6.295   3.382  14.463  0.6194 -1.4011 -3.0127
19251TIP3    H279169   6.387   3.268  14.502  0.0352 -0.1938  2.7782
19252TIP3   OH279170   1.057   1.028  14.584  0.2241  0.2457 -0.6324
19252TIP3    H179171   1.070   0.999  14.674 -0.0665  0.1196 -0.6311
19252TIP3    H279172   1.093   0.958  14.530 -1.1018 -0.4581 -0.6440
19253TIP3   OH279173   4.366   5.694   1.714  0.1189 -0.2579 -0.1333
19253TIP3    H179174   4.337   5.696   1.805 -0.7169 -1.3533 -0.3416
19253TIP3    H279175   4.306   5.632   1.672  0.6616  0.0260 -1.3672
19254TIP3   OH279176   3.973   0.206   0.652 -0.5626  0.3832 -0.2076
19254TIP3    H179177   4.043   0.217   0.587 -1.0654 -1.5076 -1.1469
19254TIP3    H279178   4.019   0.200   0.736  0.2173  1.2592 -0.5539
19255TIP3   OH279179   4.257   1.849   6.632  0.3172 -0.1144  0.5579
19255TIP3    H179180   4.196   1.888   6.570  1.1789 -0.7348 -0.7229
19255TIP3    H279181   4.201   1.808   6.699 -0.6230  0.7188  0.2992
19256TIP3   OH279182   1.454   2.701   2.774 -0.4837 -0.3752  0.0128
19256TIP3    H179183   1.415   2.618   2.803  2.1949 -1.2018  1.6779
19256TIP3    H279184   1.477   2.686   2.683 -0.6298 -1.2179  0.1058
19257TIP3   OH279185   3.832   3.892  14.250 -0.3338 -0.4805  0.0754
19257TIP3    H179186   3.911   3.871  14.199 -1.0119 -0.8225 -0.8545
19257TIP3    H279187   3.841   3.839  14.330 -0.1873 -1.4361 -0.5523
19258TIP3   OH279188   5.548   4.298  16.783  0.1647 -0.2543  0.2738
19258TIP3    H179189   5.465   4.336  16.811  0.2709  0.0485  0.1754
19258TIP3    H279190   5.528   4.205  16.771 -0.5431  0.0663 -1.2190
19259TIP3   OH279191   2.831   2.912   2.135 -0.3202  0.1253 -0.1915
19259TIP3    H179192   2.806   2.827   2.169 -0.0833  0.0029 -0.3231
19259TIP3    H279193   2.826   2.903   2.040 -1.0090  0.4742 -0.1907
19260TIP3   OH279194   2.064   1.309   5.760 -0.0748 -0.0283 -0.0632
19260TIP3    H179195   2.142   1.335   5.810  0.7238 -0.8350 -0.8463
19260TIP3    H279196   2.019   1.247   5.816 -1.5463  2.2466  1.4670
19261TIP3   OH279197   2.232   2.390   6.035  0.1165  0.6912  0.6342
19261TIP3    H179198   2.139   2.398   6.055  0.1089 -1.5999  1.8755
19261TIP3    H279199   2.276   2.438   6.106 -0.1004  0.1908  1.1126
19262TIP3   OH279200   2.512   1.490  14.572 -0.3135 -0.5823 -0.5246
19262TIP3    H179201   2.561   1.437  14.510  0.5743 -0.3488 -0.0314
19262TIP3    H279202   2.567   1.494  14.650 -0.4275  0.9429 -0.4987
19263TIP3   OH279203   3.579   4.159  11.623 -0.1675 -0.4331  0.1070
19263TIP3    H179204   3.632   4.229  11.662 -0.6659  0.9376 -1.5722
19263TIP3    H279205   3.627   4.132  11.545 -0.1723 -1.7468  0.5250
19264TIP3   OH279206   3.057   0.455   1.803  0.1008 -0.3254 -0.8261
19264TIP3    H179207   2.985   0.465   1.741 -0.8590 -0.4215  0.2352
19264TIP3    H279208   3.135   0.479   1.753 -0.8526  1.5904 -1.4796
19265TIP3   OH279209   5.071   6.009   3.811  0.4394 -0.4399  0.3169
19265TIP3    H179210   5.160   6.024   3.780  0.4436  0.0531  0.5716
19265TIP3    H279211   5.027   6.094   3.804  0.5056 -0.2525  1.8780
19266TIP3   OH279212   4.205   5.236  13.516 -0.2125  0.4391  0.0417
19266TIP3    H179213   4.290   5.229  13.561 -0.7280  1.2193  1.1880
19266TIP3    H279214   4.214   5.178  13.440  0.9343 -0.4133  0.7782
19267TIP3   OH279215   3.696   5.446  11.742  0.6922 -0.2278 -0.0406
19267TIP3    H179216   3.755   5.510  11.783 -0.2501 -1.0454  2.8282
19267TIP3    H279217   3.691   5.474  11.651  2.0042  2.4961  0.6054
19268TIP3   OH279218   1.090   5.241  14.463  0.5744  0.3346 -0.3653
19268TIP3    H179219   1.129   5.165  14.420  0.2651 -0.2524  0.3753
19268TIP3    H279220   1.149   5.314  14.441  2.3785 -0.6041  1.1050
19269TIP3   OH279221   2.901   1.179   4.475  0.0652 -0.4505 -0.6558
19269TIP3    H179222   2.860   1.176   4.388 -0.7731 -1.8273 -0.2389
19269TIP3    H279223   2.967   1.110   4.473  0.1160 -0.4156 -0.2277
19270TIP3   OH279224   3.014   5.358  11.276  0.0580  0.5262  0.5103
19270TIP3    H179225   2.934   5.337  11.325  0.5725  0.3635  1.2979
19270TIP3    H279226   3.018   5.453  11.275 -0.1138  0.5335  0.5391
19271TIP3   OH279227   1.716   3.327  11.129  0.2697  0.3539 -0.5798
19271TIP3    H179228   1.717   3.323  11.033 -0.9812 -0.4557 -0.5776
19271TIP3    H279229   1.742   3.239  11.157 -2.1166 -0.2993 -0.2275
19272TIP3   OH279230   0.017   6.608   4.228 -0.1663  0.0291  0.0817
19272TIP3    H179231  -0.010   6.689   4.272  0.2167  0.8588 -1.1592
19272TIP3    H279232   0.048   6.636   4.142  2.1570 -1.1723  0.4451
19273TIP3   OH279233   2.421   1.742  12.358  0.1246  0.1655  0.3698
19273TIP3    H179234   2.345   1.777  12.312  1.7490  2.7933 -0.5837
19273TIP3    H279235   2.400   1.651  12.375 -2.9866  0.6620 -0.3053
19274TIP3   OH279236   3.036   6.233   4.446 -0.5562 -0.4877  0.2771
19274TIP3    H179237   3.074   6.147   4.430 -0.9926 -0.8254  1.0000
19274TIP3    H279238   2.984   6.222   4.526 -0.4509  0.4985  0.4971
19275TIP3   OH279239   6.491   0.892  16.144 -0.1384 -0.5949  0.4148
19275TIP3    H179240   6.453   0.979  16.130  0.5445 -0.4492 -0.7003
19275TIP3    H279241   6.584   0.905  16.128 -0.1048 -1.6393 -0.3348
19276TIP3   OH279242   5.510   3.675   1.122  0.2037 -0.4834  0.3706
19276TIP3    H179243   5.585   3.659   1.179 -0.3790  0.0144  1.3179
19276TIP3    H279244   5.515   3.607   1.055  1.1824 -0.7905  0.7454
19277TIP3   OH279245   2.634   2.356  14.712  0.5001  0.1316  0.8526
19277TIP3    H179246   2.644   2.327  14.803  1.5088 -1.0410  0.3905
19277TIP3    H279247   2.638   2.452  14.717  0.2234  0.0959  2.0697
19278TIP3   OH279248   0.194   0.332  14.688 -0.0273  0.1659  0.4121
19278TIP3    H179249   0.282   0.295  14.676 -0.5118 -0.9021  0.0587
19278TIP3    H279250   0.200   0.380  14.771  0.2604 -1.8701  1.6274
19279TIP3   OH279251   2.202   1.986   1.198  0.2620 -0.4877 -0.2936
19279TIP3    H179252   2.124   1.956   1.244  1.0203 -1.6435  0.3094
19279TIP3    H279253   2.267   1.998   1.268  0.8763 -0.4129 -0.8691
19280TIP3   OH279254   0.348   6.296   5.779 -0.5809 -0.7896  0.0711
19280TIP3    H179255   0.299   6.330   5.854 -1.1036 -3.4653  1.0324
19280TIP3    H279256   0.388   6.374   5.741 -0.9685  0.8039  2.6194
19281TIP3   OH279257   5.839   0.901   4.252  0.1177 -0.2733 -0.3040
19281TIP3    H179258   5.887   0.819   4.266  0.7579  0.2674  0.7155
19281TIP3    H279259   5.747   0.877   4.265  0.3307 -0.7603  0.3805
19282TIP3   OH279260   5.711   3.237   4.912 -0.3556 -0.0480  0.0904
19282TIP3    H179261   5.708   3.306   4.978  0.0690 -0.6616  0.7689
19282TIP3    H279262   5.635   3.254   4.856 -0.7151  0.4943  0.7242
19283TIP3   OH279263   4.876   3.581   1.693  0.9884  0.0177  0.3990
19283TIP3    H179264   4.842   3.516   1.632 -1.1994  0.2835  1.2646
19283TIP3    H279265   4.959   3.543   1.724 -0.9451 -3.2009  2.1224
19284TIP3   OH279266   5.657   1.700  15.562 -0.2132  0.6081  0.0163
19284TIP3    H179267   5.708   1.758  15.506 -0.1595 -0.0816 -0.6687
19284TIP3    H279268   5.649   1.618  15.512 -0.9863  0.3013  0.6059
19285TIP3   OH279269   4.564   0.349  13.000 -0.2672 -0.1112 -0.1003
19285TIP3    H179270   4.482   0.340  13.049 -0.5492  0.9425 -0.3566
19285TIP3    H279271   4.546   0.305  12.916 -0.0429 -1.2298  0.4249
19286TIP3   OH279272   2.597   1.198   0.005  1.1272 -0.4084  0.0730
19286TIP3    H179273   2.513   1.174  -0.034  1.1156 -0.1477 -0.0636
19286TIP3    H279274   2.661   1.188  -0.066  1.0424  0.4863 -0.1446
19287TIP3   OH279275   4.838   2.541   0.006  0.0561 -0.1325 -0.0249
19287TIP3    H179276   4.858   2.448  -0.007 -1.0574 -0.6969  1.8962
19287TIP3    H279277   4.790   2.567  -0.073  3.4951 -0.1074 -2.3395
19288TIP3   OH279278   3.975   2.363   5.644  0.6718 -0.5263  0.2755
19288TIP3    H179279   4.016   2.449   5.635 -2.9569  1.2512 -1.7404
19288TIP3    H279280   3.953   2.338   5.554 -2.0919 -1.5074  1.1380
19289TIP3   OH279281   3.891   5.056  13.507 -0.2168  0.5627 -0.0464
19289TIP3    H179282   3.936   4.972  13.499 -0.3509  0.4626  0.2431
19289TIP3    H279283   3.886   5.072  13.601  0.2757  1.1490 -0.1144
19290TIP3   OH279284   0.381   4.649  14.416  0.2502 -0.5523 -0.5380
19290TIP3    H179285   0.342   4.736  14.424 -0.0293 -0.5051 -2.1279
19290TIP3    H279286   0.446   4.646  14.486  0.0786  0.8299 -0.2800
19291TIP3   OH279287   3.204   2.427   5.408  0.2981  0.3925 -0.1817
19291TIP3    H179288   3.169   2.376   5.481  0.4458 -0.3654 -0.6319
19291TIP3    H279289   3.132   2.485   5.383 -0.3983 -0.6386 -0.6271
19292TIP3   OH279290   4.284   5.272   1.098 -0.1182  0.0144 -0.1391
19292TIP3    H179291   4.375   5.279   1.068  0.0060 -2.1609 -0.4422
19292TIP3    H279292   4.233   5.315   1.029  0.7186  3.0533  0.9650
19293TIP3   OH279293   0.032   0.348   1.158  0.1297  0.6784 -0.0815
19293TIP3    H179294   0.096   0.399   1.109  0.6416  0.2902  0.1765
19293TIP3    H279295   0.084   0.291   1.215 -0.4459  1.2004  1.0077
19294TIP3   OH279296   3.088   1.178   5.454 -0.0606 -0.8428 -0.2556
19294TIP3    H179297   3.050   1.257   5.493 -1.4229 -0.9704 -1.2515
19294TIP3    H279298   3.052   1.106   5.505 -1.7671 -1.0036 -1.5902
19295TIP3   OH279299   5.291   3.511  16.111  0.3888  0.1483 -0.5978
19295TIP3    H179300   5.311   3.564  16.187 -0.3465  0.2014 -0.4337
19295TIP3    H279301   5.320   3.423  16.135 -2.4831 -0.5077  0.9735
19296TIP3   OH279302   4.807   5.702   2.977  0.4072 -0.0222 -0.1183
19296TIP3    H179303   4.757   5.709   3.059  0.8962  0.8726  0.1210
19296TIP3    H279304   4.762   5.760   2.916 -0.0766 -0.8486 -0.5516
19297TIP3   OH279305   0.700   1.780   2.774  0.9875  0.4534  0.1744
19297TIP3    H179306   0.683   1.871   2.753  1.6695  0.5235 -0.1045
19297TIP3    H279307   0.794   1.769   2.761  0.8410 -0.4073 -0.2692
19298TIP3   OH279308   4.512   6.344   0.717  0.4581  0.2108  0.1396
19298TIP3    H179309   4.517   6.377   0.807  0.9607 -0.0896  0.2244
19298TIP3    H279310   4.555   6.411   0.664 -2.0302  1.6347 -0.2424
19299TIP3   OH279311   4.253   0.339   1.072 -0.0631  0.1714  0.4106
19299TIP3    H179312   4.315   0.348   1.000  1.1094  0.5027  1.4335
19299TIP3    H279313   4.203   0.421   1.070 -0.4317 -0.0644 -0.3677
19300TIP3   OH279314   3.115   5.347  13.787 -0.6483  0.3423  0.4990
19300TIP3    H179315   3.102   5.351  13.692  2.0753 -3.3975 -0.2908
19300TIP3    H279316   3.190   5.403  13.803  0.7377 -1.2104 -0.1928
19301TIP3   OH279317   4.214   2.160  15.376  0.2119 -0.1849 -0.4191
19301TIP3    H179318   4.131   2.113  15.366 -0.2213  0.0396  1.7217
19301TIP3    H279319   4.209   2.230  15.310 -1.5156  0.1122 -0.0158
19302TIP3   OH279320   3.492   3.653   0.492 -0.1684 -0.4307  0.6478
19302TIP3    H179321   3.409   3.635   0.449 -0.6263 -0.3318  1.4713
19302TIP3    H279322   3.476   3.634   0.584  0.5066  0.2983  0.9270
19303TIP3   OH279323   4.648   5.291  16.876  0.2008 -0.4159  0.0601
19303TIP3    H179324   4.598   5.248  16.807 -0.5397 -1.5231  1.2579
19303TIP3    H279325   4.692   5.364  16.831 -2.1950  0.4223 -1.1004
19304TIP3   OH279326   1.722   0.944  10.693  0.0610 -0.5536 -0.0982
19304TIP3    H179327   1.811   0.967  10.720 -0.1663  0.4772 -0.1720
19304TIP3    H279328   1.717   0.849  10.704  0.0534 -0.2984  3.3358
19305TIP3   OH279329   5.228   5.531  14.644  0.2720  0.3146 -0.3739
19305TIP3    H179330   5.312   5.540  14.599  0.8323  3.7721  1.0735
19305TIP3    H279331   5.248   5.551  14.736 -1.6241 -1.9868  0.6477
19306TIP3   OH279332   6.408   5.751   6.855  0.1884  0.0930  0.0653
19306TIP3    H179333   6.470   5.689   6.816  3.1971  1.3997  2.2936
19306TIP3    H279334   6.403   5.823   6.793  2.2672  0.6659  0.4835
19307TIP3   OH279335   4.856   4.062   3.851 -0.0028 -0.2849  0.4917
19307TIP3    H179336   4.802   4.140   3.836  0.9386  0.4878  1.0100
19307TIP3    H279337   4.793   3.991   3.863 -1.0099  0.8951  2.9270
19308TIP3   OH279338   0.735   2.158   0.166  0.0171  0.6529  0.0073
19308TIP3    H179339   0.830   2.147   0.165 -0.0743 -0.1566 -0.6899
19308TIP3    H279340   0.717   2.222   0.097  0.0184  0.5169 -0.1178
19309TIP3   OH279341   2.969   2.907   0.197  0.0535 -0.5615 -0.1726
19309TIP3    H179342   2.976   2.934   0.105 -0.7813 -1.5034 -0.5268
19309TIP3    H279343   2.893   2.849   0.199 -0.8054  0.5568  1.3916
19310TIP3   OH279344   4.463   4.466   3.751  1.1742  0.0711 -0.3016
19310TIP3    H179345   4.390   4.483   3.692  1.0967  0.2121 -0.1647
19310TIP3    H279346   4.452   4.529   3.822 -0.2465 -1.8201  1.2709
19311TIP3   OH279347   4.973   5.953   6.487  0.2680  0.6773  0.2715
19311TIP3    H179348   4.985   5.862   6.512 -0.3922  0.1918 -1.1030
19311TIP3    H279349   4.904   5.985   6.545 -0.5474 -0.1398 -0.2244
19312TIP3   OH279350   4.452   2.686   0.046 -0.2458 -0.4062  0.3181
19312TIP3    H179351   4.461   2.601   0.002 -1.5579 -0.4218  0.0371
19312TIP3    H279352   4.539   2.703   0.083 -0.3422 -2.6191  1.7479
19313TIP3   OH279353   1.794   3.512  12.310  0.9190 -0.3081 -0.3973
19313TIP3    H179354   1.790   3.427  12.266 -0.3699  0.2867 -1.5215
19313TIP3    H279355   1.792   3.491  12.404  1.2200 -1.5219 -0.6461
19314TIP3   OH279356   0.972   0.925  13.101 -0.0149 -0.0531  0.3598
19314TIP3    H179357   1.017   0.939  13.185  0.0401  1.0665  0.1586
19314TIP3    H279358   1.043   0.920  13.037 -0.0880 -0.1921  0.2904
19315TIP3   OH279359   3.166   2.310   0.770 -0.0581  0.1392 -0.2684
19315TIP3    H179360   3.099   2.294   0.836 -0.8802  0.6093 -0.9691
19315TIP3    H279361   3.124   2.289   0.686  0.7706  0.1227 -0.6920
19316TIP3   OH279362   3.410   2.053  16.012  0.9636  0.1524  0.0136
19316TIP3    H179363   3.423   2.123  16.075  0.6944  0.1016  0.1254
19316TIP3    H279364   3.486   1.995  16.024  0.2816 -0.5339  1.1646
19317TIP3   OH279365   5.402   0.610   1.437 -0.2133 -0.0322 -0.7235
19317TIP3    H179366   5.371   0.648   1.519  0.9692 -0.1221 -0.2112
19317TIP3    H279367   5.379   0.517   1.443  2.1368 -0.6127  0.7209
19318TIP3   OH279368   3.784   3.282  13.285 -0.2850 -0.5658  0.2271
19318TIP3    H179369   3.760   3.365  13.246 -2.7309 -0.2305  2.1579
19318TIP3    H279370   3.701   3.246  13.317  0.9585 -2.8149  1.1638
19319TIP3   OH279371   2.443   0.483  14.705  0.3248  0.2996  0.3967
19319TIP3    H179372   2.446   0.576  14.727  0.1437 -0.0427  2.0711
19319TIP3    H279373   2.369   0.474  14.645  1.5757  1.4985 -1.3892
19320TIP3   OH279374   3.026   0.845   2.445  0.3795  0.5658 -0.0519
19320TIP3    H179375   3.038   0.906   2.371  0.5609  0.1295 -0.3822
19320TIP3    H279376   2.994   0.765   2.404 -3.7514  1.5933  0.6953
19321TIP3   OH279377   3.384   2.513   4.244 -0.4027  0.3216 -0.1839
19321TIP3    H179378   3.303   2.562   4.234 -0.1799  0.3112 -2.5238
19321TIP3    H279379   3.398   2.472   4.159  0.9575 -1.4207  0.8110
19322TIP3   OH279380   0.901   6.307  10.525  0.2479  0.1200 -0.2286
19322TIP3    H179381   0.962   6.301  10.451  0.2945  3.3059 -0.6016
19322TIP3    H279382   0.954   6.284  10.602  0.2989 -2.8403 -1.0215
19323TIP3   OH279383   2.227   0.311   1.018 -0.2009 -0.5416  0.2534
19323TIP3    H179384   2.252   0.346   1.104  0.4775 -1.2914  0.3708
19323TIP3    H279385   2.147   0.359   0.995  0.5229  0.8431  0.5519
19324TIP3   OH279386   2.111   2.384  12.071 -0.1870 -0.1461 -0.4052
19324TIP3    H179387   2.160   2.354  12.148 -2.3364 -1.3632  0.5678
19324TIP3    H279388   2.054   2.453  12.104  1.1382  1.6152 -1.6326
19325TIP3   OH279389   0.337   2.039  16.164 -0.2145  0.2145 -0.0743
19325TIP3    H179390   0.428   2.022  16.187 -0.1613  1.2866  0.5775
19325TIP3    H279391   0.310   2.111  16.222 -1.2667  0.3688 -0.7186
19326TIP3   OH279392   0.929   4.009   0.568  0.2526  0.7524 -0.3387
19326TIP3    H179393   1.000   3.951   0.542  2.0678  2.6838 -0.0044
19326TIP3    H279394   0.850   3.956   0.559  1.3968 -0.6855 -3.3639
19327TIP3   OH279395   6.232   4.076  15.312 -0.3813  0.5714 -0.1353
19327TIP3    H179396   6.173   4.061  15.385 -0.6813 -0.9201 -0.6651
19327TIP3    H279397   6.316   4.096  15.353 -0.4091 -0.7932  0.6385
19328TIP3   OH279398   3.807   2.016  13.874  0.5134 -0.2816 -0.0199
19328TIP3    H179399   3.724   2.042  13.911  0.4234 -0.7327  0.1059
19328TIP3    H279400   3.839   2.093  13.828 -0.6186 -0.4950 -1.2245
19329TIP3   OH279401   6.504   1.888  17.187  0.0998  0.6572  0.6985
19329TIP3    H179402   6.551   1.969  17.204  1.3686  0.4540 -1.4388
19329TIP3    H279403   6.447   1.908  17.113  1.5180 -0.6982 -0.8515
19330TIP3   OH279404   1.457   2.493   4.096  0.1962  0.0914 -0.1833
19330TIP3    H179405   1.398   2.417   4.096 -0.6551  0.6942 -1.7936
19330TIP3    H279406   1.409   2.561   4.143  1.4300 -0.6371  2.2773
19331TIP3   OH279407   6.205   0.255   2.164 -0.0964 -0.3272  0.0740
19331TIP3    H179408   6.234   0.265   2.254  2.0965 -0.7650 -0.5084
19331TIP3    H279409   6.110   0.266   2.167 -0.1241 -0.7186  2.4727
19332TIP3   OH279410   0.292   0.933  11.258  0.1918 -0.6284 -0.5952
19332TIP3    H179411   0.251   0.922  11.344  0.9789 -0.5126 -0.1932
19332TIP3    H279412   0.241   1.003  11.216  1.4504  1.2903  0.8736
19333TIP3   OH279413   2.942   2.135   1.606  0.2742  0.1874  0.1303
19333TIP3    H179414   2.948   2.131   1.702  0.7925  1.6844  0.1958
19333TIP3    H279415   2.867   2.081   1.584  1.1247 -1.5352  1.2294
19334TIP3   OH279416   6.747   4.304  14.190  0.3096 -0.0486  0.2523
19334TIP3    H179417   6.711   4.388  14.220 -0.5526 -0.1758 -0.3863
19334TIP3    H279418   6.841   4.320  14.185  0.3006  0.4654  1.4221
19335TIP3   OH279419   1.214   6.108  17.121 -0.1033  0.2220  0.0401
19335TIP3    H179420   1.141   6.074  17.172  0.5058  0.1503  0.8810
19335TIP3    H279421   1.175   6.173  17.063 -0.6477  1.1574  1.4090
19336TIP3   OH279422   4.705   3.910  12.037 -0.1661  0.1363  0.3801
19336TIP3    H179423   4.767   3.872  12.099 -0.0613 -0.3456 -0.0113
19336TIP3    H279424   4.754   3.912  11.954  0.0988  1.7998  0.5301
19337TIP3   OH279425   3.310   4.031  13.974 -0.2803 -0.3488 -0.0576
19337TIP3    H179426   3.232   4.035  14.029 -0.0521 -1.6056  0.3894
19337TIP3    H279427   3.382   4.018  14.035  0.4626  1.9992 -0.3671
19338TIP3   OH279428   0.141   3.186   4.374  0.5158  0.4000  0.2876
19338TIP3    H179429   0.216   3.129   4.392  2.0388  1.5497 -1.9584
19338TIP3    H279430   0.135   3.190   4.279 -2.1102  0.8006  0.3770
19339TIP3   OH279431   0.017   5.646   5.846  0.0952 -0.5426 -0.7111
19339TIP3    H179432  -0.072   5.673   5.868 -0.0819 -1.6856  0.0859
19339TIP3    H279433   0.073   5.709   5.891 -0.3072 -0.4899 -0.2747
19340TIP3   OH279434   3.771   2.620   2.871  0.1130 -0.4899 -0.1927
19340TIP3    H179435   3.720   2.647   2.948  1.0285 -1.6783  0.8696
19340TIP3    H279436   3.733   2.536   2.846 -1.4635  0.7540 -2.2991
19341TIP3   OH279437   4.791   2.656  12.061 -0.1685 -0.1283 -0.4243
19341TIP3    H179438   4.858   2.592  12.035 -0.7466 -0.8695 -0.1273
19341TIP3    H279439   4.711   2.624  12.020 -0.7440 -0.3523  0.8451
19342TIP3   OH279440   6.468   4.523   3.357 -0.0495 -0.2301 -0.0555
19342TIP3    H179441   6.485   4.540   3.264  0.7382 -0.6697 -0.0009
19342TIP3    H279442   6.411   4.446   3.357 -0.1884 -0.1283 -0.1750
19343TIP3   OH279443   5.436   2.322  12.111 -0.1318 -0.1424  0.2435
19343TIP3    H179444   5.369   2.290  12.051 -1.3570  0.7400  1.0832
19343TIP3    H279445   5.489   2.381  12.058 -0.0302 -0.8194 -0.4269
19344TIP3   OH279446   2.579   1.199   4.607 -0.6619 -0.7186 -0.3650
19344TIP3    H179447   2.491   1.221   4.577 -0.1807 -1.9942 -2.9997
19344TIP3    H279448   2.633   1.204   4.528  2.4006  3.0938  1.5790
19345TIP3   OH279449   4.315   4.565  14.508  0.1531 -0.1082 -0.1608
19345TIP3    H179450   4.351   4.639  14.556 -0.0383  0.8590 -1.4498
19345TIP3    H279451   4.250   4.603  14.449 -0.5331 -1.4083 -0.2858
19346TIP3   OH279452   3.866   4.120  13.093 -0.0728 -0.1129 -0.3660
19346TIP3    H179453   3.888   4.183  13.162 -1.9127  0.3568 -0.1618
19346TIP3    H279454   3.950   4.103  13.049  0.8384  0.8488  0.9186
19347TIP3   OH279455   1.639   6.440  10.263  0.3519 -0.0912 -0.3998
19347TIP3    H179456   1.585   6.398  10.331  0.3467 -2.2764 -1.6751
19347TIP3    H279457   1.726   6.447  10.302 -0.2694  1.3096  0.8269
19348TIP3   OH279458   3.830   2.951  15.685  0.0858 -0.2620 -0.3993
19348TIP3    H179459   3.761   2.910  15.634 -0.2127  0.8985 -0.9728
19348TIP3    H279460   3.840   3.038  15.646  0.9466  0.0708  0.5159
19349TIP3   OH279461   3.897   5.179  12.740 -0.4401  0.5344  0.4533
19349TIP3    H179462   3.915   5.108  12.802 -0.4587  1.8051  1.9675
19349TIP3    H279463   3.815   5.153  12.698  0.1253 -0.8651  0.1549
19350TIP3   OH279464   1.922   0.200   0.544 -0.8110  0.5401 -0.3688
19350TIP3    H179465   1.969   0.208   0.627  2.3318 -0.8895 -1.8246
19350TIP3    H279466   1.911   0.289   0.513  0.7972  0.9768  0.2105
19351TIP3   OH279467   1.507   4.765  11.317 -0.1172 -0.3544 -0.3127
19351TIP3    H179468   1.430   4.773  11.373 -1.0768 -0.2907 -1.6201
19351TIP3    H279469   1.480   4.707  11.246  1.6401 -1.9058  0.1952
19352TIP3   OH279470   4.835   4.286  13.934 -0.4586  0.3671 -0.1424
19352TIP3    H179471   4.865   4.372  13.904  0.2067  0.1069 -0.2308
19352TIP3    H279472   4.829   4.294  14.029 -1.7934  0.9458 -0.2420
19353TIP3   OH279473   5.225   0.555   2.479 -0.6146 -0.0280  0.3993
19353TIP3    H179474   5.155   0.534   2.541  0.4856 -2.4620  0.9241
19353TIP3    H279475   5.294   0.493   2.499  1.8278  2.3811  0.0092
19354TIP3   OH279476   1.995   3.164  15.024  0.2483  0.1165  0.1078
19354TIP3    H179477   1.951   3.085  15.056 -0.2449  0.2233 -0.2889
19354TIP3    H279478   2.019   3.212  15.104  0.7479 -0.5332  0.3554
19355TIP3   OH279479   4.234   6.768   2.236 -0.1342  0.3867 -0.1016
19355TIP3    H179480   4.164   6.808   2.287 -0.3276  0.4742 -0.4294
19355TIP3    H279481   4.195   6.689   2.200 -0.7467  1.4793 -1.9930
19356TIP3   OH279482   6.207   1.604   1.270 -0.3909  0.0131  0.6559
19356TIP3    H179483   6.122   1.648   1.267 -0.1723  0.5008  1.2769
19356TIP3    H279484   6.186   1.511   1.278 -0.8601 -0.0070 -0.5829
19357TIP3   OH279485   3.419   4.667  17.032 -0.1234 -0.3927 -0.6322
19357TIP3    H179486   3.478   4.633  16.965  0.1730  1.3971 -1.3345
19357TIP3    H279487   3.465   4.743  17.068 -1.6990  0.6548 -0.7463
19358TIP3   OH279488   2.844   2.040   3.068 -0.2852  0.0661  0.2361
19358TIP3    H179489   2.855   2.132   3.093  2.1002  0.0779 -0.6060
19358TIP3    H279490   2.754   2.035   3.036  0.1888  2.6800 -1.8455
19359TIP3   OH279491   3.234   6.782   2.897  0.2464 -0.5024 -0.2277
19359TIP3    H179492   3.262   6.730   2.972 -0.3835 -0.2564  0.1890
19359TIP3    H279493   3.143   6.755   2.882 -0.9072  2.0096  1.4182
19360TIP3   OH279494   1.043   4.854  13.473 -0.3702  0.3323 -0.0126
19360TIP3    H179495   0.999   4.817  13.396 -0.3364  1.6104 -0.6639
19360TIP3    H279496   0.972   4.871  13.535 -0.5818  0.7102 -0.3566
19361TIP3   OH279497   4.093   2.924   1.076 -0.4939  0.8592  0.3227
19361TIP3    H179498   4.119   3.012   1.050  0.4877  0.7827  0.9856
19361TIP3    H279499   4.039   2.937   1.154 -1.0111  0.9102 -0.0369
19362TIP3   OH279500   4.423   4.019   0.589 -0.1370 -0.2214  0.0308
19362TIP3    H179501   4.394   4.078   0.520  0.4778  1.5117  1.1830
19362TIP3    H279502   4.505   3.983   0.557 -0.8969 -1.1051 -1.0100
19363TIP3   OH279503   0.184   5.338  13.439 -0.5361 -0.4687 -0.0633
19363TIP3    H179504   0.215   5.265  13.385 -1.7821 -0.4570 -0.8292
19363TIP3    H279505   0.116   5.379  13.386 -1.1731  0.0889  1.1599
19364TIP3   OH279506   4.366   6.193   4.694 -0.2129  0.0435 -0.1831
19364TIP3    H179507   4.345   6.274   4.648 -0.3383  1.5093  2.2808
19364TIP3    H279508   4.432   6.219   4.759  1.3784 -2.2996 -0.7471
19365TIP3   OH279509   4.613   2.473   5.466  1.1530 -0.7122 -0.0499
19365TIP3    H179510   4.701   2.455   5.500  0.6722  0.8778  2.2924
19365TIP3    H279511   4.627   2.541   5.400  1.6286  0.5392  1.2784
19366TIP3   OH279512   3.574   1.509  13.598 -0.4570 -0.9740 -0.5955
19366TIP3    H179513   3.498   1.563  13.576  0.3323  0.7558  0.7142
19366TIP3    H279514   3.647   1.550  13.551 -0.1649 -2.1474 -1.2093
19367TIP3   OH279515   6.087   2.437  13.440 -0.2769  0.1372  0.5992
19367TIP3    H179516   6.093   2.343  13.457 -0.3648  0.2602  1.3272
19367TIP3    H279517   5.997   2.451  13.413 -0.1406 -0.0568  0.0263
19368TIP3   OH279518   4.489   4.367   4.962 -0.4503  0.5247  0.4275
19368TIP3    H179519   4.479   4.304   5.033 -1.5091  0.8915  0.6136
19368TIP3    H279520   4.574   4.346   4.923 -1.2699 -1.8053 -0.2813
19369TIP3   OH279521   3.466   1.867   5.593 -0.5508 -0.0456 -0.2638
19369TIP3    H179522   3.556   1.863   5.561 -0.3015  0.2393  0.3784
19369TIP3    H279523   3.468   1.933   5.662 -1.3331  0.2214 -0.4881
19370TIP3   OH279524   4.611   5.691   3.142  0.4712  0.6498 -0.1885
19370TIP3    H179525   4.630   5.778   3.179  1.0316 -0.5247  2.5865
19370TIP3    H279526   4.515   5.686   3.143  0.3934  1.4880 -1.1391
19371TIP3   OH279527   1.751   4.672  13.215 -0.0957 -0.0452 -0.3715
19371TIP3    H179528   1.779   4.694  13.304 -0.7685 -0.1710 -0.1243
19371TIP3    H279529   1.660   4.646  13.225  0.5277 -2.6459 -0.6744
19372TIP3   OH279530   5.466   4.981  13.363 -0.1459 -0.5900 -0.4556
19372TIP3    H179531   5.559   4.997  13.376 -0.1542 -0.4611 -0.5516
19372TIP3    H279532   5.461   4.938  13.277 -0.1724 -0.6240 -0.4369
19373TIP3   OH279533   2.112   6.358  11.498 -0.4633  0.2366 -0.1463
19373TIP3    H179534   2.150   6.442  11.522  0.2058 -0.2465  0.5152
19373TIP3    H279535   2.116   6.356  11.402  0.9284  0.3202 -0.1107
19374TIP3   OH279536   0.928   1.696  15.852 -0.0759 -0.5798  0.7235
19374TIP3    H179537   0.871   1.694  15.775 -0.6374 -1.9945  1.1579
19374TIP3    H279538   1.014   1.721  15.817 -0.2571 -1.4684 -0.4200
19375TIP3   OH279539   5.064   6.178   4.638 -0.3212 -0.1054  0.3256
19375TIP3    H179540   5.144   6.197   4.688  0.5849 -1.8742 -0.3484
19375TIP3    H279541   5.064   6.082   4.628 -0.4939  0.1083 -2.9113
19376TIP3   OH279542   3.567   2.576  12.774 -0.1689 -0.7762  0.0615
19376TIP3    H179543   3.590   2.535  12.691  1.6170 -2.2244  1.1923
19376TIP3    H279544   3.632   2.646  12.784 -1.5188  0.6271 -0.5721
19377TIP3   OH279545   1.842   3.826  13.658  0.1345  0.1842  0.3202
19377TIP3    H179546   1.770   3.826  13.595  1.8027  1.0905 -1.7004
19377TIP3    H279547   1.852   3.734  13.683 -1.7813  0.0618  0.7701
19378TIP3   OH279548   0.727   5.607  15.202 -0.0482 -0.2189  0.1227
19378TIP3    H179549   0.687   5.655  15.129  0.7602  0.1262 -0.0969
19378TIP3    H279550   0.653   5.560  15.242 -1.0727  1.9159  0.9304
19379TIP3   OH279551   1.306   3.217   1.282  0.3586 -0.9327  0.1196
19379TIP3    H179552   1.255   3.151   1.235  0.2478 -0.1587 -0.8523
19379TIP3    H279553   1.395   3.207   1.248  0.3442 -0.5872 -0.0195
19380TIP3   OH279554   4.638   4.341   1.133  0.0785 -0.1926 -0.0971
19380TIP3    H179555   4.691   4.389   1.070 -0.1807  0.7015  0.3454
19380TIP3    H279556   4.548   4.356   1.104 -0.0536  0.3921  0.5929
19381TIP3   OH279557   5.546   5.961  13.892  0.4249 -0.0901 -0.7252
19381TIP3    H179558   5.453   5.965  13.870 -0.0066 -1.7016  0.6613
19381TIP3    H279559   5.590   5.979  13.809 -1.1197 -0.2469 -1.6251
19382TIP3   OH279560   1.213   1.230   5.342 -0.1392 -0.6742  0.6327
19382TIP3    H179561   1.179   1.146   5.372  0.9565 -1.4154 -0.1309
19382TIP3    H279562   1.274   1.208   5.272  0.0048  0.7769  0.2627
19383TIP3   OH279563   6.648   2.478  13.695  0.1071 -0.2378 -0.2215
19383TIP3    H179564   6.684   2.557  13.736 -0.3642  0.1050 -0.4623
19383TIP3    H279565   6.656   2.494  13.601  0.0070 -0.4789 -0.2707
19384TIP3   OH279566   3.592   3.193   2.444 -0.2929 -0.5030  0.5856
19384TIP3    H179567   3.620   3.276   2.483  3.6452 -1.3164 -0.0748
19384TIP3    H279568   3.568   3.216   2.354 -0.3129  0.0589  0.7284
19385TIP3   OH279569   2.552   0.942   1.207 -0.3128 -0.0949  0.2298
19385TIP3    H179570   2.647   0.955   1.208 -0.0701 -1.3430  2.9551
19385TIP3    H279571   2.534   0.897   1.124  1.3160  1.0047 -0.7583
19386TIP3   OH279572   4.462   4.195  12.943  0.4427 -0.5757 -0.1300
19386TIP3    H179573   4.540   4.209  12.997  0.0606  0.4237  0.1689
19386TIP3    H279574   4.472   4.105  12.910  1.7582 -0.4311 -0.1676
19387TIP3   OH279575   5.951   0.297  16.939 -0.3000  0.6559 -0.7150
19387TIP3    H179576   5.982   0.341  17.019  0.1959 -1.1679  0.1377
19387TIP3    H279577   5.966   0.362  16.870  1.3022  1.4933  0.3469
19388TIP3   OH279578   1.842   2.729   6.130 -0.0032  0.6812  0.4532
19388TIP3    H179579   1.882   2.646   6.155 -0.4846  0.5014  0.6445
19388TIP3    H279580   1.864   2.789   6.201 -1.2376  0.2115  1.2688
19389TIP3   OH279581   1.485   4.267  11.832  0.7638 -0.3107  0.1838
19389TIP3    H179582   1.425   4.205  11.790  0.7833 -0.4685  0.3936
19389TIP3    H279583   1.432   4.347  11.844  1.1574  0.2440 -1.4749
19390TIP3   OH279584   4.045   3.779  16.362  0.5204  0.3198 -0.6534
19390TIP3    H179585   4.008   3.814  16.281  0.2925  2.2049  0.2108
19390TIP3    H279586   4.046   3.853  16.422 -0.2257 -1.2288  1.4026
19391TIP3   OH279587   5.777   2.211   2.723 -0.6456  0.4313 -0.0811
19391TIP3    H179588   5.733   2.255   2.795 -1.2494  0.0974 -0.2429
19391TIP3    H279589   5.791   2.281   2.658 -1.5458  0.4139 -0.3107
19392TIP3   OH279590   4.194   4.689   0.226 -0.1533  0.2267  0.3042
19392TIP3    H179591   4.219   4.597   0.213 -1.0870 -0.1612  1.1628
19392TIP3    H279592   4.116   4.700   0.171 -1.4457 -0.1725  1.9930
19393TIP3   OH279593   4.373   1.178  14.226 -0.5326 -0.0915 -0.1237
19393TIP3    H179594   4.400   1.210  14.312 -0.9744  1.5715 -0.5639
19393TIP3    H279595   4.278   1.190  14.225 -0.9327 -2.7142  0.1516
19394TIP3   OH279596   5.604   0.487  12.124 -0.0124  0.5932 -0.3714
19394TIP3    H179597   5.530   0.544  12.146  0.1984  0.8435 -0.3084
19394TIP3    H279598   5.680   0.544  12.127  0.2519  0.2214  0.0962
19395TIP3   OH279599   2.210   2.921   0.382  0.8010  0.1101 -0.0474
19395TIP3    H179600   2.194   2.998   0.326  0.7625 -0.3153 -0.6297
19395TIP3    H279601   2.189   2.846   0.326 -1.1488 -0.2994  1.1523
19396TIP3   OH279602   3.113   2.153  15.679 -0.2068  0.1042  0.5715
19396TIP3    H179603   3.080   2.066  15.701 -1.8622  0.8881  1.4080
19396TIP3    H279604   3.129   2.195  15.764  0.5774  0.6150  0.1808
19397TIP3   OH279605   4.577   2.905  14.925 -0.3003  0.0817  0.1378
19397TIP3    H179606   4.509   2.950  14.974 -1.1574  0.7286 -1.5934
19397TIP3    H279607   4.534   2.873  14.846  1.0346 -0.9481 -0.2275
19398TIP3   OH279608   4.266   2.659  12.908  0.6810 -0.0599  0.2356
19398TIP3    H179609   4.288   2.682  12.817 -1.3825 -0.9863 -0.5733
19398TIP3    H279610   4.217   2.735  12.940  0.4700 -0.1794  0.1968
19399TIP3   OH279611   1.190   4.990  14.379 -1.0367 -0.3557  0.1362
19399TIP3    H179612   1.198   4.946  14.463  2.4020  0.0108  0.1343
19399TIP3    H279613   1.256   4.949  14.324 -2.5536  0.0626 -2.1323
19400TIP3   OH279614   1.752   3.392  17.017 -0.0991 -0.2518  0.2592
19400TIP3    H179615   1.814   3.350  16.957 -1.1095 -2.2934  0.5610
19400TIP3    H279616   1.800   3.399  17.100  0.4517  0.2384 -0.0932
19401TIP3   OH279617   3.487   4.305   5.967  0.4942 -0.3071 -0.1838
19401TIP3    H179618   3.566   4.358   5.955 -0.2808  0.8411 -0.3105
19401TIP3    H279619   3.485   4.288   6.061  0.8766 -0.3178 -0.1749
19402TIP3   OH279620   6.563   5.352   1.302  0.4244 -0.0545  0.0190
19402TIP3    H179621   6.639   5.304   1.333 -0.0676 -0.8970 -0.0557
19402TIP3    H279622   6.512   5.288   1.253 -0.2522  0.5364 -0.0681
19403TIP3   OH279623   3.423   4.273   5.511  0.5392 -0.1786 -0.5131
19403TIP3    H179624   3.405   4.226   5.592 -2.3101 -0.2545 -1.0909
19403TIP3    H279625   3.431   4.204   5.444  1.9401 -0.0692 -0.4830
19404TIP3   OH279626   4.136   1.817  12.717  0.4971  0.3187 -0.1381
19404TIP3    H179627   4.212   1.857  12.674 -0.5835  2.6711 -0.0499
19404TIP3    H279628   4.077   1.891  12.734 -1.0153 -1.1602  1.4572
19405TIP3   OH279629   3.432   6.414   4.149  0.4288  0.2536  0.6043
19405TIP3    H179630   3.527   6.412   4.138  0.5674  1.6210  1.3294
19405TIP3    H279631   3.411   6.331   4.192  0.8247 -1.6098 -2.4734
19406TIP3   OH279632   3.124   0.524   3.487 -0.4680  0.1925 -0.0698
19406TIP3    H179633   3.198   0.493   3.540  0.2123  0.6285 -0.7495
19406TIP3    H279634   3.050   0.470   3.516  0.7454 -2.4451 -1.5416
19407TIP3   OH279635   4.456   4.789   0.189  0.4279 -0.2141 -0.1449
19407TIP3    H179636   4.385   4.793   0.253  0.8519  2.7967  0.2719
19407TIP3    H279637   4.438   4.710   0.138 -2.1613 -0.5365  1.1021
19408TIP3   OH279638   3.300   2.346   5.655  0.2602  0.0278 -0.2349
19408TIP3    H179639   3.264   2.382   5.737 -2.2278  0.6788 -1.4996
19408TIP3    H279640   3.308   2.422   5.597  1.7804 -0.4528 -0.6840
19409TIP3   OH279641   5.092   4.719   5.716 -0.2590  0.1644  0.4911
19409TIP3    H179642   5.142   4.692   5.639 -0.6114  1.5020 -0.2268
19409TIP3    H279643   5.098   4.814   5.717 -1.4444  0.2532  1.3124
19410TIP3   OH279644   1.426   5.203   0.092  0.4942  0.3525  0.7590
19410TIP3    H179645   1.381   5.205   0.176 -1.0072  2.1369 -0.0082
19410TIP3    H279646   1.517   5.224   0.113  0.0055  1.5081  1.8894
19411TIP3   OH279647   5.959   3.090   0.195  0.3564 -0.6389  0.5001
19411TIP3    H179648   5.894   3.128   0.254  1.3687  0.9831  0.6175
19411TIP3    H279649   5.928   3.113   0.107  0.1144 -0.9877  0.4891
19412TIP3   OH279650   1.165   2.890  11.837 -0.0378  0.5644  1.1439
19412TIP3    H179651   1.237   2.827  11.825 -0.6945  0.2832 -2.0940
19412TIP3    H279652   1.191   2.966  11.786 -1.4803  0.9425  0.9330
19413TIP3   OH279653   4.130   4.089  11.657 -0.5217  0.1372  0.0304
19413TIP3    H179654   4.134   4.053  11.745  1.0518 -0.8860 -0.4068
19413TIP3    H279655   4.075   4.028  11.608  0.9941 -0.9994 -0.3613
19414TIP3   OH279656   3.855   3.577   0.733  0.3201 -0.1597  0.5295
19414TIP3    H179657   3.929   3.519   0.748  1.7516  1.5237  0.3081
19414TIP3    H279658   3.871   3.651   0.791  1.1593  2.2449 -2.4882
19415TIP3   OH279659   0.508   1.020  11.505 -0.3119 -0.1885  0.1194
19415TIP3    H179660   0.436   1.001  11.444 -0.3849 -1.7585  0.6392
19415TIP3    H279661   0.474   0.992  11.590  1.1160 -1.5999  0.2737
19416TIP3   OH279662   5.261   4.836  14.530  0.4928 -0.2573  0.6818
19416TIP3    H179663   5.182   4.888  14.513  0.7362 -0.1260 -0.0542
19416TIP3    H279664   5.227   4.752  14.559  0.0611 -0.4156 -0.2442
19417TIP3   OH279665   5.250   1.690   5.175  0.4527 -0.4417 -0.1075
19417TIP3    H179666   5.176   1.684   5.115 -0.6645 -1.4375  1.2666
19417TIP3    H279667   5.325   1.660   5.125 -0.2931 -0.4981 -1.2151
19418TIP3   OH279668   0.902   0.056   1.043 -0.5862 -0.1980 -0.7062
19418TIP3    H179669   0.898  -0.040   1.051  0.1129 -0.2537 -0.9512
19418TIP3    H279670   0.981   0.072   0.991 -1.0915  0.4866 -1.2759
19419TIP3   OH279671   5.081   5.408   1.142 -0.6889 -0.6834  0.8189
19419TIP3    H179672   5.140   5.333   1.140 -0.3805 -0.4491  1.1063
19419TIP3    H279673   4.993   5.369   1.138 -0.6021 -0.9475 -3.4247
19420TIP3   OH279674   0.257   4.614  11.460  0.3503  0.5861  0.2402
19420TIP3    H179675   0.257   4.630  11.365  0.0996 -1.0072 -0.0616
19420TIP3    H279676   0.320   4.543  11.472 -0.4685 -0.0171  1.0995
19421TIP3   OH279677   0.385   0.850   4.427  0.0067  0.4802 -0.0789
19421TIP3    H179678   0.406   0.899   4.348 -1.3605  0.8779 -0.2192
19421TIP3    H279679   0.400   0.911   4.499 -0.2400  0.6139 -0.1424
19422TIP3   OH279680   2.953   0.051   3.717  0.8544 -0.3507 -0.2876
19422TIP3    H179681   2.944   0.142   3.746  1.1003  0.3065 -2.1174
19422TIP3    H279682   2.885   0.004   3.766  1.0239  0.7054  1.0370
19423TIP3   OH279683   2.346   3.269   1.495 -0.1754  0.5141 -0.0992
19423TIP3    H179684   2.357   3.202   1.563 -0.2376  1.3104  0.7202
19423TIP3    H279685   2.253   3.267   1.475 -0.6963  2.1120  1.8368
19424TIP3   OH279686   4.077   0.265   5.266 -0.4026  0.0601  0.0218
19424TIP3    H179687   4.042   0.240   5.351  0.6690  1.3492  0.8890
19424TIP3    H279688   4.036   0.350   5.248 -0.7435 -0.2814 -0.8237
19425TIP3   OH279689   5.461   6.199  14.303 -0.6242 -0.3123 -0.5723
19425TIP3    H179690   5.484   6.215  14.212 -0.8899  0.0266 -0.5814
19425TIP3    H279691   5.522   6.131  14.332  1.2916  1.4161 -0.2443
19426TIP3   OH279692   6.087   2.988   5.158 -0.4870 -0.2247  0.3181
19426TIP3    H179693   6.009   2.958   5.110 -0.0927  0.4496 -0.7981
19426TIP3    H279694   6.096   3.080   5.133  1.3221 -0.5802 -0.5017
19427TIP3   OH279695   5.401   0.360   4.145 -0.0062 -0.5315  0.0428
19427TIP3    H179696   5.347   0.426   4.101 -0.9030 -0.2950  1.4446
19427TIP3    H279697   5.368   0.276   4.113  1.4308 -0.3822 -2.0989
19428TIP3   OH279698   3.155   4.735  11.464 -0.1748  0.3721  0.2712
19428TIP3    H179699   3.206   4.679  11.405  0.2714 -0.3505  1.3174
19428TIP3    H279700   3.086   4.678  11.498  0.9626  0.0511  2.2347
19429TIP3   OH279701   5.109   4.020   3.434 -0.0479 -0.9497  0.2693
19429TIP3    H179702   5.099   3.936   3.389 -0.4850 -0.9993  0.4550
19429TIP3    H279703   5.204   4.035   3.437  0.0145 -1.2745 -0.0592
19430TIP3   OH279704   6.135   1.890  13.499 -0.2844  0.8951  0.1674
19430TIP3    H179705   6.108   1.831  13.428 -1.7537  1.3057  0.3567
19430TIP3    H279706   6.229   1.874  13.508  0.1258  1.3853 -2.3946
19431TIP3   OH279707   3.169   2.537  14.551  0.1091  1.0141 -0.3357
19431TIP3    H179708   3.224   2.462  14.574 -0.6541  0.6053  0.1755
19431TIP3    H279709   3.112   2.504  14.482  0.5856  1.4858 -0.9777
19432TIP3   OH279710   1.918   6.161  14.691 -0.7412  0.6876 -0.1639
19432TIP3    H179711   1.880   6.086  14.646 -2.0970  0.3162  1.5322
19432TIP3    H279712   1.944   6.128  14.777 -0.5175  1.9475  0.2798
19433TIP3   OH279713   0.491   0.651   3.721  0.2566 -0.2462 -0.0389
19433TIP3    H179714   0.519   0.563   3.747  0.4770 -0.1878 -0.0774
19433TIP3    H279715   0.460   0.641   3.631  1.3161 -0.0761 -0.4386
19434TIP3   OH279716   5.109   1.936  14.505  0.1070 -0.6383  0.0654
19434TIP3    H179717   5.127   1.848  14.472 -1.1610 -0.5605 -0.8916
19434TIP3    H279718   5.109   1.926  14.600  1.1667 -1.4169  0.0028
19435TIP3   OH279719   5.773   0.636   3.370 -0.0212 -0.3078 -0.0942
19435TIP3    H179720   5.772   0.611   3.278  0.5719 -0.2011 -0.1336
19435TIP3    H279721   5.711   0.709   3.376 -0.3224 -0.5415 -0.3399
19436TIP3   OH279722   0.836   1.560   4.642 -0.3765  0.3364 -0.4912
19436TIP3    H179723   0.765   1.511   4.681 -1.3031  0.6189 -1.7697
19436TIP3    H279724   0.916   1.516   4.672 -1.1409 -1.2719 -0.7174
19437TIP3   OH279725   3.216   6.727  11.525 -0.4564 -0.2380 -0.2865
19437TIP3    H179726   3.174   6.653  11.570  0.1554 -0.4990 -0.1425
19437TIP3    H279727   3.159   6.744  11.450 -2.0885  0.8782  1.1199
19438TIP3   OH279728   2.916   3.305  10.660 -0.4912 -0.4602 -0.1601
19438TIP3    H179729   2.985   3.357  10.703  0.6980 -1.7281 -0.4553
19438TIP3    H279730   2.856   3.371  10.624 -0.7687  0.6699  2.1458
19439TIP3   OH279731   4.064   6.464  13.600 -0.6248  0.1992  0.3571
19439TIP3    H179732   3.992   6.527  13.609 -0.8573  0.0388 -0.2688
19439TIP3    H279733   4.082   6.435  13.689 -0.8829  0.7469  0.5941
19440TIP3   OH279734   5.767   4.427  11.239  0.0953 -0.3914 -0.2165
19440TIP3    H179735   5.710   4.388  11.172  0.6459  0.2746 -1.0845
19440TIP3    H279736   5.768   4.520  11.219 -0.7047  0.0180  1.4739
19441TIP3   OH279737   3.384   3.751   6.559  0.1354 -0.0718  0.3081
19441TIP3    H179738   3.336   3.821   6.604  0.4991 -0.2708  1.0032
19441TIP3    H279739   3.449   3.721   6.622  1.2843  0.2807 -0.6766
19442TIP3   OH279740   0.305   4.554  15.612  0.4865 -0.2697  0.2098
19442TIP3    H179741   0.377   4.499  15.642  1.2451 -0.1504 -1.2894
19442TIP3    H279742   0.334   4.588  15.527 -1.1210  0.2066 -0.1904
19443TIP3   OH279743   3.393   5.004  15.738  0.0416  0.0061 -0.5231
19443TIP3    H179744   3.433   4.968  15.659  0.3360 -0.2354 -0.2665
19443TIP3    H279745   3.313   4.952  15.750  0.7101 -0.9033  0.1188
19444TIP3   OH279746   0.509   0.455   2.709 -0.4798  0.5392 -0.1264
19444TIP3    H179747   0.554   0.471   2.626  0.4666  2.6201  0.7211
19444TIP3    H279748   0.471   0.368   2.699  2.7501 -0.8805 -1.3409
19445TIP3   OH279749   4.385   3.598   5.676  0.2956 -0.0408  0.3672
19445TIP3    H179750   4.368   3.683   5.716  0.8571 -0.0352  0.6055
19445TIP3    H279751   4.309   3.544   5.700  0.2562  0.1975  0.7777
19446TIP3   OH279752   2.003   5.239   1.341  0.2511 -0.1541 -0.6965
19446TIP3    H179753   1.929   5.273   1.391  0.3387  1.3319 -1.5341
19446TIP3    H279754   2.031   5.161   1.390 -2.0133 -0.9273 -0.5185
19447TIP3   OH279755   3.933   1.216  12.178  0.0565  0.3300 -0.3842
19447TIP3    H179756   4.001   1.149  12.181 -0.1763  0.1098  1.2310
19447TIP3    H279757   3.875   1.190  12.106  2.0723  0.9707 -2.3449
19448TIP3   OH279758   2.048   0.388   4.792 -0.2306 -0.2728  0.4867
19448TIP3    H179759   2.051   0.448   4.718  1.0944 -0.5607  0.2733
19448TIP3    H279760   1.967   0.409   4.838 -0.2422  1.0276 -0.1092
19449TIP3   OH279761   2.365   3.977   3.483  0.2381  0.1404  0.2882
19449TIP3    H179762   2.440   3.940   3.529  0.5067  1.9463  1.4220
19449TIP3    H279763   2.386   4.070   3.475 -2.4813  1.0140  2.0163
19450TIP3   OH279764   6.554   2.475  11.429 -0.0782  0.2781 -0.1287
19450TIP3    H179765   6.518   2.523  11.503  0.2445 -0.0564  0.2432
19450TIP3    H279766   6.647   2.463  11.450 -0.0627 -0.1296 -0.4238
19451TIP3   OH279767   0.891   1.903   2.617  0.0558  0.0733  0.5512
19451TIP3    H179768   0.830   1.930   2.549 -0.9856 -2.5480  0.3196
19451TIP3    H279769   0.970   1.878   2.569 -0.7082 -1.8581  0.2121
19452TIP3   OH279770   1.928   0.709   0.034  0.3729  0.1770 -0.0835
19452TIP3    H179771   1.943   0.633  -0.022  0.0744 -0.8661  1.2217
19452TIP3    H279772   1.876   0.768  -0.021  1.7217  0.0655 -1.5818
19453TIP3   OH279773   0.825   0.743   4.628 -0.2170  0.0313 -0.0549
19453TIP3    H179774   0.866   0.733   4.542 -0.2987  0.3358 -0.1310
19453TIP3    H279775   0.733   0.761   4.610 -0.1048  0.7848  0.0676
19454TIP3   OH279776   4.354   2.094   3.707  0.4200 -0.8565  0.1914
19454TIP3    H179777   4.403   2.175   3.720 -0.0480 -0.6825  0.9307
19454TIP3    H279778   4.375   2.040   3.783  1.0832 -1.6309 -0.5155
19455TIP3   OH279779   3.893   0.357   2.213 -0.0220  0.6994  0.3724
19455TIP3    H179780   3.935   0.443   2.218 -0.4222  0.8608  1.0665
19455TIP3    H279781   3.819   0.370   2.153 -0.8568  1.1911  1.4557
19456TIP3   OH279782   4.267   1.661  13.006  0.3445  0.3334 -0.0646
19456TIP3    H179783   4.202   1.598  12.973 -0.3201  0.2917  1.2778
19456TIP3    H279784   4.251   1.740  12.955  0.4693 -0.2339 -1.0196
19457TIP3   OH279785   2.139   0.017   3.208 -0.2308  0.4273 -0.4149
19457TIP3    H179786   2.107   0.012   3.118  1.8742 -0.2356 -1.1880
19457TIP3    H279787   2.073   0.069   3.254 -2.2302 -0.6695 -1.9083
19458TIP3   OH279788   5.436   3.596  16.791 -0.0634  0.3261  0.0621
19458TIP3    H179789   5.431   3.500  16.790  1.7863  0.1314  2.2715
19458TIP3    H279790   5.491   3.618  16.715  2.7136 -0.7424  1.6131
19459TIP3   OH279791   6.786   0.462  14.222 -0.2227  0.1780  0.3930
19459TIP3    H179792   6.855   0.512  14.178 -0.2271  0.9254  1.2175
19459TIP3    H279793   6.831   0.415  14.292 -0.4080 -0.0544  0.3571
19460TIP3   OH279794   6.710   3.259  13.233  0.0592  0.4830 -0.4981
19460TIP3    H179795   6.775   3.327  13.252 -0.3411  1.4788 -2.4382
19460TIP3    H279796   6.744   3.180  13.275  1.6843  1.3565 -0.1017
19461TIP3   OH279797   0.805   0.249   5.523 -0.1625 -0.7382 -0.4615
19461TIP3    H179798   0.886   0.221   5.565 -0.5091 -0.4330  0.4218
19461TIP3    H279799   0.820   0.341   5.500 -1.7396  0.7669  3.6761
19462TIP3   OH279800   6.417   3.395  12.308  0.1466 -0.2143  0.2852
19462TIP3    H179801   6.505   3.399  12.347  0.1494 -0.6160  0.3283
19462TIP3    H279802   6.412   3.307  12.271 -0.5144 -0.4557  0.9341
19463TIP3   OH279803   3.046   0.755  12.124  0.0565  0.4238 -0.4898
19463TIP3    H179804   3.064   0.744  12.031  2.1093 -1.0939  0.0341
19463TIP3    H279805   2.961   0.712  12.137  1.2058 -2.1903 -1.1397
19464TIP3   OH279806   0.917   4.768  13.246  0.1786 -0.4945 -0.2382
19464TIP3    H179807   0.957   4.719  13.175  1.5651  0.8700 -0.4509
19464TIP3    H279808   0.884   4.848  13.204  0.3767 -0.0029  0.5230
19465TIP3   OH279809   6.788   0.538   0.047 -0.6458 -0.4776 -0.0498
19465TIP3    H179810   6.784   0.466  -0.016 -0.0002  0.6325 -1.4120
19465TIP3    H279811   6.730   0.604   0.010  0.1658  0.4054  0.2340
19466TIP3   OH279812   6.112   4.501  13.660 -0.1190  0.1517 -0.4931
19466TIP3    H179813   6.070   4.581  13.629  0.4221 -0.3728 -2.7692
19466TIP3    H279814   6.172   4.530  13.728  1.3609  2.0170 -2.4492
19467TIP3   OH279815   6.476   2.940  11.483 -0.1008  0.5446  0.9211
19467TIP3    H179816   6.487   3.020  11.432 -0.4422  1.8715  2.8090
19467TIP3    H279817   6.395   2.901  11.450 -1.4935  2.5043  1.7770
19468TIP3   OH279818   2.978   1.095  11.355 -0.6156 -0.1024  0.1237
19468TIP3    H179819   2.923   1.066  11.283 -1.1246 -0.7045  0.7430
19468TIP3    H279820   2.917   1.114  11.426 -0.0693 -0.2157  0.6321
19469TIP3   OH279821   4.571   2.981  14.108 -0.2025 -0.0465 -0.1491
19469TIP3    H179822   4.633   2.962  14.038 -1.4518 -1.0959 -1.0217
19469TIP3    H279823   4.614   2.951  14.187  1.3100  1.3229 -0.4104
19470TIP3   OH279824   6.483   6.592  10.188 -0.1212  0.8481  0.7704
19470TIP3    H179825   6.490   6.643  10.269  0.5823  0.7067  0.8093
19470TIP3    H279826   6.467   6.657  10.120 -1.4943  0.8944  1.1209
19471TIP3   OH279827   6.534   4.643  16.072  0.4203 -0.7648  0.4225
19471TIP3    H179828   6.453   4.692  16.083  0.8784  0.3020 -0.7007
19471TIP3    H279829   6.602   4.710  16.062  1.3253 -1.6339  0.5286
19472TIP3   OH279830   1.385   5.512  13.441 -0.2836  0.0690 -0.3841
19472TIP3    H179831   1.409   5.582  13.381  0.7763  0.2446  0.2073
19472TIP3    H279832   1.336   5.556  13.511  2.5836  0.7722  1.3576
19473TIP3   OH279833   3.006   0.479  12.298  0.4362  0.2786  0.1976
19473TIP3    H179834   2.926   0.515  12.259  1.2467  1.8852 -0.0689
19473TIP3    H279835   3.046   0.429  12.227  1.1595  1.9688 -0.6339
19474TIP3   OH279836   5.719   4.789  13.316 -0.2505 -0.0211  0.3170
19474TIP3    H179837   5.779   4.785  13.390  0.8337  3.3277 -0.2278
19474TIP3    H279838   5.756   4.856  13.258 -2.0153 -1.2212 -2.4081
19475TIP3   OH279839   3.615   4.627   6.026  0.0053  0.2150 -0.5682
19475TIP3    H179840   3.640   4.548   6.075 -1.3232 -0.0958 -0.3499
19475TIP3    H279841   3.555   4.673   6.084  1.3805  1.8299 -0.3692
19476TIP3   OH279842   4.071   0.346  11.171 -0.2656 -0.0387  0.1501
19476TIP3    H179843   4.106   0.270  11.125  0.4057 -0.0578  0.6749
19476TIP3    H279844   4.067   0.319  11.263 -0.2298  0.4819  0.3098
19477TIP3   OH279845   4.631   2.791   2.057 -0.1062 -0.3861 -0.2329
19477TIP3    H179846   4.595   2.703   2.049  1.1036 -0.9951  0.8719
19477TIP3    H279847   4.607   2.834   1.974 -2.1602 -1.1831 -0.1042
19478TIP3   OH279848   5.325   0.433   2.135  0.0386 -0.9100  0.7658
19478TIP3    H179849   5.245   0.397   2.096  0.7453 -1.6026 -0.0864
19478TIP3    H279850   5.382   0.357   2.146 -0.0825 -0.7253  3.1016
19479TIP3   OH279851   4.171   4.773   2.230  0.3149 -0.4940 -0.1460
19479TIP3    H179852   4.224   4.756   2.308  1.3619 -0.6330 -0.8733
19479TIP3    H279853   4.232   4.764   2.157 -0.5029  0.2835 -0.9482
19480TIP3   OH279854   4.440   0.524  16.263 -0.8188  0.2550 -0.8063
19480TIP3    H179855   4.390   0.488  16.190 -0.7734 -0.4321 -0.5066
19480TIP3    H279856   4.464   0.613  16.235 -2.8097  0.8839 -0.6541
19481TIP3   OH279857   4.987   6.524   4.834 -0.1175 -0.0067  0.8016
19481TIP3    H179858   5.023   6.456   4.779  0.4842 -0.5248  1.8090
19481TIP3    H279859   5.055   6.591   4.839 -0.6646  0.6347 -0.0994
19482TIP3   OH279860   5.081   3.074  11.117  0.3876 -0.0987 -0.3020
19482TIP3    H179861   5.065   3.109  11.030  3.1760 -1.3016 -1.4144
19482TIP3    H279862   5.128   3.143  11.163 -0.7482  0.3877  0.1804
19483TIP3   OH279863   6.224   0.049  10.307  0.3457 -0.1646 -0.5268
19483TIP3    H179864   6.301   0.101  10.287  0.5009  0.5307  1.6060
19483TIP3    H279865   6.194   0.081  10.392 -1.9232 -0.8627 -0.9817
19484TIP3   OH279866   0.597   0.642  14.442 -0.4762 -0.1275 -0.4335
19484TIP3    H179867   0.648   0.722  14.445  1.7124 -1.4635  0.3042
19484TIP3    H279868   0.557   0.642  14.355 -0.5321  1.7074 -0.4504
19485TIP3   OH279869   4.457   0.314   2.851 -0.4773 -0.3467 -0.0486
19485TIP3    H179870   4.415   0.295   2.767 -1.5033 -0.7051  0.5251
19485TIP3    H279871   4.496   0.230   2.878  0.2110 -0.1290 -0.3617
19486TIP3   OH279872   5.901   1.677  13.702  0.9029  0.4654  0.6101
19486TIP3    H179873   5.967   1.624  13.657 -0.7550 -0.0758 -1.3607
19486TIP3    H279874   5.884   1.749  13.642 -1.0738 -0.0230  0.5203
19487TIP3   OH279875   5.658   2.531   5.819  0.0274  0.4781 -0.1858
19487TIP3    H179876   5.670   2.453   5.765 -0.7461  0.0887  0.1912
19487TIP3    H279877   5.570   2.562   5.798  0.5734  1.6678 -0.8451
19488TIP3   OH279878   1.442   2.749   5.190 -0.2779  0.2355  0.0088
19488TIP3    H179879   1.433   2.655   5.177 -1.3001  0.3883 -0.4872
19488TIP3    H279880   1.432   2.786   5.103 -0.7849  0.8587  0.3229
19489TIP3   OH279881   3.037   3.083   2.044  0.1105 -0.3389  0.0048
19489TIP3    H179882   3.114   3.034   2.015  2.0845  2.7457 -0.5076
19489TIP3    H279883   2.968   3.058   1.983  1.4487 -1.2591 -1.2108
19490TIP3   OH279884   1.773   5.893  13.252 -0.2100 -0.2639  0.0795
19490TIP3    H179885   1.853   5.936  13.225 -0.1664 -1.1995 -1.3838
19490TIP3    H279886   1.765   5.913  13.346  1.5513  0.0953  0.1773
19491TIP3   OH279887   5.235   6.784   3.599 -0.2449  1.5533 -0.2177
19491TIP3    H179888   5.309   6.787   3.539 -2.4302 -0.4368 -3.2797
19491TIP3    H279889   5.185   6.863   3.579 -1.1941  0.6816 -1.4582
19492TIP3   OH279890   1.008   3.043  10.929 -0.0994  0.4757  0.2312
19492TIP3    H179891   1.029   3.008  10.843  0.4245  1.5273 -0.0874
19492TIP3    H279892   1.055   2.986  10.991  0.2608  0.2695 -0.2294
19493TIP3   OH279893   1.034   5.485   5.636 -0.1375  0.2756 -0.1728
19493TIP3    H179894   1.100   5.426   5.673 -0.5379  0.6185  1.1691
19493TIP3    H279895   1.067   5.573   5.655 -0.5287  0.4558 -0.3210
19494TIP3   OH279896   1.318   0.394  14.245  0.1636  0.1880  0.4437
19494TIP3    H179897   1.380   0.334  14.286  0.8965  1.8096  1.8341
19494TIP3    H279898   1.294   0.351  14.163  1.4094 -1.5164  0.9081
19495TIP3   OH279899   0.499   1.545   4.119  0.3474 -0.3023 -0.3224
19495TIP3    H179900   0.501   1.600   4.197 -0.6495  0.1605 -0.6073
19495TIP3    H279901   0.412   1.505   4.120  0.3181 -0.2864 -1.1987
19496TIP3   OH279902   1.110   0.881   6.366 -0.6222 -0.6545  0.8066
19496TIP3    H179903   1.087   0.800   6.321 -0.1175  0.9103 -2.5701
19496TIP3    H279904   1.200   0.898   6.339 -1.3944  2.0718 -0.3530
19497TIP3   OH279905   5.714   3.792   0.004  0.0720 -0.4615  0.2157
19497TIP3    H179906   5.710   3.747  -0.080 -1.7132  1.3248 -0.7256
19497TIP3    H279907   5.701   3.723   0.069 -1.9291 -1.4526 -1.1471
19498TIP3   OH279908   6.057   6.030  10.417 -0.6508  0.4227  0.4658
19498TIP3    H179909   6.114   6.104  10.398 -0.3131  0.9716  3.1377
19498TIP3    H279910   6.044   5.987  10.333  1.1585  2.0801 -0.7521
19499TIP3   OH279911   0.706   4.536   6.136  0.1102 -0.0274 -0.5931
19499TIP3    H179912   0.669   4.572   6.217  3.1446  0.4443  0.7210
19499TIP3    H279913   0.776   4.597   6.112  2.5637 -2.6726 -0.7410
19500TIP3   OH279914   4.268   0.185  15.846  0.0594  0.1645 -0.4337
19500TIP3    H179915   4.248   0.274  15.816  0.4080  0.0804 -0.9164
19500TIP3    H279916   4.182   0.146  15.863 -0.0717  1.3905  2.1633
19501TIP3   OH279917   5.688   5.085  16.002 -0.1874 -0.1766 -0.1937
19501TIP3    H179918   5.645   5.024  15.942 -1.5312  0.7712 -0.2359
19501TIP3    H279919   5.665   5.052  16.090 -0.8251  0.1829 -0.2166
19502TIP3   OH279920   1.747   4.070  12.297 -0.5559  0.0390 -0.4644
19502TIP3    H179921   1.719   4.038  12.383 -0.1495  2.3122  0.5751
19502TIP3    H279922   1.683   4.138  12.275  0.4030  0.7417 -1.1167
19503TIP3   OH279923   4.164   2.951   5.447 -0.4457  0.0688  0.3641
19503TIP3    H179924   4.103   2.884   5.476 -2.6479  1.5051 -0.6438
19503TIP3    H279925   4.168   3.013   5.520  3.4101 -2.0626  2.3066
19504TIP3   OH279926   2.610   6.265   0.114  0.6798  0.2814 -0.1348
19504TIP3    H179927   2.671   6.200   0.149  0.1146 -0.0504  0.2583
19504TIP3    H279928   2.536   6.213   0.081  0.3259  0.7084 -0.0217
19505TIP3   OH279929   2.666   0.090   4.088  0.3077 -0.3903 -0.2063
19505TIP3    H179930   2.646   0.061   3.999 -0.5420 -1.0256  0.1702
19505TIP3    H279931   2.609   0.166   4.102  2.3108  1.3875 -1.0827
19506TIP3   OH279932   1.711   0.979  15.733 -0.2552 -0.3211  0.1975
19506TIP3    H179933   1.712   0.973  15.828  0.9938 -0.2931  0.2070
19506TIP3    H279934   1.723   0.888  15.703 -0.0135 -0.2500  0.0761
19507TIP3   OH279935   1.550   0.139   0.113  0.0570 -0.0577  0.2361
19507TIP3    H179936   1.554   0.073   0.183 -2.2110  0.5682  1.0445
19507TIP3    H279937   1.480   0.198   0.140  1.3593  2.1654 -0.9415
19508TIP3   OH279938   0.068   5.695   1.269  0.6776 -0.0712  0.0756
19508TIP3    H179939   0.129   5.764   1.247 -0.8501  1.1925 -0.3824
19508TIP3    H279940   0.084   5.676   1.361  1.0687  0.9429  0.2175
19509TIP3   OH279941   3.681   1.831  14.764  0.1109 -0.3459 -0.0314
19509TIP3    H179942   3.670   1.808  14.856  0.1338 -3.4410 -0.6741
19509TIP3    H279943   3.593   1.857  14.735 -0.0145  0.0646  0.6993
19510TIP3   OH279944   5.039   6.256  14.814 -0.4458 -0.0202 -0.4852
19510TIP3    H179945   5.080   6.237  14.730  2.2542  0.3761  0.6362
19510TIP3    H279946   5.002   6.344  14.804  0.7246  0.4329 -0.9717
19511TIP3   OH279947   0.468   0.906  13.186 -0.1597  0.4902  0.0233
19511TIP3    H179948   0.452   0.970  13.117 -2.2283 -0.4866 -0.4869
19511TIP3    H279949   0.557   0.876  13.170 -0.0782  1.3508 -1.3167
19512TIP3   OH279950   2.256   3.178  13.316  0.4080  0.0015  0.0020
19512TIP3    H179951   2.328   3.194  13.377  0.8273 -0.5622 -0.3330
19512TIP3    H279952   2.228   3.088  13.333  0.2096 -0.0004 -0.3050
19513TIP3   OH279953   4.117   4.147   6.417  0.1199 -0.8317 -0.0608
19513TIP3    H179954   4.073   4.194   6.487 -0.8605 -1.1218 -0.4671
19513TIP3    H279955   4.058   4.074   6.396  0.0351 -0.3447 -1.6703
19514TIP3   OH279956   5.666   0.037   5.149  0.3240  0.3893 -0.4623
19514TIP3    H179957   5.621   0.103   5.096 -0.5684 -0.1035 -0.3316
19514TIP3    H279958   5.683  -0.035   5.088 -1.9203 -0.7632  0.1572
19515TIP3   OH279959   2.256   1.972  16.918  0.3141 -0.3367 -0.6327
19515TIP3    H179960   2.209   1.928  16.848  1.0375 -1.4739 -0.4302
19515TIP3    H279961   2.348   1.968  16.891  0.8151 -2.2819  1.0961
19516TIP3   OH279962   2.197   6.188  13.774  0.4217  0.0889  0.1376
19516TIP3    H179963   2.143   6.263  13.800 -0.8587 -0.3299 -1.1494
19516TIP3    H279964   2.134   6.115  13.767  1.2964 -0.6255 -0.5450
19517TIP3   OH279965   1.296   4.481  12.638 -0.7488 -0.7418  0.7200
19517TIP3    H179966   1.308   4.575  12.652  2.1066 -0.8050 -0.5138
19517TIP3    H279967   1.251   4.475  12.554  0.2560 -0.4260  0.1370
19518TIP3   OH279968   4.198   6.752   6.425 -0.1333  0.3856  0.4589
19518TIP3    H179969   4.127   6.743   6.362 -0.7691 -0.2109  1.2338
19518TIP3    H279970   4.215   6.846   6.429 -0.5754  0.4923 -0.0621
19519TIP3   OH279971   4.068   5.016  15.190 -0.1145 -0.3659  0.5986
19519TIP3    H179972   4.019   4.970  15.122 -0.2322  0.0832  0.3741
19519TIP3    H279973   4.103   5.093  15.145  0.6306 -0.5772  0.8035
19520TIP3   OH279974   6.409   1.138   1.513 -0.2576 -0.9543  0.0902
19520TIP3    H179975   6.496   1.175   1.495  0.2311 -0.8474  2.3795
19520TIP3    H279976   6.413   1.048   1.479 -0.2259 -0.1606 -2.2297
19521TIP3   OH279977   5.277   0.185   0.498 -0.1966 -0.3808  0.5505
19521TIP3    H179978   5.279   0.092   0.524 -0.2485 -0.0241  1.8879
19521TIP3    H279979   5.354   0.223   0.540 -0.1982  0.1952  0.0375
19522TIP3   OH279980   4.755   2.271   3.822 -0.2136 -0.2590  0.3124
19522TIP3    H179981   4.776   2.345   3.880 -1.5033 -0.8409  1.5933
19522TIP3    H279982   4.659   2.273   3.816 -0.1632 -0.8481 -0.9971
19523TIP3   OH279983   2.320   3.273  13.986  0.5345  0.7646 -1.1527
19523TIP3    H179984   2.303   3.367  13.986  0.0408  0.6793 -1.2695
19523TIP3    H279985   2.340   3.253  14.078 -2.5315  0.4580 -0.4463
19524TIP3   OH279986   4.290   5.806   2.428 -0.2678  0.5213 -0.3742
19524TIP3    H179987   4.367   5.836   2.380 -0.7031  0.9702 -0.8071
19524TIP3    H279988   4.283   5.713   2.407  0.5414  0.3182  0.2127
19525TIP3   OH279989   6.116   6.564  16.819 -0.1275 -0.2507 -0.7731
19525TIP3    H179990   6.150   6.652  16.832 -0.1773 -0.5733  2.2661
19525TIP3    H279991   6.193   6.511  16.796  1.1689 -0.4492  3.3190
19526TIP3   OH279992   3.240   0.682  13.195  0.1292  0.6181 -0.0301
19526TIP3    H179993   3.259   0.774  13.217  1.3741  0.1040  1.1367
19526TIP3    H279994   3.277   0.670  13.108  0.3705  1.0902  0.0047
19527TIP3   OH279995   0.501   5.223  14.115  0.2501  0.3301  0.3585
19527TIP3    H179996   0.449   5.293  14.075 -1.5020 -1.8056 -1.3183
19527TIP3    H279997   0.484   5.232  14.209 -4.1335 -0.8529 -0.1350
19528TIP3   OH279998   2.913   6.783  10.005  0.4605 -0.3061  0.1524
19528TIP3    H179999   2.945   6.789  10.095  1.8821  1.2574 -0.4166
19528TIP3    H280000   2.840   6.844  10.001  0.4185 -0.3508  0.2251
19529TIP3   OH280001   3.299   4.084   4.001 -0.3348 -0.0500  0.0475
19529TIP3    H180002   3.232   4.015   4.003 -0.3790  0.0165  1.6260
19529TIP3    H280003   3.352   4.063   3.924 -1.4704 -0.7647 -0.5709
19530TIP3   OH280004   4.222   5.904   2.820 -0.3019 -0.1876  0.7417
19530TIP3    H180005   4.177   5.933   2.741 -1.4506 -0.4051  1.2971
19530TIP3    H280006   4.230   5.983   2.874 -0.0895 -0.1684  0.6845
19531TIP3   OH280007   4.151   3.820   5.644  1.2789 -0.4486  0.1044
19531TIP3    H180008   4.067   3.786   5.674  1.4932  0.0215  1.2903
19531TIP3    H280009   4.215   3.785   5.706  1.6559  1.1137  0.6442
19532TIP3   OH280010   1.509   1.785   5.907 -0.1240 -0.4550 -0.4263
19532TIP3    H180011   1.457   1.705   5.911  0.3825 -0.8459 -1.1873
19532TIP3    H280012   1.538   1.790   5.815  0.6952  0.0504 -0.1555
19533TIP3   OH280013   1.612   4.635   1.870  0.0931  0.5644  0.5101
19533TIP3    H180014   1.655   4.551   1.887  2.6112  1.6512 -0.0927
19533TIP3    H280015   1.558   4.651   1.947  1.5071 -0.4366  1.7476
19534TIP3   OH280016   3.164   5.455   3.922 -0.5773 -0.0712 -0.3062
19534TIP3    H180017   3.178   5.549   3.924  0.1078 -0.1110  3.3983
19534TIP3    H280018   3.077   5.442   3.959  1.0351 -0.8807  3.7702
19535TIP3   OH280019   4.498   6.108   0.580 -0.0525 -0.1522 -0.0616
19535TIP3    H180020   4.509   6.180   0.643 -1.9982  1.1343 -1.1055
19535TIP3    H280021   4.525   6.145   0.496 -0.2807 -0.9104 -0.4818
19536TIP3   OH280022   4.789   3.432   1.458 -0.5434  0.3659  0.1945
19536TIP3    H180023   4.834   3.441   1.374 -1.0531 -1.7569 -0.3683
19536TIP3    H280024   4.701   3.464   1.442 -0.5302  0.3171  0.0251
19537TIP3   OH280025   4.859   4.445  12.508 -0.9191  0.0861  0.3783
19537TIP3    H180026   4.870   4.537  12.485  0.8224  0.3873  2.1841
19537TIP3    H280027   4.789   4.415  12.451 -1.1419  2.3693 -0.6707
19538TIP3   OH280028   3.851   6.740   0.712 -0.6224 -0.1769  0.3580
19538TIP3    H180029   3.788   6.737   0.640 -0.1628  0.4031 -0.0794
19538TIP3    H280030   3.905   6.817   0.693 -0.6949  0.1693  1.4918
19539TIP3   OH280031   3.090   0.762   0.689 -0.1174 -0.0180 -0.3733
19539TIP3    H180032   3.061   0.675   0.717 -0.2163 -0.0272 -0.5041
19539TIP3    H280033   3.059   0.770   0.599 -1.9505  0.9831  0.2907
19540TIP3   OH280034   1.542   6.371   4.875  0.2443  0.4212  0.0963
19540TIP3    H180035   1.614   6.394   4.935  0.7091 -0.0570 -0.2644
19540TIP3    H280036   1.565   6.283   4.843 -0.1283  0.5615 -0.5770
19541TIP3   OH280037   3.025   6.148  14.114  0.5257 -0.4207  0.0000
19541TIP3    H180038   3.083   6.108  14.049 -0.8400 -3.1886  0.3166
19541TIP3    H280039   2.956   6.190  14.063  0.4781 -0.9381 -0.3655
19542TIP3   OH280040   0.744   4.168   1.978 -0.4077 -0.2892  0.2387
19542TIP3    H180041   0.816   4.231   1.984  0.0688 -0.6938 -0.9579
19542TIP3    H280042   0.759   4.109   2.052  1.1028 -0.9659 -0.5578
19543TIP3   OH280043   6.427   6.600  15.031 -0.1670 -0.4293 -0.0340
19543TIP3    H180044   6.505   6.654  15.022 -2.0770  2.6912  0.3225
19543TIP3    H280045   6.392   6.591  14.943 -0.3026 -0.3189  0.0070
19544TIP3   OH280046   3.120   4.726  16.000  0.0283 -0.0186 -0.5457
19544TIP3    H180047   3.205   4.682  16.005  0.1992  0.0480 -2.3782
19544TIP3    H280048   3.110   4.768  16.086  1.5149 -0.6055 -0.0547
19545TIP3   OH280049   6.731   1.786  15.667 -0.0114  0.1700  1.1269
19545TIP3    H180050   6.655   1.783  15.725  0.8778 -0.0187  2.3292
19545TIP3    H280051   6.759   1.878  15.669 -1.5324  0.7483 -1.1498
19546TIP3   OH280052   4.093   4.854   5.235 -0.0530  0.1494  0.5624
19546TIP3    H180053   4.056   4.856   5.147 -2.0176  2.5965  1.3380
19546TIP3    H280054   4.022   4.824   5.291  0.2438  1.3647  1.6477
19547TIP3   OH280055   6.106   4.872  13.354  0.0840 -0.0850 -0.5241
19547TIP3    H180056   6.163   4.949  13.347 -0.5392  0.4043 -0.3453
19547TIP3    H280057   6.091   4.845  13.264 -0.6728  0.7435 -0.6558
19548TIP3   OH280058   1.773   6.312  16.878  0.1600 -0.2764  0.8951
19548TIP3    H180059   1.809   6.241  16.931 -0.8850  0.7729  3.1608
19548TIP3    H280060   1.829   6.387  16.898 -1.5140  0.6738  2.3091
19549TIP3   OH280061   5.587   1.686  12.957  1.0810 -0.0176  0.6224
19549TIP3    H180062   5.637   1.758  12.921  0.3319 -0.0063 -0.4202
19549TIP3    H280063   5.606   1.612  12.900 -1.4839  0.4373 -0.9351
19550TIP3   OH280064   3.341   4.621  12.914 -0.1077 -0.2372 -0.1328
19550TIP3    H180065   3.286   4.633  12.837 -0.4135 -1.3414 -0.1037
19550TIP3    H280066   3.375   4.532  12.906  0.6782 -0.0074  0.4924
19551TIP3   OH280067   2.673   2.767  13.162 -0.3015 -0.0485 -0.3858
19551TIP3    H180068   2.734   2.696  13.182 -0.2153  0.1590  0.1291
19551TIP3    H280069   2.727   2.833  13.118 -0.5966 -0.7171 -1.8012
19552TIP3   OH280070   5.231   4.692   4.210  0.3524  0.2512  0.5287
19552TIP3    H180071   5.316   4.733   4.198  0.3776 -0.5464 -3.0504
19552TIP3    H280072   5.205   4.663   4.123 -3.3752 -0.0283  1.5385
19553TIP3   OH280073   5.601   1.263  12.936  0.4806  0.0928  0.1361
19553TIP3    H180074   5.631   1.332  12.877  0.3698 -0.1327 -0.1860
19553TIP3    H280075   5.677   1.205  12.945 -0.0341 -0.8590 -1.2312
19554TIP3   OH280076   2.541   4.995  11.636 -0.5940 -0.2282 -0.6672
19554TIP3    H180077   2.499   5.012  11.552 -0.4634 -0.7789 -0.8504
19554TIP3    H280078   2.536   4.900  11.647 -0.3098 -0.1966 -0.2120
19555TIP3   OH280079   2.605   5.251   5.900  0.6504 -0.5061 -0.2162
19555TIP3    H180080   2.531   5.204   5.940 -0.4382  0.4383 -1.0725
19555TIP3    H280081   2.586   5.249   5.806  2.5162 -1.5737 -0.6149
19556TIP3   OH280082   1.179   1.995   0.319  0.7118 -0.1449 -0.4592
19556TIP3    H180083   1.219   2.037   0.396 -2.3676 -0.1874  1.3101
19556TIP3    H280084   1.203   1.903   0.327  0.0294 -0.2358  0.7610
19557TIP3   OH280085   2.205   4.018  13.630  0.3542  0.1274 -0.1908
19557TIP3    H180086   2.149   4.022  13.707  1.0686  0.2089  0.3442
19557TIP3    H280087   2.150   4.047  13.557 -0.3173  0.0913  0.2993
19558TIP3   OH280088   3.470   5.863  13.384  0.0362  0.1404  0.0173
19558TIP3    H180089   3.527   5.787  13.375  0.3635  0.5867 -2.3580
19558TIP3    H280090   3.383   5.831  13.357 -0.5047 -0.0799  1.8723
19559TIP3   OH280091   4.558   1.996  12.229  0.2183 -0.0389  0.2753
19559TIP3    H180092   4.504   1.917  12.234  0.6217 -0.3456 -0.1002
19559TIP3    H280093   4.642   1.969  12.267  0.0296  0.5039  1.0925
19560TIP3   OH280094   3.660   1.507   2.029  0.3888 -0.2456 -0.4055
19560TIP3    H180095   3.662   1.568   2.103 -2.0525  0.3855 -0.7815
19560TIP3    H280096   3.712   1.550   1.961  2.8965 -0.9502  0.9111
19561TIP3   OH280097   4.392   1.104  12.734  0.2180  0.1726 -0.0069
19561TIP3    H180098   4.370   1.073  12.647 -0.5858  1.9617 -0.4967
19561TIP3    H280099   4.364   1.035  12.793  1.8216 -1.5828 -1.1939
19562TIP3   OH280100   0.950   2.772  16.725  0.5811  0.1636  0.0312
19562TIP3    H180101   0.996   2.690  16.709  2.4253  1.2115 -0.2291
19562TIP3    H280102   0.988   2.834  16.663 -0.5232  1.3346  0.4637
19563TIP3   OH280103   4.836   6.457  14.819 -0.3318  0.1680  0.0707
19563TIP3    H180104   4.798   6.473  14.906 -0.0502 -1.8307  0.6272
19563TIP3    H280105   4.834   6.542  14.776 -0.9753  1.1120  1.8395
19564TIP3   OH280106   5.502   6.092   0.613  0.2714 -0.2287 -0.3468
19564TIP3    H180107   5.417   6.064   0.579 -1.1048  2.4005  0.6915
19564TIP3    H280108   5.520   6.175   0.569  2.7814 -1.1222 -1.1844
19565TIP3   OH280109   6.645   1.279   2.770 -0.7375 -0.6896  0.1940
19565TIP3    H180110   6.632   1.257   2.678  0.2122 -0.0801 -0.0894
19565TIP3    H280111   6.612   1.202   2.817 -0.6075 -1.2906 -0.6729
19566TIP3   OH280112   1.987   0.125  10.264  0.5742  0.1168 -0.0436
19566TIP3    H180113   2.045   0.169  10.201 -1.3373  1.4114 -0.9885
19566TIP3    H280114   1.899   0.142  10.231 -0.4348 -0.4349  2.1967
19567TIP3   OH280115   6.749   4.104  11.368  0.6919  0.1524  0.3071
19567TIP3    H180116   6.726   4.185  11.323  2.1468 -0.0123 -0.8400
19567TIP3    H280117   6.706   4.110  11.453 -1.9370  0.6111 -0.9723
19568TIP3   OH280118   2.000   5.996   3.874  0.1216 -0.7023  0.4032
19568TIP3    H180119   1.943   6.070   3.898  0.9836 -0.5833  2.2842
19568TIP3    H280120   1.952   5.919   3.904  0.1744 -0.7438  0.3805
19569TIP3   OH280121   3.886   0.758  15.784 -0.2826 -0.3868  0.3938
19569TIP3    H180122   3.927   0.735  15.867  2.1672  0.0297 -0.6074
19569TIP3    H280123   3.958   0.757  15.720 -1.7812  0.7676 -1.4424
19570TIP3   OH280124   2.861   4.930   4.284  0.0083 -0.3282 -0.2742
19570TIP3    H180125   2.788   4.982   4.249  0.8821  0.1760 -1.3974
19570TIP3    H280126   2.890   4.877   4.210 -0.2844 -1.7885  0.6142
19571TIP3   OH280127   1.326   6.280   3.884  0.3167  0.4347  0.1453
19571TIP3    H180128   1.378   6.261   3.962 -0.1435  1.6791  0.7775
19571TIP3    H280129   1.346   6.371   3.864 -1.4396  0.8726  0.2683
19572TIP3   OH280130   1.515   5.188  16.308  0.3482  0.3627  0.1886
19572TIP3    H180131   1.608   5.179  16.287  0.2041  0.2779 -0.4413
19572TIP3    H280132   1.470   5.176  16.224 -0.1235  2.3791  0.0930
19573TIP3   OH280133   4.774   2.807   5.242  0.6406 -0.3372  0.6197
19573TIP3    H180134   4.764   2.899   5.218 -0.2086 -0.6535 -0.2996
19573TIP3    H280135   4.688   2.782   5.277  0.5797 -1.0291 -0.0092
19574TIP3   OH280136   4.349   0.413  10.878 -0.4246 -0.0911 -0.7276
19574TIP3    H180137   4.306   0.363  10.809  1.1350 -0.9989 -1.1060
19574TIP3    H280138   4.407   0.350  10.920 -0.6379  0.6855  0.8065
19575TIP3   OH280139   5.935   5.681  10.962 -0.0293 -0.0125  0.3240
19575TIP3    H180140   5.978   5.670  10.877 -0.0873  0.8070  0.1824
19575TIP3    H280141   5.848   5.641  10.950  0.1463 -0.3552  0.1623
19576TIP3   OH280142   5.771   4.473  12.633  0.1931  0.0054  0.1473
19576TIP3    H180143   5.773   4.496  12.726 -1.1524 -0.2113  0.2517
19576TIP3    H280144   5.688   4.509  12.602  0.1918 -0.7521 -0.7579
19577TIP3   OH280145   0.706   0.812  13.101 -0.1243 -0.2537  0.3954
19577TIP3    H180146   0.800   0.829  13.101 -0.2025  0.2339 -0.4249
19577TIP3    H280147   0.691   0.760  13.022 -0.6492  0.3706  0.0712
19578TIP3   OH280148   0.731   1.544  14.732  0.1666 -0.0121 -0.1572
19578TIP3    H180149   0.731   1.462  14.782 -1.1076  0.9592  1.5288
19578TIP3    H280150   0.683   1.522  14.651 -3.1769 -0.2262  1.6920
19579TIP3   OH280151   0.343   3.727  13.199 -0.7785  0.5630 -0.3934
19579TIP3    H180152   0.350   3.683  13.284 -0.2788  1.2685 -0.0596
19579TIP3    H280153   0.329   3.656  13.136 -1.6402  0.0624  0.3292
19580TIP3   OH280154   2.754   1.190   5.854  0.2654  1.0421 -0.3466
19580TIP3    H180155   2.739   1.282   5.833 -1.8727  0.8037 -0.0937
19580TIP3    H280156   2.703   1.142   5.789  0.4503  0.0695  0.2099
19581TIP3   OH280157   6.557   1.761   3.451 -0.7527  0.2568 -0.7651
19581TIP3    H180158   6.476   1.808   3.470 -0.1965  0.7051  0.6066
19581TIP3    H280159   6.610   1.823   3.402 -0.4192  0.7245  0.1697
19582TIP3   OH280160   0.287   0.070  16.785  0.5665 -0.5917  0.3011
19582TIP3    H180161   0.378   0.062  16.814  0.7066  0.1660  0.0910
19582TIP3    H280162   0.293   0.093  16.693  0.1525 -0.6916  0.2476
19583TIP3   OH280163   3.543   2.388   5.897  0.3224  0.2160  0.7170
19583TIP3    H180164   3.573   2.366   5.809 -0.8679  1.1469  0.0546
19583TIP3    H280165   3.583   2.473   5.916  1.5353 -0.5102  1.5860
19584TIP3   OH280166   2.364   2.118  13.196  0.1735 -0.0618 -0.3267
19584TIP3    H180167   2.371   2.188  13.131 -4.9348 -0.1531 -1.4343
19584TIP3    H280168   2.351   2.039  13.144 -0.6201 -0.7077  0.8283
19585TIP3   OH280169   5.007   0.296   4.941 -0.4109  0.6163  0.4332
19585TIP3    H180170   5.030   0.330   5.028 -0.5608  2.1624 -0.0968
19585TIP3    H280171   4.965   0.370   4.897 -0.7464 -0.2818 -0.8091
19586TIP3   OH280172   2.291   4.342  16.659  0.3287 -0.3157 -0.1264
19586TIP3    H180173   2.368   4.395  16.680  0.6454 -0.6209 -0.5010
19586TIP3    H280174   2.241   4.340  16.740  0.6795 -0.0517  0.1003
19587TIP3   OH280175   0.347   6.653   2.210  0.0712 -0.9646 -0.8924
19587TIP3    H180176   0.420   6.694   2.162 -0.7325 -1.5001 -2.6839
19587TIP3    H280177   0.283   6.723   2.220  0.7765 -0.4972  0.6716
19588TIP3   OH280178   6.253   6.671   6.263  0.2254 -0.7306  0.4610
19588TIP3    H180179   6.240   6.751   6.314  0.3680 -0.4731  0.1010
19588TIP3    H280180   6.208   6.603   6.312 -0.7734 -0.2381  0.2488
19589TIP3   OH280181   1.946   1.744  12.104  0.1265  0.6500 -0.4887
19589TIP3    H180182   1.918   1.652  12.104 -0.9178  0.9505 -0.2809
19589TIP3    H280183   2.002   1.751  12.027  0.2564 -0.1739 -0.4827
19590TIP3   OH280184   5.093   1.127   6.387  0.2470 -0.4879 -0.0415
19590TIP3    H180185   5.138   1.051   6.351  0.7057 -0.8546  1.2852
19590TIP3    H280186   5.001   1.100   6.395 -0.0900 -0.0373 -1.9070
19591TIP3   OH280187   1.988   5.660  11.305 -0.0862 -0.3524  0.1648
19591TIP3    H180188   1.983   5.655  11.210 -0.4015  1.8796  0.0015
19591TIP3    H280189   2.061   5.603  11.329  0.8006  0.0194 -1.5277
19592TIP3   OH280190   0.156   1.265  12.628 -0.1037 -0.1609  0.0031
19592TIP3    H180191   0.117   1.225  12.706 -1.8815 -0.4454 -0.9875
19592TIP3    H280192   0.084   1.270  12.565  1.2181  0.3445 -1.5257
19593TIP3   OH280193   4.660   5.208  13.554  0.2498 -0.3765 -0.3740
19593TIP3    H180194   4.659   5.288  13.501  2.1356  1.1554  1.7306
19593TIP3    H280195   4.589   5.221  13.617 -0.6366 -1.2454 -1.1659
19594TIP3   OH280196   0.319   3.411   2.903 -0.1857 -0.1418 -0.2931
19594TIP3    H180197   0.374   3.382   2.831 -0.8961 -3.2891  0.3177
19594TIP3    H280198   0.247   3.458   2.861  0.1579 -0.6838 -1.5146
19595TIP3   OH280199   0.310   4.268   3.708 -0.2492  0.0448  0.2431
19595TIP3    H180200   0.381   4.325   3.736 -0.4431 -0.2100  1.2857
19595TIP3    H280201   0.303   4.283   3.613 -0.8146  2.3281  0.5932
19596TIP3   OH280202   3.464   0.374  15.486  0.3939 -0.1094 -0.7680
19596TIP3    H180203   3.507   0.295  15.519 -1.0192 -0.3011  0.7657
19596TIP3    H280204   3.484   0.441  15.551 -0.3643  0.1870 -0.8353
19597TIP3   OH280205   2.411   3.249   3.392 -0.8516 -0.0454 -0.4083
19597TIP3    H180206   2.380   3.258   3.302 -2.3931 -1.7186 -0.1044
19597TIP3    H280207   2.331   3.243   3.444 -0.0031  1.4582  1.1808
19598TIP3   OH280208   1.510   1.429  15.390  0.2868  0.1407 -0.1661
19598TIP3    H180209   1.550   1.515  15.400 -0.0265  0.2730 -0.0322
19598TIP3    H280210   1.485   1.403  15.478 -4.1517  2.1104 -0.5617
19599TIP3   OH280211   5.838   0.908  13.052  0.2060 -0.1739 -0.1610
19599TIP3    H180212   5.786   0.865  12.985  1.5396  0.5532 -1.7152
19599TIP3    H280213   5.837   1.000  13.029 -0.8802  0.4123  1.9477
19600TIP3   OH280214   1.636   0.144  11.904 -0.6944 -0.3471 -0.4595
19600TIP3    H180215   1.604   0.212  11.963 -1.5978 -1.5591  0.5341
19600TIP3    H280216   1.562   0.084  11.894  0.8998 -2.8578  1.3012
19601TIP3   OH280217   0.038   5.988  15.460 -0.7143 -0.0736  0.0607
19601TIP3    H180218   0.047   6.069  15.510  0.2291 -0.2728  0.2315
19601TIP3    H280219   0.119   5.941  15.476 -0.8230 -0.5972 -0.8602
19602TIP3   OH280220   6.046   0.340   3.765 -0.6917 -0.3009 -0.3565
19602TIP3    H180221   6.023   0.433   3.763 -2.9585 -0.7782  0.5061
19602TIP3    H280222   6.104   0.328   3.690  0.1961  1.9151 -0.1055
19603TIP3   OH280223   4.497   3.690   1.661 -0.1072 -0.3333  0.7151
19603TIP3    H180224   4.497   3.783   1.640  0.0751 -0.3174  0.7829
19603TIP3    H280225   4.549   3.684   1.742  2.4743 -0.8543 -0.8687
19604TIP3   OH280226   6.107   0.554   0.182  0.2940 -0.2672 -0.2905
19604TIP3    H180227   6.198   0.530   0.193  0.3155 -0.0149  0.0774
19604TIP3    H280228   6.057   0.483   0.223  0.2611 -1.2427 -1.8877
19605TIP3   OH280229   2.149   5.995   2.155  0.0882 -0.2270  0.4168
19605TIP3    H180230   2.217   6.035   2.102  0.2489 -1.8750 -0.6856
19605TIP3    H280231   2.195   5.967   2.235  0.6883 -1.2017 -0.2559
19606TIP3   OH280232   6.408   2.173   5.480  0.0231  0.0760  0.5005
19606TIP3    H180233   6.392   2.111   5.551 -2.0928 -0.3045 -0.2150
19606TIP3    H280234   6.328   2.226   5.476 -0.5124 -0.7387 -2.3180
19607TIP3   OH280235   4.244   2.199  11.817  0.1521  0.0016  0.1467
19607TIP3    H180236   4.339   2.202  11.818  0.1990 -0.6619  1.9553
19607TIP3    H280237   4.217   2.266  11.881 -0.6969  1.5654 -1.7546
19608TIP3   OH280238   6.004   3.599  15.563  0.2035  0.4006  0.5785
19608TIP3    H180239   5.955   3.630  15.639 -1.0611 -0.4118  0.1287
19608TIP3    H280240   5.964   3.514  15.542  0.8561  0.3837 -0.6909
19609TIP3   OH280241   1.228   3.233  11.892 -0.2542 -0.0925 -0.6847
19609TIP3    H180242   1.140   3.267  11.875  0.1826  2.3026  1.2210
19609TIP3    H280243   1.214   3.161  11.954 -0.8289  2.7474  2.8092
19610TIP3   OH280244   6.785   0.415  12.932  0.3339 -0.1936  0.4050
19610TIP3    H180245   6.777   0.381  13.022 -0.9903 -0.4048  0.2240
19610TIP3    H280246   6.725   0.490  12.929 -1.8563 -1.8840 -1.0777
19611TIP3   OH280247   3.803   6.733   2.075 -0.5705  0.7998 -0.2224
19611TIP3    H180248   3.770   6.694   2.155 -0.1472  2.1985  0.6583
19611TIP3    H280249   3.733   6.791   2.046 -0.6917  0.3567 -0.8463
19612TIP3   OH280250   5.181   2.565   1.963  0.4669 -0.1676  0.3674
19612TIP3    H180251   5.209   2.646   2.008 -0.4452  2.1259 -2.8475
19612TIP3    H280252   5.086   2.565   1.972  0.2322  0.5038 -1.6344
19613TIP3   OH280253   2.882   2.819   2.956 -0.0077  0.2361 -0.1506
19613TIP3    H180254   2.854   2.788   3.042 -2.0043 -1.5705 -1.3453
19613TIP3    H280255   2.930   2.900   2.974  2.6942 -1.8116  2.8937
19614TIP3   OH280256   0.412   3.099   4.402  0.0051  0.0575  0.3182
19614TIP3    H180257   0.427   3.192   4.388 -1.3073  0.2522  0.1160
19614TIP3    H280258   0.430   3.058   4.318  0.5470  0.1149  0.3980
19615TIP3   OH280259   5.790   2.715   2.842 -0.3191  0.0396 -0.4166
19615TIP3    H180260   5.753   2.638   2.885 -2.1617  0.7992 -0.5784
19615TIP3    H280261   5.813   2.774   2.914 -1.8075  0.5930 -0.3514
19616TIP3   OH280262   5.272   4.674   0.563 -0.2915  0.4738  0.2822
19616TIP3    H180263   5.221   4.703   0.487  1.7443  0.7772 -1.0386
19616TIP3    H280264   5.273   4.751   0.621 -1.2465  0.4765  0.3232
19617TIP3   OH280265   4.422   1.408  16.335 -0.1870 -0.5047 -0.6806
19617TIP3    H180266   4.431   1.415  16.240 -1.3869 -1.2558 -0.8532
19617TIP3    H280267   4.432   1.315  16.354  3.1894 -0.0898  0.3099
19618TIP3   OH280268   0.450   5.852   2.886  0.2018  0.3066 -0.3310
19618TIP3    H180269   0.528   5.884   2.840  1.0562 -0.8501  0.2610
19618TIP3    H280270   0.385   5.840   2.817  0.8713  0.3390 -0.9833
19619TIP3   OH280271   0.898   5.045  11.380  0.1765 -0.1328 -0.1043
19619TIP3    H180272   0.982   5.052  11.334  0.0000 -0.9379 -0.5498
19619TIP3    H280273   0.904   4.964  11.430  0.2792  0.6132  1.1514
19620TIP3   OH280274   3.816   4.917   2.688 -0.1767 -0.4042  0.1833
19620TIP3    H180275   3.868   4.992   2.659 -1.6599 -0.2265 -2.3613
19620TIP3    H280276   3.877   4.843   2.687  0.1082 -0.2564 -2.9998
19621TIP3   OH280277   1.336   0.093  16.380  0.0332  0.0620 -0.2894
19621TIP3    H180278   1.315   0.181  16.413 -0.0373  0.0578 -0.3243
19621TIP3    H280279   1.334   0.102  16.285 -1.4992 -0.3354 -0.3245
19622TIP3   OH280280   1.543   1.828   2.485 -0.2656  0.0513  0.5551
19622TIP3    H180281   1.535   1.758   2.421 -1.4793 -0.4188  1.1978
19622TIP3    H280282   1.540   1.909   2.434 -0.3436 -0.3345 -0.0498
19623TIP3   OH280283   6.228   5.039   4.569  0.3037  0.2586  0.0955
19623TIP3    H180284   6.276   5.121   4.580 -0.5860  1.2062 -2.3165
19623TIP3    H280285   6.154   5.062   4.512  0.7131 -2.4290 -1.6900
19624TIP3   OH280286   5.864   2.343   4.326 -0.3163  1.0281 -0.3408
19624TIP3    H180287   5.803   2.302   4.265 -0.2887  1.5377 -0.7171
19624TIP3    H280288   5.822   2.426   4.350 -0.0995  1.0556 -0.0536
19625TIP3   OH280289   0.041   5.230  13.635  0.1416 -0.1314 -0.1467
19625TIP3    H180290   0.023   5.301  13.697  0.0215  0.5545 -0.9527
19625TIP3    H280291   0.083   5.272  13.561 -0.0849 -0.8764 -0.7176
19626TIP3   OH280292   4.016   6.680   2.830  0.0121  0.3088 -0.4703
19626TIP3    H180293   4.062   6.608   2.874 -0.3237  0.3040 -0.1327
19626TIP3    H280294   4.052   6.759   2.869 -1.9639  0.2911  1.5364
19627TIP3   OH280295   0.482   0.412  14.974 -0.1801 -0.3490 -0.3430
19627TIP3    H180296   0.424   0.489  14.970 -0.4029 -0.4246  0.9310
19627TIP3    H280297   0.423   0.337  14.966 -0.1563 -0.4058 -0.0173
19628TIP3   OH280298   0.726   0.316   4.993  0.3055  0.5866 -0.6516
19628TIP3    H180299   0.689   0.229   5.004 -0.9096  1.2781  1.1321
19628TIP3    H280300   0.729   0.329   4.898  0.6891 -1.4407 -0.9598
19629TIP3   OH280301   0.346   0.948   3.875 -0.2683  0.1909  0.2503
19629TIP3    H180302   0.302   1.032   3.888  1.5477  1.0436  1.2711
19629TIP3    H280303   0.374   0.949   3.784 -1.2031  0.2014 -0.0457
19630TIP3   OH280304   0.916   5.580   0.749 -0.3350 -0.0201 -0.1168
19630TIP3    H180305   0.856   5.640   0.792  0.4751 -0.3248  1.5037
19630TIP3    H280306   0.871   5.554   0.669 -1.3924  1.4634 -0.0416
19631TIP3   OH280307   0.589   1.429  15.682  0.3858  0.2182  0.0289
19631TIP3    H180308   0.495   1.412  15.672 -0.1061  2.1153  0.9217
19631TIP3    H280309   0.630   1.344  15.668 -1.3724 -0.4566 -1.4800
19632TIP3   OH280310   6.713   0.904  12.589  0.4526 -0.3651 -0.5213
19632TIP3    H180311   6.794   0.857  12.610 -1.1727 -2.2592  1.9995
19632TIP3    H280312   6.664   0.843  12.534  0.0033  0.0712 -0.6067
19633TIP3   OH280313   5.385   1.885   1.266 -0.0831 -0.1269  0.1697
19633TIP3    H180314   5.364   1.871   1.358  3.0108  0.0585  1.0356
19633TIP3    H280315   5.374   1.799   1.225  1.2230 -0.9057  1.3825
19634TIP3   OH280316   5.679   0.035  16.055  0.1764 -0.3968 -0.1245
19634TIP3    H180317   5.728  -0.037  16.015 -0.8711 -0.9776 -0.3982
19634TIP3    H280318   5.737   0.068  16.124  0.3636 -2.0650  0.5660
19635TIP3   OH280319   0.444   0.165  13.175  0.0504  0.2754 -0.4453
19635TIP3    H180320   0.533   0.133  13.161 -0.5025 -1.8271  0.5013
19635TIP3    H280321   0.405   0.168  13.088  1.1267  1.5486 -0.9074
19636TIP3   OH280322   2.668   1.788   1.047 -0.2087 -0.2633  0.0266
19636TIP3    H180323   2.671   1.883   1.032 -1.4310 -0.2973 -0.5788
19636TIP3    H280324   2.740   1.753   0.994  0.2487  0.3212  0.2538
19637TIP3   OH280325   2.485   5.110   5.471 -0.3756 -0.5379 -0.2505
19637TIP3    H180326   2.446   5.193   5.498 -0.1490 -0.6571  0.4397
19637TIP3    H280327   2.565   5.102   5.523  1.2847  0.3070 -2.5100
19638TIP3   OH280328   6.646   6.051   1.368 -0.3055  0.1567 -0.6400
19638TIP3    H180329   6.721   6.007   1.407 -1.4151 -2.3847 -1.1384
19638TIP3    H280330   6.647   6.138   1.406 -0.0587 -1.3959  3.4428
19639TIP3   OH280331   1.834   2.223   1.237 -0.0265 -0.3319  0.1802
19639TIP3    H180332   1.879   2.195   1.317 -0.6520 -1.3979  0.1815
19639TIP3    H280333   1.749   2.180   1.242  0.0296 -0.6316 -1.1918
19640TIP3   OH280334   1.123   2.956  14.002 -0.1958  0.5731 -0.3574
19640TIP3    H180335   1.091   2.994  13.920  1.4936 -0.4129 -1.5328
19640TIP3    H280336   1.130   2.862  13.984 -0.1992  0.2769  1.0789
19641TIP3   OH280337   2.839   6.004  12.911  0.2391  0.2092  0.4078
19641TIP3    H180338   2.921   6.049  12.931  0.5300 -0.3337  0.4279
19641TIP3    H280339   2.805   6.050  12.834  1.8436 -1.1641 -1.1906
19642TIP3   OH280340   3.625   2.613   0.814  0.1628  0.2485 -0.4501
19642TIP3    H180341   3.580   2.694   0.839 -0.8795 -0.6517  0.6848
19642TIP3    H280342   3.693   2.642   0.753 -0.7498  1.8775 -0.7665
19643TIP3   OH280343   1.661   2.321  14.384  0.0624 -0.3023 -0.0607
19643TIP3    H180344   1.690   2.333  14.475 -0.1879  0.9279 -0.1310
19643TIP3    H280345   1.687   2.231  14.363  0.3618 -0.5197  1.1383
19644TIP3   OH280346   6.004   3.012   2.450  0.2067  0.3049  0.5184
19644TIP3    H180347   6.022   2.921   2.476  0.1941  0.8327  2.5384
19644TIP3    H280348   6.039   3.065   2.522  0.4161  1.9342 -0.7243
19645TIP3   OH280349   0.758   6.647  10.844 -0.3283 -0.7042 -0.3578
19645TIP3    H180350   0.665   6.657  10.825  0.2115  1.3210 -2.2639
19645TIP3    H280351   0.802   6.669  10.762  1.9196  0.5091  1.0840
19646TIP3   OH280352   2.296   5.791   1.935 -0.0852 -0.1389 -0.3585
19646TIP3    H180353   2.209   5.763   1.965 -0.0661 -1.0279 -1.0834
19646TIP3    H280354   2.303   5.757   1.846 -0.3318  2.8616 -1.6305
19647TIP3   OH280355   5.230   0.089  14.226  0.0406 -0.3740 -0.7273
19647TIP3    H180356   5.172   0.130  14.290  2.1759  1.4296  0.1733
19647TIP3    H280357   5.222   0.144  14.148 -1.2455 -1.5704 -1.4937
19648TIP3   OH280358   5.362   4.004   3.524 -0.1952 -0.3161 -0.4466
19648TIP3    H180359   5.379   3.934   3.587  2.1423 -0.4122 -1.0819
19648TIP3    H280360   5.358   4.084   3.577 -0.5967 -0.6491  0.0389
19649TIP3   OH280361   5.504   6.738   4.097 -0.0369 -0.0932  0.9846
19649TIP3    H180362   5.458   6.714   4.016  0.4941  0.4302  0.5235
19649TIP3    H280363   5.567   6.804   4.071  0.2683 -0.0437  1.8033
19650TIP3   OH280364   0.498   0.312   2.119  0.7270  0.1467 -0.4460
19650TIP3    H180365   0.512   0.308   2.214 -0.0074  1.0533 -0.2744
19650TIP3    H280366   0.560   0.250   2.082  0.5317 -0.7493  0.6807
19651TIP3   OH280367   5.591   6.504   0.186 -0.1540 -0.2837  0.0841
19651TIP3    H180368   5.617   6.558   0.112 -0.8068 -2.8775 -2.1880
19651TIP3    H280369   5.673   6.468   0.220  0.2040  1.3646  1.1137
19652TIP3   OH280370   0.080   4.294  12.517 -0.0041  0.5575 -0.6529
19652TIP3    H180371   0.111   4.329  12.433 -0.9667  0.9664 -0.8481
19652TIP3    H280372   0.005   4.348  12.540 -1.5015 -1.2828 -0.9362
19653TIP3   OH280373   1.628   1.551   5.275 -0.0193  0.3735 -0.7144
19653TIP3    H180374   1.602   1.595   5.195 -0.1444 -0.3674 -1.0934
19653TIP3    H280375   1.596   1.461   5.265  2.1557 -0.4470 -0.9548
19654TIP3   OH280376   5.964   1.525   3.405  0.1595  0.5420  0.0740
19654TIP3    H180377   6.027   1.494   3.470 -1.2768  1.3441  1.9465
19654TIP3    H280378   5.903   1.452   3.394  1.1956 -0.1167 -1.4930
19655TIP3   OH280379   1.064   6.518  16.509 -0.1368  0.4394  0.4182
19655TIP3    H180380   1.120   6.563  16.571  1.2835  0.2193 -0.6391
19655TIP3    H280381   1.035   6.439  16.555  1.8586 -0.3367  0.4405
19656TIP3   OH280382   5.676   3.840  16.701  0.1547  0.2623  0.5721
19656TIP3    H180383   5.651   3.769  16.642 -0.4693  1.3264 -0.4641
19656TIP3    H280384   5.759   3.873  16.666 -0.3311  1.0436  0.1531
19657TIP3   OH280385   5.400   5.360   4.709  0.2152  0.6576  0.6044
19657TIP3    H180386   5.404   5.400   4.795 -1.3426  1.7021  0.2242
19657TIP3    H280387   5.308   5.341   4.694  0.6367 -1.0391 -0.1851
19658TIP3   OH280388   6.398   4.017  12.822 -0.4109  0.5100 -0.3709
19658TIP3    H180389   6.353   3.996  12.740 -2.7089  1.5455  0.5552
19658TIP3    H280390   6.450   3.939  12.842  1.6303  0.8491 -3.6270
19659TIP3   OH280391   2.912   0.925   0.845 -0.0402 -0.1972  0.0246
19659TIP3    H180392   2.958   0.857   0.794  0.2857 -0.4875  0.6899
19659TIP3    H280393   2.959   1.006   0.825 -0.8654 -0.0245 -1.3221
19660TIP3   OH280394   0.220   4.460   4.497 -0.3608 -0.0591 -0.3607
19660TIP3    H180395   0.282   4.443   4.568 -0.4275 -2.2511 -0.7733
19660TIP3    H280396   0.151   4.395   4.508 -0.5202 -0.2863 -2.2518
19661TIP3   OH280397   5.826   1.158   3.929  0.4818 -0.1209  0.4312
19661TIP3    H180398   5.759   1.188   3.867  0.4351 -0.7587  0.1573
19661TIP3    H280399   5.782   1.160   4.014 -0.4646 -2.1026  0.0513
19662TIP3   OH280400   4.048   4.086  17.057  0.6372  0.3215  0.0247
19662TIP3    H180401   4.094   4.012  17.097  1.6480 -1.0375 -3.3377
19662TIP3    H280402   3.958   4.055  17.046  0.8366 -0.0581 -0.5416
19663TIP3   OH280403   3.859   0.308   5.973  0.4886  0.0677  0.0333
19663TIP3    H180404   3.832   0.296   6.064 -1.6699 -1.1875 -0.7141
19663TIP3    H280405   3.873   0.402   5.964 -0.5431  0.3624  1.3404
19664TIP3   OH280406   2.746   2.099   4.885 -0.4988  0.1824  0.4384
19664TIP3    H180407   2.684   2.116   4.814  0.7466  0.6191 -0.5943
19664TIP3    H280408   2.800   2.178   4.888  0.0434 -0.2102  1.2623
19665TIP3   OH280409   3.593   1.411   0.903  0.7684 -0.2428 -0.0928
19665TIP3    H180410   3.596   1.431   0.997 -0.4421  0.0448 -0.1004
19665TIP3    H280411   3.587   1.315   0.900 -0.9370 -0.1925  0.2192
19666TIP3   OH280412   0.469   4.601  10.750  0.2934  0.4401 -0.0381
19666TIP3    H180413   0.531   4.644  10.808  0.5937 -2.2753  1.8302
19666TIP3    H280414   0.388   4.595  10.802 -0.1585 -0.0289 -0.7752
19667TIP3   OH280415   1.851   4.500  15.708 -0.3061  0.1593  0.2090
19667TIP3    H180416   1.799   4.424  15.734  3.2685 -3.0938 -1.1961
19667TIP3    H280417   1.792   4.551  15.652 -2.9011 -1.4719  1.2742
19668TIP3   OH280418   2.993   3.843  13.327  0.1889 -0.0947 -0.2583
19668TIP3    H180419   3.045   3.862  13.405 -0.0942  0.0721 -0.1087
19668TIP3    H280420   2.904   3.869  13.351 -0.4147 -2.4512  0.2952
19669TIP3   OH280421   4.310   3.236   6.246 -0.5416 -0.3717  0.1718
19669TIP3    H180422   4.331   3.274   6.331  0.6829  1.1793 -0.7530
19669TIP3    H280423   4.390   3.191   6.219 -0.7551 -0.4589 -0.3341
19670TIP3   OH280424   3.780   4.782  13.172 -0.6874  0.4633  0.5329
19670TIP3    H180425   3.703   4.803  13.119 -0.5499  1.7876  0.8138
19670TIP3    H280426   3.820   4.867  13.191  0.3880 -0.1370  1.0821
19671TIP3   OH280427   6.423   6.372  12.277 -0.1335 -0.2957 -0.5392
19671TIP3    H180428   6.331   6.383  12.251  0.7777  2.6123 -3.2641
19671TIP3    H280429   6.452   6.461  12.297  2.7024 -0.7155 -2.3569
19672TIP3   OH280430   5.726   5.252   0.247  0.4448  0.1252  0.3233
19672TIP3    H180431   5.788   5.262   0.175  1.0731 -1.0319  0.6857
19672TIP3    H280432   5.656   5.198   0.211  1.1620 -1.1514  0.8003
19673TIP3   OH280433   5.869   0.540  11.714  0.5943 -0.2304  0.2947
19673TIP3    H180434   5.785   0.538  11.759  0.7148 -0.5725  0.5094
19673TIP3    H280435   5.854   0.595  11.637 -0.0325 -0.8846 -0.0679
19674TIP3   OH280436   2.542   5.798   0.660  0.4728 -0.2042 -0.2420
19674TIP3    H180437   2.515   5.816   0.570  0.4077  1.8908  0.1310
19674TIP3    H280438   2.473   5.743   0.696  0.0093 -0.2573 -1.1834
19675TIP3   OH280439   5.324   4.540   4.578 -0.2794  0.1853 -0.0137
19675TIP3    H180440   5.338   4.513   4.487 -0.9214 -0.7760  0.1466
19675TIP3    H280441   5.287   4.462   4.620 -2.4717  1.3701  0.4417
19676TIP3   OH280442   0.704   4.629  16.094  0.4533 -0.1062  0.1035
19676TIP3    H180443   0.721   4.670  16.009  1.9252  0.1532  0.4872
19676TIP3    H280444   0.698   4.703  16.155 -1.6703 -0.2168  0.1035
19677TIP3   OH280445   6.651   3.651  15.333  0.1547  0.0123 -0.5215
19677TIP3    H180446   6.574   3.680  15.285  1.6228  0.3275 -2.8721
19677TIP3    H280447   6.691   3.732  15.366 -0.9500 -0.2169  1.5037
19678TIP3   OH280448   3.162   2.453   2.161  0.6566  0.3758  0.9184
19678TIP3    H180449   3.204   2.385   2.108 -0.3197  0.4881 -0.0531
19678TIP3    H280450   3.173   2.533   2.109  0.3881  0.6448  1.2713
19679TIP3   OH280451   3.094   1.431   0.320 -0.2499  0.0371  0.1254
19679TIP3    H180452   3.075   1.513   0.365 -1.3557  0.4571 -1.0587
19679TIP3    H280453   3.186   1.440   0.292 -0.4722  1.0334 -0.3188
19680TIP3   OH280454   6.059   1.315  14.804  0.0137 -0.0901  0.7006
19680TIP3    H180455   5.977   1.324  14.757 -0.6491  0.9028  1.9827
19680TIP3    H280456   6.084   1.223  14.793 -1.3391 -0.4343  0.4127
19681TIP3   OH280457   6.036   2.627   3.737 -0.2653  0.0847 -0.0517
19681TIP3    H180458   5.972   2.583   3.682  0.7587  0.1585 -1.3568
19681TIP3    H280459   6.003   2.616   3.826 -1.7659 -0.3751 -0.6326
19682TIP3   OH280460   2.736   1.978   0.445 -0.9997 -0.1393 -0.0498
19682TIP3    H180461   2.774   1.919   0.510  0.4734 -0.2453 -0.9649
19682TIP3    H280462   2.695   2.048   0.497  0.0342 -0.2829  1.0056
19683TIP3   OH280463   3.386   0.778   4.269  0.3131  0.2970  0.1139
19683TIP3    H180464   3.463   0.804   4.320  0.0459 -0.9523  1.2085
19683TIP3    H280465   3.313   0.789   4.330 -0.0593 -0.9021 -0.0954
19684TIP3   OH280466   4.652   1.290  15.327  0.3473  0.3185 -0.3629
19684TIP3    H180467   4.585   1.343  15.370  1.1723  0.1441  1.1983
19684TIP3    H280468   4.705   1.353  15.279  0.7263  0.8080  0.6760
19685TIP3   OH280469   2.607   5.224  10.870  0.3551 -0.0425 -0.6189
19685TIP3    H180470   2.619   5.223  10.775 -0.1251 -2.8664 -0.7354
19685TIP3    H280471   2.621   5.133  10.897 -0.8742  0.4078  1.8334
19686TIP3   OH280472   0.111   5.905  12.180 -0.2598 -0.0591 -0.0593
19686TIP3    H180473   0.018   5.884  12.189 -0.3897 -0.0221 -1.1441
19686TIP3    H280474   0.151   5.821  12.155 -0.5400  0.5282 -2.8530
19687TIP3   OH280475   6.265   6.241  12.894 -0.0858  0.8644 -0.5618
19687TIP3    H180476   6.279   6.336  12.899  0.7023  0.8239 -1.5591
19687TIP3    H280477   6.236   6.216  12.981 -2.1286  2.2970 -0.7601
19688TIP3   OH280478   3.734   5.770  15.629 -0.2303  0.1100  0.4319
19688TIP3    H180479   3.747   5.731  15.716 -0.8157  2.3878  1.6091
19688TIP3    H280480   3.726   5.695  15.571 -0.0793 -1.5053  2.3723
19689TIP3   OH280481   6.168   6.343   5.974 -0.1309  0.1680 -0.2838
19689TIP3    H180482   6.210   6.257   5.976  1.0038  0.6659  2.4053
19689TIP3    H280483   6.096   6.336   6.036 -0.7937  0.8268 -0.9582
19690TIP3   OH280484   2.119   1.978   1.796  0.4271  0.8142 -0.0490
19690TIP3    H180485   2.188   2.044   1.791  2.3002 -0.9017  1.3583
19690TIP3    H280486   2.057   2.013   1.860  0.4246  1.9904 -0.6689
19691TIP3   OH280487   3.481   0.945  14.751  0.3712 -0.2376  0.0081
19691TIP3    H180488   3.459   0.899  14.670 -0.6548  0.0749  0.0981
19691TIP3    H280489   3.567   0.912  14.775  0.7241 -0.2862 -1.2528
19692TIP3   OH280490   1.208   0.751   2.299 -0.3305  0.1474  0.1283
19692TIP3    H180491   1.185   0.833   2.343 -1.6988 -0.3131  0.3188
19692TIP3    H280492   1.126   0.702   2.297 -0.6223  0.4683 -3.7290
19693TIP3   OH280493   5.564   6.339   4.584  0.5794 -0.5574 -0.1054
19693TIP3    H180494   5.517   6.364   4.664  1.0948 -2.4686  0.8687
19693TIP3    H280495   5.626   6.410   4.569  1.3049 -0.6855  1.9546
19694TIP3   OH280496   0.455   2.605   0.169 -0.1342 -0.0215 -0.5757
19694TIP3    H180497   0.376   2.585   0.119 -0.2359 -0.1567 -0.3631
19694TIP3    H280498   0.500   2.521   0.176 -1.0498 -0.4124  1.1684
19695TIP3   OH280499   6.349   5.737   0.153 -0.1493 -0.0968  0.6047
19695TIP3    H180500   6.337   5.649   0.117 -0.3208  0.0408  0.3209
19695TIP3    H280501   6.299   5.737   0.235 -2.2222  0.4844 -0.5810
19696TIP3   OH280502   5.232   6.142  10.259  0.7018  0.1046 -0.3185
19696TIP3    H180503   5.253   6.223  10.214  0.9827  0.2767  0.1212
19696TIP3    H280504   5.200   6.169  10.345 -1.9296 -0.0999 -1.1447
19697TIP3   OH280505   4.757   5.804  14.118  0.7818 -0.5455 -0.1265
19697TIP3    H180506   4.687   5.738  14.115 -1.1609  1.3552  0.3616
19697TIP3    H280507   4.767   5.833  14.027  1.0077 -0.8970 -0.2129
19698TIP3   OH280508   2.504   2.701   0.198  0.0957 -0.0880  0.2001
19698TIP3    H180509   2.493   2.613   0.233  1.2826 -0.5311 -0.4679
19698TIP3    H280510   2.595   2.704   0.169 -0.4744  0.6453 -1.6810
19699TIP3   OH280511   2.350   1.917  13.019  0.3366  0.5101 -0.2953
19699TIP3    H180512   2.335   1.959  12.935  0.6136  0.5388 -0.3301
19699TIP3    H280513   2.275   1.860  13.031  0.6188  0.0067 -0.8653
19700TIP3   OH280514   1.990   3.232   0.690  0.0282 -0.1250  0.3491
19700TIP3    H180515   1.969   3.205   0.601 -0.3615 -0.4182  0.5299
19700TIP3    H280516   2.084   3.214   0.698  0.5492  1.8792 -0.6969
19701TIP3   OH280517   3.325   2.360  14.839  0.3793 -0.3282  0.8787
19701TIP3    H180518   3.375   2.420  14.894  0.3484 -1.5596  2.2973
19701TIP3    H280519   3.360   2.273  14.860 -2.2922 -1.2572  1.9274
19702TIP3   OH280520   6.691   0.290   0.388  0.2781  0.3503  0.4426
19702TIP3    H180521   6.774   0.255   0.355  0.7241  1.5380  0.2735
19702TIP3    H280522   6.647   0.324   0.311 -0.4904 -0.4897  0.4971
19703TIP3   OH280523   4.086   0.890   3.338  0.3353  0.0890 -0.1069
19703TIP3    H180524   4.146   0.965   3.338  0.8208 -0.2947  0.2611
19703TIP3    H280525   4.000   0.929   3.321  0.8338  0.5241 -1.8591
19704TIP3   OH280526   4.625   5.872  15.527  0.2806 -0.1955  0.1090
19704TIP3    H180527   4.608   5.965  15.509  1.1580  0.3965  2.0616
19704TIP3    H280528   4.718   5.869  15.551  0.4008 -1.6758 -0.4768
19705TIP3   OH280529   3.157   5.489  12.298  0.8285 -0.1633 -0.7216
19705TIP3    H180530   3.119   5.506  12.212 -0.0694 -2.6617 -0.8954
19705TIP3    H280531   3.224   5.422  12.282  0.3390 -1.0055  0.5361
19706TIP3   OH280532   0.720   1.668  15.701  0.6010 -0.1596 -0.0036
19706TIP3    H180533   0.663   1.591  15.691 -1.0704  0.9406  0.6401
19706TIP3    H280534   0.679   1.735  15.647  0.5176  1.0533  1.4968
19707TIP3   OH280535   5.261   5.695   1.117  0.7326  0.6705 -0.0533
19707TIP3    H180536   5.217   5.751   1.053  0.4781  0.4194 -0.1008
19707TIP3    H280537   5.279   5.614   1.069 -0.2578  0.1395  0.4400
19708TIP3   OH280538   3.375   0.505   2.797  0.3987 -0.1432  0.1586
19708TIP3    H180539   3.393   0.412   2.787 -1.5896 -0.5290 -0.4036
19708TIP3    H280540   3.295   0.508   2.850  0.3219  1.2256  0.0026
19709TIP3   OH280541   0.048   0.503   6.840 -0.2110  0.5904  0.0062
19709TIP3    H180542   0.107   0.492   6.764 -0.6075  0.3106 -0.2620
19709TIP3    H280543  -0.021   0.438   6.826  0.9334 -1.1268  1.8049
19710TIP3   OH280544   5.072   5.900   1.296 -0.6262 -0.2092  0.5456
19710TIP3    H180545   4.991   5.906   1.345 -0.9605 -1.1341  0.1223
19710TIP3    H280546   5.082   5.807   1.277  0.7524 -0.1646  0.9563
19711TIP3   OH280547   6.049   2.272   1.818  0.5600 -0.2037  0.8411
19711TIP3    H180548   6.054   2.324   1.898 -0.1060  1.2382 -0.0098
19711TIP3    H280549   6.135   2.231   1.811 -0.1368 -2.4079  3.5739
19712TIP3   OH280550   5.942   1.874  17.024  0.2660 -0.5040  0.2449
19712TIP3    H180551   5.940   1.805  16.958  2.0841 -0.0757 -0.3229
19712TIP3    H280552   6.035   1.896  17.033 -0.1074  0.6527  1.6934
19713TIP3   OH280553   6.561   0.354  13.253 -0.1639  0.5476 -0.0300
19713TIP3    H180554   6.595   0.284  13.198  1.2318  1.4455 -0.3698
19713TIP3    H280555   6.475   0.323  13.281 -0.1580 -0.6916 -1.2701
19714TIP3   OH280556   5.933   6.553  14.391 -0.4640 -0.5379 -0.5829
19714TIP3    H180557   5.910   6.524  14.303  1.7038 -0.3772 -1.2785
19714TIP3    H280558   5.880   6.631  14.406 -0.8955 -0.5919 -1.7469
19715TIP3   OH280559   0.890   2.273   4.843  0.3570  0.8122  0.9007
19715TIP3    H180560   0.924   2.346   4.895 -0.3274  1.5371  0.3662
19715TIP3    H280561   0.893   2.305   4.753  0.8002 -0.1354  0.5662
19716TIP3   OH280562   4.230   0.561   4.498 -0.0727 -0.1124  0.1766
19716TIP3    H180563   4.234   0.611   4.416  0.9286  0.8339  0.7721
19716TIP3    H280564   4.136   0.551   4.515 -0.3082 -0.6761 -1.2763
19717TIP3   OH280565   3.499   2.076  13.460  0.1168  0.5725 -0.3595
19717TIP3    H180566   3.485   2.097  13.368 -1.7546  0.6798 -0.0978
19717TIP3    H280567   3.461   2.150  13.507 -0.3021 -0.1703  0.4988
19718TIP3   OH280568   1.765   5.061   3.777 -0.4318  0.5857  0.2095
19718TIP3    H180569   1.734   5.018   3.856  0.1393  2.7581  1.7062
19718TIP3    H280570   1.849   5.100   3.802 -0.7105  2.1824 -1.1379
19719TIP3   OH280571   0.412   5.576  16.267 -0.3776 -0.3724 -0.2456
19719TIP3    H180572   0.336   5.518  16.272  1.0695 -2.3305  0.4055
19719TIP3    H280573   0.422   5.593  16.173 -0.5639 -1.6006 -0.5071
19720TIP3   OH280574   4.600   1.794  13.889 -0.1747 -0.2855 -0.4965
19720TIP3    H180575   4.520   1.765  13.844 -0.0629 -1.9149  0.2630
19720TIP3    H280576   4.669   1.783  13.824 -0.4464  0.3403 -0.8976
19721TIP3   OH280577   3.425   3.594   0.756 -0.1753 -0.5482  0.0967
19721TIP3    H180578   3.503   3.602   0.812 -0.1900  0.9729 -0.0722
19721TIP3    H280579   3.365   3.539   0.807  0.2285 -0.0604  1.1328
19722TIP3   OH280580   6.606   3.577  13.258 -0.5498 -0.5656  0.2467
19722TIP3    H180581   6.632   3.501  13.309  1.6618  0.5825  1.0052
19722TIP3    H280582   6.532   3.615  13.306 -0.1531 -0.9415  1.1795
19723TIP3   OH280583   6.509   0.747   3.376 -0.1421 -0.1240 -0.1994
19723TIP3    H180584   6.466   0.804   3.312  0.2383  1.3598  0.8027
19723TIP3    H280585   6.601   0.749   3.351 -0.2002 -0.6908 -0.4504
19724TIP3   OH280586   3.494   5.002   5.180  0.1033 -0.0816 -0.2552
19724TIP3    H180587   3.437   4.941   5.132 -0.7396  0.4965 -0.0158
19724TIP3    H280588   3.456   5.006   5.267 -1.4612  2.7417 -0.9587
19725TIP3   OH280589   4.934   0.615   4.025 -0.2263 -0.2087  0.7818
19725TIP3    H180590   4.982   0.686   3.983 -0.8119 -1.5087 -2.4039
19725TIP3    H280591   4.856   0.657   4.063  0.6615  1.1458  1.1725
19726TIP3   OH280592   3.323   1.885   5.193 -0.3407  0.2176  0.1430
19726TIP3    H180593   3.251   1.893   5.130 -0.8744  0.1135  0.7366
19726TIP3    H280594   3.321   1.967   5.242  0.6262  0.6710 -0.5383
19727TIP3   OH280595   2.329   3.830   3.271  0.0011  0.5648  0.2633
19727TIP3    H180596   2.352   3.895   3.338  1.1135  0.8734 -0.3939
19727TIP3    H280597   2.302   3.753   3.321  0.4005  0.9299  1.0683
19728TIP3   OH280598   4.076   0.724  15.551 -0.4238 -0.1621 -0.0888
19728TIP3    H180599   4.093   0.793  15.487  1.7343  0.6564  1.2637
19728TIP3    H280600   4.136   0.653  15.526 -0.1026 -0.1301  0.5672
19729TIP3   OH280601   3.142   0.223   1.497  0.3403 -0.2322  0.3378
19729TIP3    H180602   3.203   0.277   1.446  1.3532  0.0374  1.7722
19729TIP3    H280603   3.062   0.222   1.445  0.7275  1.5561 -0.3828
19730TIP3   OH280604   1.735   3.739   1.452  0.1320  0.0863  0.4186
19730TIP3    H180605   1.772   3.727   1.540  1.1637  0.0983  0.0038
19730TIP3    H280606   1.726   3.651   1.417  1.7955  0.1600 -0.2715
19731TIP3   OH280607   6.059   6.314   0.113 -0.7111 -1.0505 -0.3034
19731TIP3    H180608   5.988   6.271   0.065 -1.3860 -0.3917  0.0738
19731TIP3    H280609   6.138   6.266   0.088 -1.1473 -1.1928 -1.4803
19732TIP3   OH280610   2.959   0.224  16.035  0.0294  0.1425 -0.0563
19732TIP3    H180611   2.948   0.132  16.059  1.0634 -0.3484 -1.3487
19732TIP3    H280612   3.011   0.222  15.955  2.6395  1.9225  1.4029
19733TIP3   OH280613   5.183   1.901  12.380 -0.2207  0.3276  0.0812
19733TIP3    H180614   5.263   1.850  12.371 -0.6655 -0.2352 -0.8337
19733TIP3    H280615   5.212   1.992  12.374  0.4540  0.1653  0.7230
19734TIP3   OH280616   6.601   6.342  11.300 -0.9891 -0.1536  0.1679
19734TIP3    H180617   6.550   6.304  11.229  0.7962 -0.8513 -0.8109
19734TIP3    H280618   6.615   6.269  11.361  0.0260 -0.3690 -0.2956
19735TIP3   OH280619   1.065   3.810  15.019 -0.2443 -0.4155  0.3874
19735TIP3    H180620   1.001   3.740  15.029 -0.8101  0.0515  0.0834
19735TIP3    H280621   1.065   3.829  14.925 -0.0742 -0.0305  0.4635
19736TIP3   OH280622   1.338   1.794   3.508 -0.2554 -0.6892 -0.5358
19736TIP3    H180623   1.426   1.788   3.546 -0.5528 -0.9382  0.1344
19736TIP3    H280624   1.320   1.705   3.477  0.4470 -0.2454 -2.3665
19737TIP3   OH280625   6.780   5.099  14.416 -0.3738  0.0989 -0.1360
19737TIP3    H180626   6.734   5.077  14.336  0.1230  0.3861 -0.5047
19737TIP3    H280627   6.748   5.036  14.481 -0.6774 -0.2141 -0.5893
19738TIP3   OH280628   5.517   5.746   3.673  0.8100  0.2198 -0.8361
19738TIP3    H180629   5.570   5.756   3.594  0.9936 -2.2046 -1.1194
19738TIP3    H280630   5.579   5.716   3.740  0.4094  0.8633 -0.1652
19739TIP3   OH280631   6.765   4.050   1.247 -0.0607  0.3579 -0.5510
19739TIP3    H180632   6.857   4.078   1.252 -0.7987  2.7999  1.2921
19739TIP3    H280633   6.758   3.980   1.313  0.3887  0.4315 -0.4166
19740TIP3   OH280634   1.008   0.094   3.236 -0.4396  0.5483  0.4444
19740TIP3    H180635   1.007   0.189   3.227 -1.2183  0.3837 -1.8556
19740TIP3    H280636   0.921   0.072   3.271 -0.3066  0.6767  0.8529
19741TIP3   OH280637   3.575   6.551  15.832 -0.4405  0.0241  0.1864
19741TIP3    H180638   3.546   6.466  15.800  0.4323 -0.4065  0.5001
19741TIP3    H280639   3.597   6.536  15.924  3.5035 -0.4523 -0.6601
19742TIP3   OH280640   5.702   5.531  12.009 -0.3022 -0.4399  0.3217
19742TIP3    H180641   5.636   5.588  12.048 -0.9708 -0.4119 -0.8158
19742TIP3    H280642   5.708   5.456  12.068 -1.7510 -0.7013  0.1614
19743TIP3   OH280643   1.363   2.163  11.913  0.1867  0.2062 -0.0984
19743TIP3    H180644   1.373   2.174  11.818 -1.6197 -0.7103 -0.4449
19743TIP3    H280645   1.447   2.127  11.942  0.3296 -0.7425 -1.5809
19744TIP3   OH280646   1.679   2.151   0.264  0.1516  0.3297 -1.0883
19744TIP3    H180647   1.701   2.074   0.317  0.3626  0.4499 -1.0045
19744TIP3    H280648   1.593   2.130   0.227 -0.0985  0.3473 -0.5170
19745TIP3   OH280649   0.015   1.230  10.896 -0.0877 -0.1635  0.3352
19745TIP3    H180650  -0.039   1.253  10.821  0.6197 -2.9501 -1.1521
19745TIP3    H280651   0.090   1.290  10.890 -0.4023  0.1488 -0.7238
19746TIP3   OH280652   2.648   2.833  16.877 -0.1446  0.4417 -0.8565
19746TIP3    H180653   2.687   2.847  16.964  0.7800  1.2669 -1.3867
19746TIP3    H280654   2.597   2.753  16.887 -0.4497  0.7878  0.5822
19747TIP3   OH280655   4.816   5.234  14.760  0.0951  0.3840  0.1443
19747TIP3    H180656   4.755   5.280  14.701  1.6941 -1.7765 -3.5040
19747TIP3    H280657   4.897   5.284  14.754  1.1476 -1.4392 -2.0052
19748TIP3   OH280658   1.288   1.715   4.801 -0.2297  0.7671  0.4803
19748TIP3    H180659   1.306   1.661   4.878 -2.3055  0.8662  1.1013
19748TIP3    H280660   1.366   1.770   4.792  1.2045 -1.0906  0.8548
19749TIP3   OH280661   4.219   6.026   3.758 -0.1550  0.2878  0.1967
19749TIP3    H180662   4.138   6.065   3.791  0.2349 -0.4448  2.2030
19749TIP3    H280663   4.268   6.001   3.837  1.2141 -0.9543 -0.9574
19750TIP3   OH280664   3.763   6.461   2.231 -0.6479 -0.0539 -0.0383
19750TIP3    H180665   3.851   6.423   2.229 -0.5004  0.3049 -1.2250
19750TIP3    H280666   3.748   6.482   2.323  0.7584  0.4490  0.1035
19751TIP3   OH280667   2.684   5.707   1.534  0.2146 -0.0952  0.0663
19751TIP3    H180668   2.682   5.758   1.453 -0.8336 -0.3747 -0.1000
19751TIP3    H280669   2.775   5.711   1.563  0.7612 -0.6009 -1.5162
19752TIP3   OH280670   3.215   1.392  10.359 -0.4770  0.0343 -0.3583
19752TIP3    H180671   3.209   1.434  10.445  2.0278  0.5663 -0.3705
19752TIP3    H280672   3.184   1.302  10.375 -0.9320  0.3744  0.8630
19753TIP3   OH280673   3.621   5.097   5.682  0.2014  0.1236  0.7095
19753TIP3    H180674   3.676   5.172   5.658 -0.4845 -0.4009 -3.3086
19753TIP3    H280675   3.643   5.030   5.618 -1.5986 -1.9245  2.0905
19754TIP3   OH280676   3.165   0.844   4.409 -0.0631  0.2417 -0.2568
19754TIP3    H180677   3.177   0.939   4.418  0.8890 -0.1139  3.8226
19754TIP3    H280678   3.101   0.821   4.476  0.4231 -2.1655 -0.5335
19755TIP3   OH280679   4.591   4.260  16.121  0.4327  0.1915 -0.6360
19755TIP3    H180680   4.653   4.305  16.179 -1.6519  0.5652  1.4575
19755TIP3    H280681   4.594   4.168  16.149 -0.7507  0.4136  0.3008
19756TIP3   OH280682   4.411   4.042   0.241 -0.7606 -0.5358 -0.5873
19756TIP3    H180683   4.448   4.126   0.270 -1.1645  0.3343 -2.4674
19756TIP3    H280684   4.317   4.053   0.250 -0.7634 -1.3233  0.4796
19757TIP3   OH280685   1.630   1.818  13.953 -0.3175  0.5449 -0.3887
19757TIP3    H180686   1.563   1.876  13.989 -1.3711 -0.7034 -0.2346
19757TIP3    H280687   1.586   1.733  13.946  0.6787  0.1231 -2.1162
19758TIP3   OH280688   6.325   3.071   0.183 -0.1244 -0.0638 -0.1441
19758TIP3    H180689   6.231   3.057   0.187  0.0769 -2.0477 -1.1094
19758TIP3    H280690   6.335   3.163   0.156 -1.7827  0.0302 -0.5364
19759TIP3   OH280691   4.591   5.889   5.166  0.5376  0.0655  0.5235
19759TIP3    H180692   4.678   5.921   5.188 -0.0697  0.6729  2.2428
19759TIP3    H280693   4.603   5.796   5.150  1.0980 -0.5751  3.9202
19760TIP3   OH280694   5.655   6.035  14.375  0.0462 -0.5329  0.6382
19760TIP3    H180695   5.665   6.019  14.468  2.9692 -0.4466  0.4278
19760TIP3    H280696   5.666   5.948  14.335  0.0991 -0.3729  0.3031
19761TIP3   OH280697   3.779   2.706   5.268  0.3173 -0.3023 -0.2336
19761TIP3    H180698   3.694   2.663   5.265 -0.8868  1.9270 -0.1518
19761TIP3    H280699   3.842   2.635   5.279 -1.4982 -2.0312 -0.5218
19762TIP3   OH280700   1.661   5.987  12.225  0.2281  0.4113 -0.5518
19762TIP3    H180701   1.686   5.963  12.136 -1.9201 -0.9688 -0.8691
19762TIP3    H280702   1.719   5.935  12.281  0.2011 -0.3417 -1.1998
19763TIP3   OH280703   6.051   5.114   2.659 -0.2404 -0.3683  0.4663
19763TIP3    H180704   5.980   5.174   2.679 -0.6229 -0.9593  0.9170
19763TIP3    H280705   6.008   5.037   2.621  0.3210  0.0115 -1.0256
19764TIP3   OH280706   0.823   3.135  15.855  0.0932  0.3212  0.5996
19764TIP3    H180707   0.914   3.128  15.826  0.1788 -0.3834  1.0326
19764TIP3    H280708   0.772   3.131  15.774  0.4052 -0.1349  0.4229
19765TIP3   OH280709   0.553   0.246  16.444  0.4805  0.2116 -0.0923
19765TIP3    H180710   0.617   0.191  16.489  0.3155 -1.6016 -1.9188
19765TIP3    H280711   0.594   0.267  16.360 -1.6999 -2.1399 -1.9071
19766TIP3   OH280712   1.360   2.702   5.514 -0.3149  0.1752  0.0687
19766TIP3    H180713   1.337   2.745   5.432 -2.0779  1.6754  1.2776
19766TIP3    H280714   1.416   2.765   5.560 -1.6471  0.6052  1.1869
19767TIP3   OH280715   3.930   0.355   2.806  0.4644 -0.3260 -0.2878
19767TIP3    H180716   3.967   0.366   2.718  0.0911  1.6655 -0.2606
19767TIP3    H280717   3.988   0.406   2.863 -0.1456 -0.3470  0.3740
19768TIP3   OH280718   5.164   1.131  15.044 -0.0192 -0.1880  0.4504
19768TIP3    H180719   5.233   1.071  15.073  0.3299 -0.5999 -1.0964
19768TIP3    H280720   5.192   1.217  15.075  2.7992  0.1533 -2.4811
19769TIP3   OH280721   1.824   1.883  16.398 -0.5587  0.0790  0.6568
19769TIP3    H180722   1.773   1.931  16.464 -0.3240  1.6954 -0.2751
19769TIP3    H280723   1.813   1.934  16.318  0.4243 -0.9798 -0.1845
19770TIP3   OH280724   6.702   0.964   1.122  0.0775 -0.0484  0.6931
19770TIP3    H180725   6.758   0.896   1.160 -0.7547 -0.9237  0.4066
19770TIP3    H280726   6.672   0.925   1.039  0.8875  1.3249 -0.2992
19771TIP3   OH280727   1.267   2.891  15.747 -0.1126 -0.5627 -0.0871
19771TIP3    H180728   1.340   2.939  15.786  0.1024  1.1160 -2.2856
19771TIP3    H280729   1.309   2.819  15.699  0.4091  1.2019 -2.5165
19772TIP3   OH280730   2.042   0.128  14.645 -0.1812 -0.3448  0.1300
19772TIP3    H180731   1.961   0.157  14.602  1.0520  2.0024 -0.7899
19772TIP3    H280732   2.057   0.191  14.715  0.6057 -1.0429  0.6144
19773TIP3   OH280733   4.383   1.307   1.182 -1.0154  0.4233 -0.4049
19773TIP3    H180734   4.397   1.380   1.121 -0.2839  0.3717 -0.3136
19773TIP3    H280735   4.463   1.255   1.174 -1.4505 -0.2693 -0.3290
19774TIP3   OH280736   2.475   5.720   4.589  0.5776  0.8335 -0.0679
19774TIP3    H180737   2.501   5.654   4.653 -1.1221  0.2245  0.0633
19774TIP3    H280738   2.520   5.696   4.509 -0.9005 -1.2808 -0.3704
19775TIP3   OH280739   2.718   3.531   1.281 -0.0585 -0.5496  0.0532
19775TIP3    H180740   2.703   3.453   1.227  0.7639 -1.2557  0.8110
19775TIP3    H280741   2.691   3.604   1.226 -0.3655 -1.3351 -0.8666
19776TIP3   OH280742   3.355   0.191  14.652  0.9416 -0.6105  1.1988
19776TIP3    H180743   3.263   0.199  14.675  0.8204  0.0995  0.4933
19776TIP3    H280744   3.397   0.265  14.695  0.7964  0.4197 -0.3593
19777TIP3   OH280745   5.672   5.746  13.528  0.5079 -0.5361  0.1808
19777TIP3    H180746   5.764   5.719  13.529  0.1185 -1.9605 -0.0143
19777TIP3    H280747   5.626   5.672  13.488 -0.6522  0.4164 -0.2939
19778TIP3   OH280748   4.656   3.343  13.047  0.6454  0.1669  0.1715
19778TIP3    H180749   4.629   3.427  13.010 -0.1211  0.1443  0.6575
19778TIP3    H280750   4.737   3.321  13.001  1.6501  1.8675  1.0528
19779TIP3   OH280751   6.148   1.309  13.392 -0.1125  0.2258  0.1381
19779TIP3    H180752   6.154   1.357  13.474 -1.0116  0.0168  0.3428
19779TIP3    H280753   6.232   1.322  13.349  0.5366 -0.0578  1.3031
19780TIP3   OH280754   5.890   0.841  10.746  0.1129  0.1229  0.0417
19780TIP3    H180755   5.984   0.852  10.761  0.1717 -0.3265 -0.0104
19780TIP3    H280756   5.849   0.871  10.827  0.3161  0.0025  0.1893
19781TIP3   OH280757   4.231   5.094  16.975 -0.1100  0.3628  0.1241
19781TIP3    H180758   4.249   5.112  17.067  1.2941 -1.5251  0.2922
19781TIP3    H280759   4.248   5.177  16.930  0.2260  1.0362  1.4483
19782TIP3   OH280760   4.061   1.677  15.391 -0.5930  0.0170 -0.0911
19782TIP3    H180761   4.067   1.613  15.320 -0.4119 -0.4734  0.3600
19782TIP3    H280762   4.146   1.720  15.392 -0.9196  0.6889 -0.7855
19783TIP3   OH280763   0.840   1.015  10.746 -0.2668 -0.1194  0.2042
19783TIP3    H180764   0.782   0.968  10.686  0.2456  0.5567 -0.8506
19783TIP3    H280765   0.794   1.097  10.765 -0.5067 -0.4074  0.8881
19784TIP3   OH280766   2.253   4.351   2.913  0.5170  0.2815  0.3265
19784TIP3    H180767   2.290   4.302   2.840  1.4865  2.4283 -0.7321
19784TIP3    H280768   2.176   4.301   2.940  0.0692 -0.5317 -2.2282
19785TIP3   OH280769   0.277   0.783   3.176 -1.0918 -0.3912  0.7112
19785TIP3    H180770   0.327   0.783   3.094  0.9803 -2.4204  1.8795
19785TIP3    H280771   0.185   0.785   3.148 -0.4629 -1.6143 -1.6865
19786TIP3   OH280772   0.236   0.998   1.987  0.5031  0.0382  0.3202
19786TIP3    H180773   0.145   0.973   2.002 -0.1245  1.9525 -0.0220
19786TIP3    H280774   0.261   0.953   1.906 -0.6825  0.7665 -0.4785
19787TIP3   OH280775   5.630   3.850   2.680  0.3138  0.1735 -0.4990
19787TIP3    H180776   5.601   3.770   2.637 -0.3244 -0.5330  1.1456
19787TIP3    H280777   5.709   3.825   2.727  0.0196  0.4559  0.1557
19788TIP3   OH280778   3.855   0.711  16.956  0.0227 -0.4077 -0.0435
19788TIP3    H180779   3.793   0.782  16.970  1.1808  0.8033 -0.8165
19788TIP3    H280780   3.867   0.708  16.862 -0.1915 -1.8266 -0.0485
19789TIP3   OH280781   1.904   0.848  11.952 -0.2923  0.4874  0.2864
19789TIP3    H180782   1.969   0.842  11.882  0.4452 -0.2692  1.0080
19789TIP3    H280783   1.949   0.897  12.022 -0.7193  0.5139  0.5438
19790TIP3   OH280784   0.020   5.259  15.193 -0.3376  0.5168  0.5871
19790TIP3    H180785  -0.053   5.197  15.189  0.0219 -0.1010  2.6246
19790TIP3    H280786  -0.022   5.343  15.213 -0.5376  0.2547  1.2853
19791TIP3   OH280787   0.676   0.150   1.115  0.1766 -0.3367  0.5365
19791TIP3    H180788   0.653   0.215   1.049  1.8757 -0.6066 -0.3494
19791TIP3    H280789   0.759   0.113   1.086 -0.0946 -1.9990  1.7045
19792TIP3   OH280790   4.557   1.208   2.184 -0.7246 -0.0651  0.6094
19792TIP3    H180791   4.518   1.291   2.212  0.1226  0.5584 -0.0333
19792TIP3    H280792   4.649   1.229   2.166 -0.8693 -0.7505 -1.1513
19793TIP3   OH280793   0.031   5.103   2.897  0.1677  0.3025 -0.4155
19793TIP3    H180794   0.082   5.160   2.839  2.0256 -0.6366  0.2131
19793TIP3    H280795   0.092   5.082   2.968 -1.7867  0.8258  1.5248
19794TIP3   OH280796   2.412   2.430   4.776  0.3663 -0.4757 -0.0485
19794TIP3    H180797   2.426   2.418   4.870  0.6689  0.2095  0.0050
19794TIP3    H280798   2.325   2.394   4.759 -1.5640  3.0276  1.2868
19795TIP3   OH280799   5.357   5.039  16.117 -0.8169  0.2052  0.3481
19795TIP3    H180800   5.314   5.123  16.133 -0.0514  0.7521 -0.4445
19795TIP3    H280801   5.352   4.994  16.202 -1.6205  0.8550  0.6625
19796TIP3   OH280802   1.613   4.172   4.112 -0.3541  0.0431 -0.1409
19796TIP3    H180803   1.678   4.241   4.099  0.1557 -0.5199 -0.6669
19796TIP3    H280804   1.553   4.207   4.179 -0.1330  0.9971 -0.4321
19797TIP3   OH280805   1.668   1.181  16.359 -0.3583  0.3705 -0.2217
19797TIP3    H180806   1.630   1.125  16.427  0.1794 -0.7359 -0.8115
19797TIP3    H280807   1.760   1.155  16.355 -0.6589 -0.5492 -2.2915
19798TIP3   OH280808   2.013   4.625  12.138 -0.2805  0.6535 -0.8588
19798TIP3    H180809   2.045   4.679  12.066 -1.0644  1.2959 -0.7405
19798TIP3    H280810   2.037   4.673  12.217  0.3064  0.1039 -0.6975
19799TIP3   OH280811   4.177   6.652  12.296 -0.0065  0.1437 -0.8120
19799TIP3    H180812   4.102   6.633  12.241 -1.3964  1.6156  0.4408
19799TIP3    H280813   4.142   6.651  12.385  1.6450  0.1231 -0.1184
19800TIP3   OH280814   5.343   0.838  13.543 -0.7547 -0.1470 -0.6515
19800TIP3    H180815   5.384   0.920  13.568 -0.1337 -0.6715  0.1175
19800TIP3    H280816   5.387   0.813  13.462  0.2966 -0.5696  0.0219
19801TIP3   OH280817   3.371   5.829   2.319 -0.2376  0.5891  0.1938
19801TIP3    H180818   3.443   5.789   2.368  0.1789  0.1714 -0.7504
19801TIP3    H280819   3.294   5.777   2.343 -0.0353  0.3691  0.3758
19802TIP3   OH280820   0.801   0.609   2.568 -0.5012 -0.4069  0.2165
19802TIP3    H180821   0.848   0.681   2.526  1.3652 -0.0435  2.6806
19802TIP3    H280822   0.835   0.530   2.526 -0.1186 -0.0048 -0.2403
19803TIP3   OH280823   4.797   3.358  11.525  0.0362 -0.2347 -0.4046
19803TIP3    H180824   4.757   3.445  11.525  0.4660 -0.0307  0.1758
19803TIP3    H280825   4.862   3.362  11.595  1.9692 -0.1609 -2.1327
19804TIP3   OH280826   2.691   0.104  13.853  0.2398 -0.1050 -0.1443
19804TIP3    H180827   2.607   0.080  13.814 -0.2292 -0.9797  1.3113
19804TIP3    H280828   2.674   0.190  13.893  0.1203 -0.1297 -0.1402
19805TIP3   OH280829   5.755   5.226   4.235 -0.4996 -0.2885 -0.1566
19805TIP3    H180830   5.683   5.282   4.264  0.1329  1.1608 -1.2809
19805TIP3    H280831   5.742   5.218   4.141  0.4133 -0.5967 -0.2630
19806TIP3   OH280832   4.721   3.991  12.914  0.1696  0.1470  0.4669
19806TIP3    H180833   4.781   3.982  12.840  0.6443  1.0015  0.7356
19806TIP3    H280834   4.637   3.956  12.881  0.4466  0.2443 -0.3736
19807TIP3   OH280835   5.622   0.369  16.210  0.5925 -0.0592  0.2622
19807TIP3    H180836   5.572   0.304  16.261  1.2604 -0.1035  0.8773
19807TIP3    H280837   5.572   0.379  16.129 -1.8723  1.8260  1.8771
19808TIP3   OH280838   3.692   3.715  12.932  0.2337 -0.3054 -0.2444
19808TIP3    H180839   3.685   3.762  13.015 -1.2654 -1.6735  0.4448
19808TIP3    H280840   3.781   3.733  12.902  1.0074 -0.2207  1.9294
19809TIP3   OH280841   0.827   5.068  16.133 -0.1687 -0.1789 -0.5993
19809TIP3    H180842   0.732   5.075  16.130 -0.1351  0.8074 -0.0272
19809TIP3    H280843   0.854   5.059  16.042 -0.7416  0.8279 -0.8876
19810TIP3   OH280844   6.215   5.238   2.105 -0.5646  0.1123 -0.7974
19810TIP3    H180845   6.129   5.249   2.064 -0.9147  0.6727  0.0649
19810TIP3    H280846   6.254   5.325   2.105 -1.4448  0.5931  1.9004
19811TIP3   OH280847   4.428   5.338  11.907  0.4175  0.1843 -0.4169
19811TIP3    H180848   4.345   5.372  11.874  0.2647 -0.5671 -0.8286
19811TIP3    H280849   4.464   5.287  11.834  1.1679  0.3732 -0.1894
19812TIP3   OH280850   6.013   1.554   0.064 -0.0104 -0.3096  0.5625
19812TIP3    H180851   6.044   1.556  -0.027 -0.4988  0.3985  0.4044
19812TIP3    H280852   5.984   1.463   0.077 -1.5703 -0.0281 -0.5641
19813TIP3   OH280853   5.715   5.192   0.747  0.1941 -0.4718 -0.5225
19813TIP3    H180854   5.675   5.108   0.769 -1.4913  0.4622  0.1625
19813TIP3    H280855   5.664   5.224   0.673 -1.1421  1.2533  1.0530
19814TIP3   OH280856   4.596   3.960   2.838 -0.5199 -0.2277 -0.2044
19814TIP3    H180857   4.578   3.874   2.801  1.4870 -0.5780 -0.4706
19814TIP3    H280858   4.653   3.942   2.913  0.6813  0.9098 -0.8146
19815TIP3   OH280859   0.692   0.556   1.373  0.1757 -0.0504  0.0372
19815TIP3    H180860   0.597   0.546   1.371  0.1208  0.3644  0.4497
19815TIP3    H280861   0.706   0.646   1.402  0.7007 -0.5381  1.4187
19816TIP3   OH280862   2.635   5.839   1.298  0.3546 -0.1152 -0.2789
19816TIP3    H180863   2.585   5.920   1.302  1.2503  0.4665 -0.5855
19816TIP3    H280864   2.716   5.862   1.252  0.6015 -1.1919 -0.4219
19817TIP3   OH280865   6.203   0.308  12.217  0.2508 -0.1202  0.2097
19817TIP3    H180866   6.287   0.266  12.200 -0.4706 -1.4292 -0.2707
19817TIP3    H280867   6.151   0.242  12.262  0.0403  1.2650  2.1183
19818TIP3   OH280868   0.706   2.344  13.331 -0.4678 -0.1122 -0.0887
19818TIP3    H180869   0.640   2.412  13.318  0.1154  0.2830 -1.0774
19818TIP3    H280870   0.660   2.274  13.376 -2.0261 -0.5498 -2.2221
19819TIP3   OH280871   0.252   3.584   4.714  0.7544 -0.4120 -0.2423
19819TIP3    H180872   0.182   3.644   4.740  1.8192  1.2163 -0.9121
19819TIP3    H280873   0.269   3.531   4.792  0.5038  0.9223  0.7521
19820TIP3   OH280874   6.152   0.034  13.324 -0.1872 -0.2190 -0.0832
19820TIP3    H180875   6.092   0.036  13.250 -0.8406 -0.8677  0.4087
19820TIP3    H280876   6.228  -0.015  13.292 -1.1107 -1.8667  0.1042
19821TIP3   OH280877   2.323   2.225   2.390 -0.2430 -0.0574  0.4560
19821TIP3    H180878   2.308   2.269   2.307 -1.0704 -0.6734  0.2542
19821TIP3    H280879   2.269   2.273   2.453  0.7063  0.6631  0.7290
19822TIP3   OH280880   2.931   5.316   0.375  0.3438  0.2977  0.2506
19822TIP3    H180881   2.918   5.411   0.371 -1.5419  0.1090  0.8386
19822TIP3    H280882   2.854   5.283   0.421  1.4965 -1.4283  1.0755
19823TIP3   OH280883   3.634   3.387   0.815  0.6520 -0.4537  0.1582
19823TIP3    H180884   3.620   3.392   0.721 -1.5325  2.1544  0.5023
19823TIP3    H280885   3.562   3.332   0.847 -0.2639  0.8998  0.5111
19824TIP3   OH280886   2.296   2.992   5.460 -0.2270  0.5140 -0.3071
19824TIP3    H180887   2.236   3.030   5.396  0.9235  0.3773 -1.5115
19824TIP3    H280888   2.353   3.065   5.485  0.8601  0.0276 -1.2913
19825TIP3   OH280889   4.848   1.661  17.081  0.1319  0.4860  0.5995
19825TIP3    H180890   4.921   1.627  17.030 -1.6374  2.5193 -3.7741
19825TIP3    H280891   4.874   1.751  17.103  0.0906  0.2535  1.6561
19826TIP3   OH280892   2.932   6.759  16.171  0.5111 -0.1496  0.1921
19826TIP3    H180893   2.955   6.681  16.121  1.5352  0.0318  0.3570
19826TIP3    H280894   2.953   6.735  16.262  1.6020  0.5937  0.1434
19827TIP3   OH280895   1.201   2.451   0.389  0.4059 -0.2149  0.0751
19827TIP3    H180896   1.184   2.372   0.439  0.2073 -1.3698 -1.7399
19827TIP3    H280897   1.260   2.502   0.445  0.4382 -1.5702  1.3340
19828TIP3   OH280898   3.572   5.407  11.436  0.1133 -0.5234  0.0201
19828TIP3    H180899   3.480   5.392  11.458  0.1992 -1.5429 -0.2713
19828TIP3    H280900   3.574   5.495  11.399 -0.6556 -0.2845  0.5256
19829TIP3   OH280901   4.391   4.162  16.362 -0.8512 -0.4907 -0.4167
19829TIP3    H180902   4.375   4.118  16.445  1.5774 -2.1001 -0.6870
19829TIP3    H280903   4.478   4.201  16.372 -0.8236 -0.1058 -1.9325
19830TIP3   OH280904   4.388   5.801  11.116 -0.6175  0.2683  0.2018
19830TIP3    H180905   4.388   5.755  11.033 -2.2227 -0.1537  0.4056
19830TIP3    H280906   4.415   5.735  11.180  1.0720  0.7075  0.0099
19831TIP3   OH280907   5.352   2.327   1.933  0.3523 -0.0789 -0.0957
19831TIP3    H180908   5.285   2.395   1.937  1.2375  0.8654 -0.6662
19831TIP3    H280909   5.383   2.318   2.023 -0.1697 -0.1516  0.0789
19832TIP3   OH280910   1.437   3.949   0.985 -0.3051  0.6096 -0.4485
19832TIP3    H180911   1.431   3.990   0.898 -1.2305  1.1516 -0.1486
19832TIP3    H280912   1.351   3.909   0.998  0.1426 -0.2689 -0.1640
19833TIP3   OH280913   5.627   3.104   5.779 -0.0651 -0.0511 -0.3299
19833TIP3    H180914   5.659   3.131   5.865  0.4918  0.2076 -0.6156
19833TIP3    H280915   5.546   3.153   5.767 -0.5213 -0.6145  0.3434
19834TIP3   OH280916   6.370   2.698   6.454  0.4761 -0.3356 -0.2180
19834TIP3    H180917   6.461   2.685   6.426  1.2288  0.3874  1.7300
19834TIP3    H280918   6.376   2.719   6.547 -1.6534  0.3770 -0.1829
19835TIP3   OH280919   0.037   1.804  17.057  0.3250  0.1617 -0.0704
19835TIP3    H180920   0.132   1.800  17.058  0.2910 -2.0367  0.1306
19835TIP3    H280921   0.010   1.743  17.126 -1.2315  0.3036 -0.5136
19836TIP3   OH280922   4.049   3.269   2.859  0.7652 -0.1008  0.8339
19836TIP3    H180923   4.135   3.295   2.826  0.9213  0.3843  1.6044
19836TIP3    H280924   4.068   3.213   2.935  0.4010  0.2546  1.1913
19837TIP3   OH280925   6.267   2.775  14.938  0.0748 -0.0673  0.3575
19837TIP3    H180926   6.359   2.751  14.927 -0.5443 -2.1767 -0.6813
19837TIP3    H280927   6.235   2.719  15.008 -1.0743 -1.4282 -1.1859
19838TIP3   OH280928   3.522   2.809  11.837 -0.3899 -0.1612 -0.1928
19838TIP3    H180929   3.476   2.869  11.895 -0.5243 -0.1340 -0.3266
19838TIP3    H280930   3.482   2.823  11.751 -1.0256 -1.0545 -0.0562
19839TIP3   OH280931   2.375   0.210   3.943  0.2818 -0.0686 -0.4511
19839TIP3    H180932   2.421   0.130   3.917  1.3235  0.5528 -0.5919
19839TIP3    H280933   2.289   0.180   3.973  0.5794 -1.2136 -0.6987
19840TIP3   OH280934   2.876   2.839   4.120 -0.0778 -0.4630 -0.1699
19840TIP3    H180935   2.832   2.890   4.051 -0.5012 -1.4144 -0.6160
19840TIP3    H280936   2.883   2.751   4.084 -1.0576 -1.1911  1.3224
19841TIP3   OH280937   4.825   1.846  12.115  0.1287 -0.0949 -0.3154
19841TIP3    H180938   4.798   1.861  12.205 -0.7780  1.6724 -0.8338
19841TIP3    H280939   4.912   1.805  12.122  0.0796  0.0284  1.3320
19842TIP3   OH280940   3.996   2.892   2.422 -0.0990 -0.1268  0.0692
19842TIP3    H180941   3.916   2.853   2.457 -0.6726  1.1343  0.2118
19842TIP3    H280942   4.023   2.956   2.489  0.4640  0.1697 -0.4284
19843TIP3   OH280943   3.147   6.467   5.355 -0.1760 -0.3266  0.1266
19843TIP3    H180944   3.145   6.382   5.400  0.8095 -0.1711  0.4979
19843TIP3    H280945   3.166   6.530   5.424 -2.5748  0.4525  0.1645
19844TIP3   OH280946   2.510   0.082  17.144 -0.2123 -0.0356  0.3613
19844TIP3    H180947   2.550   0.154  17.095  0.6333 -0.0708  0.9876
19844TIP3    H280948   2.423   0.073  17.105  0.8744 -0.9665 -2.0852
19845TIP3   OH280949   3.889   1.717  12.741  0.1786 -0.2020 -0.2344
19845TIP3    H180950   3.875   1.630  12.705  2.5155 -0.8237  0.2259
19845TIP3    H280951   3.982   1.721  12.762 -0.1338  1.8838  1.1573
19846TIP3   OH280952   4.226   3.965   2.248 -0.5989 -0.2563 -0.1334
19846TIP3    H180953   4.274   3.911   2.185 -1.6196 -0.6729 -0.5757
19846TIP3    H280954   4.218   4.050   2.205 -1.2776 -0.5348 -0.5647
19847TIP3   OH280955   1.384   2.476   5.182 -0.4830 -0.2325 -0.1564
19847TIP3    H180956   1.422   2.400   5.226  0.7650  0.9114  0.8286
19847TIP3    H280957   1.316   2.439   5.125 -1.0220 -1.9335  1.4737
19848TIP3   OH280958   3.965   2.605  13.140 -0.7393  0.0949 -0.4852
19848TIP3    H180959   3.900   2.535  13.141  0.5217 -1.1002  0.1506
19848TIP3    H280960   4.010   2.595  13.056 -0.6458  0.2363 -0.4533
19849TIP3   OH280961   3.210   0.548   2.234 -0.3857 -0.0317  0.2842
19849TIP3    H180962   3.243   0.526   2.321  0.2522 -0.0874  0.0375
19849TIP3    H280963   3.117   0.568   2.247 -0.5121 -0.9419  0.8279
19850TIP3   OH280964   2.011   0.613  14.343 -0.4902 -0.3506  0.0157
19850TIP3    H180965   2.082   0.678  14.339 -0.6710 -0.1380  0.2187
19850TIP3    H280966   1.937   0.656  14.299 -0.7276 -0.2679  0.4977
19851TIP3   OH280967   2.802   1.271  15.023 -0.2221  0.4813  0.2620
19851TIP3    H180968   2.893   1.277  15.052 -0.8065  1.7633  1.9624
19851TIP3    H280969   2.782   1.177  15.024  0.9805  0.2169  0.1353
19852TIP3   OH280970   3.067   0.482  15.355 -0.0115  0.0899  0.7297
19852TIP3    H180971   2.975   0.493  15.333 -0.5110 -0.0382  2.5482
19852TIP3    H280972   3.108   0.565  15.330 -0.5235 -0.0154 -0.4906
19853TIP3   OH280973   4.489   1.245  14.609 -0.3423  0.0214  0.2684
19853TIP3    H180974   4.400   1.244  14.574 -0.8410 -2.7632  1.3748
19853TIP3    H280975   4.525   1.159  14.585  1.9668  0.9686  0.1203
19854TIP3   OH280976   4.269   6.081   2.240 -0.5029 -0.2193 -0.0699
19854TIP3    H180977   4.184   6.053   2.272 -1.7945  1.9608 -1.3482
19854TIP3    H280978   4.297   6.011   2.180 -1.8786 -0.5061 -0.4049
19855TIP3   OH280979   6.450   4.697   5.023 -0.8667  0.1134 -0.1357
19855TIP3    H180980   6.498   4.684   5.105  1.0794 -1.4806 -1.4407
19855TIP3    H280981   6.367   4.737   5.050 -0.5083 -0.8062  2.6502
19856TIP3   OH280982   0.389   2.383  14.437  0.2342  0.4481 -0.2787
19856TIP3    H180983   0.339   2.463  14.418 -0.7158  0.3317  1.4815
19856TIP3    H280984   0.324   2.314  14.439  0.7322 -0.0127  0.2919
19857TIP3   OH280985   3.239   2.759   4.376 -0.4516 -0.3048 -0.0300
19857TIP3    H180986   3.269   2.742   4.465 -1.3866 -0.5265  0.2522
19857TIP3    H280987   3.305   2.818   4.339 -0.3319  0.2192  0.9846
19858TIP3   OH280988   5.421   6.479  15.881  0.9307 -0.0901  0.4017
19858TIP3    H180989   5.458   6.512  15.963  2.3582  0.3482 -0.3778
19858TIP3    H280990   5.381   6.395  15.904  0.3482  0.5366  1.7393
19859TIP3   OH280991   0.856   1.286  12.636  0.0938  1.0732 -0.2781
19859TIP3    H180992   0.878   1.350  12.568  0.1516 -1.1107 -2.4561
19859TIP3    H280993   0.764   1.265  12.620  0.0756  0.6147  0.3948
19860TIP3   OH280994   2.573   5.956  15.378  0.2709  0.5327  0.0826
19860TIP3    H180995   2.556   6.017  15.450 -1.4577 -0.4504  0.5458
19860TIP3    H280996   2.555   5.870  15.414  3.0903 -0.3942 -0.4423
19861TIP3   OH280997   2.812   2.693   0.113  0.6296 -0.1698  0.4553
19861TIP3    H180998   2.791   2.743   0.034  1.4773 -0.1503  0.2363
19861TIP3    H280999   2.889   2.642   0.089  2.1429  1.3415  1.8729
19862TIP3   OH281000   2.812   2.413   2.880 -0.9192 -0.2159  0.4802
19862TIP3    H181001   2.848   2.487   2.929 -0.5904  0.3561 -0.6043
19862TIP3    H281002   2.886   2.353   2.869 -1.0556 -0.4675  0.8855
19863TIP3   OH281003   2.640   3.374  13.740 -0.2343 -0.1473  0.0764
19863TIP3    H181004   2.682   3.457  13.716  1.5105 -0.0934  2.8643
19863TIP3    H281005   2.707   3.307  13.726 -0.6953 -0.6893  0.3952
19864TIP3   OH281006   3.356   1.861   0.410  0.0071  0.5209 -0.0390
19864TIP3    H181007   3.383   1.854   0.501 -0.9056  0.0877  0.2127
19864TIP3    H281008   3.260   1.852   0.413  0.1832 -4.4980 -1.4823
19865TIP3   OH281009   0.311   1.970  11.433 -0.0563 -0.4108 -0.4275
19865TIP3    H181010   0.363   2.032  11.382 -1.8226 -0.5114 -2.5051
19865TIP3    H281011   0.301   1.894  11.375 -3.5142  0.1073 -0.7643
19866TIP3   OH281012   4.688   0.028   3.945  0.3341  0.1123  0.1915
19866TIP3    H181013   4.630  -0.048   3.956 -0.8887  0.9616 -0.1575
19866TIP3    H281014   4.634   0.092   3.898  1.4916  1.0321  0.0880
19867TIP3   OH281015   4.056   1.230   2.030 -0.6319  0.7278 -0.0951
19867TIP3    H181016   3.970   1.210   1.993 -0.7569  2.1979 -0.6727
19867TIP3    H281017   4.062   1.176   2.109 -2.4827  1.3079  0.4798
19868TIP3   OH281018   2.852   5.624  16.301 -0.5629  0.1241 -0.3387
19868TIP3    H181019   2.872   5.708  16.342  0.0138  0.4155 -1.1775
19868TIP3    H281020   2.762   5.633  16.270 -1.4272 -0.5214  1.8345
19869TIP3   OH281021   1.587   5.942   0.639  0.3977  0.4321  0.0525
19869TIP3    H181022   1.495   5.917   0.642  0.8530 -1.3822  0.0077
19869TIP3    H281023   1.588   6.035   0.664 -1.4961  0.6953 -0.7119
19870TIP3   OH281024   0.694   5.984  14.370 -0.6141 -0.4027  0.1932
19870TIP3    H181025   0.721   6.068  14.406  0.8341  0.9295 -3.4365
19870TIP3    H281026   0.763   5.923  14.396 -1.0491 -0.2381  1.8472
19871TIP3   OH281027   5.161   6.096  15.305  0.1365  0.6913  0.0908
19871TIP3    H181028   5.210   6.157  15.249  2.1028 -1.5866 -0.8255
19871TIP3    H281029   5.221   6.076  15.376 -0.7897  0.3942  0.8039
19872TIP3   OH281030   3.264   6.194  12.386 -0.2083  0.3020  0.5512
19872TIP3    H181031   3.321   6.217  12.312 -1.2738 -2.5995 -1.3217
19872TIP3    H281032   3.181   6.239  12.367 -0.4462 -0.3526  0.0126
19873TIP3   OH281033   1.584   0.214  15.840  0.3835 -0.3797 -0.0244
19873TIP3    H181034   1.596   0.255  15.926  1.5375  1.4740 -1.0091
19873TIP3    H281035   1.672   0.195  15.810  0.0658 -0.0446 -1.2299
19874TIP3   OH281036   0.840   1.767   1.708 -0.1867  0.5986  0.6021
19874TIP3    H181037   0.815   1.684   1.748  1.1206  0.3995  1.0695
19874TIP3    H281038   0.869   1.821   1.782  0.9468  0.7247  0.0869
19875TIP3   OH281039   2.173   3.888   1.080 -0.0978 -0.0325  0.2941
19875TIP3    H181040   2.180   3.804   1.034  0.8501  0.4955 -0.5697
19875TIP3    H281041   2.253   3.894   1.132  0.4238  0.8419 -0.5687
19876TIP3   OH281042   3.255   6.012   0.823 -0.1650 -0.0896  0.2776
19876TIP3    H181043   3.305   6.092   0.806  0.0467  0.2387  2.2122
19876TIP3    H281044   3.258   5.964   0.740  0.5153  1.4603 -0.6384
19877TIP3   OH281045   3.631   4.607   2.406  0.5027  0.0710 -0.8051
19877TIP3    H181046   3.693   4.591   2.335  0.0532  1.0985 -1.4577
19877TIP3    H281047   3.546   4.615   2.362 -0.3254 -2.3814  0.1624
19878TIP3   OH281048   5.081   2.907  11.823  0.1240  0.3425 -0.5388
19878TIP3    H181049   5.118   2.833  11.776 -0.3551 -1.4513  1.7280
19878TIP3    H281050   4.988   2.908  11.797  0.1114  0.0885 -0.5025
19879TIP3   OH281051   5.245   5.713  11.231 -0.0903  0.2468  0.3664
19879TIP3    H181052   5.322   5.766  11.255  0.0391  0.9017 -1.3727
19879TIP3    H281053   5.217   5.748  11.147 -2.1805 -0.1523  0.8592
19880TIP3   OH281054   0.851   5.309   3.652  0.2548 -0.2569 -0.0468
19880TIP3    H181055   0.772   5.292   3.704  0.6367 -0.8514  0.3518
19880TIP3    H281056   0.824   5.374   3.588 -0.6663 -0.7209 -0.1509
19881TIP3   OH281057   5.007   2.059  16.526 -0.2801 -0.2787 -0.0178
19881TIP3    H181058   5.093   2.019  16.528 -0.8032 -1.4334  0.1469
19881TIP3    H281059   4.953   2.003  16.583 -0.9796  0.7940  0.4111
19882TIP3   OH281060   1.525   0.321   0.920 -0.7356  0.1496 -0.1928
19882TIP3    H181061   1.544   0.344   0.829  0.7789 -1.0863 -0.2349
19882TIP3    H281062   1.566   0.391   0.971 -1.1480  0.5736 -0.4315
19883TIP3   OH281063   0.568   2.416   0.434 -0.0692  0.3759  0.7851
19883TIP3    H181064   0.536   2.392   0.348 -1.5469  0.6619  1.2255
19883TIP3    H281065   0.562   2.511   0.437 -0.5321  0.3373  1.3744
19884TIP3   OH281066   5.280   5.997  13.819 -0.2893  0.2209 -0.2853
19884TIP3    H181067   5.254   6.053  13.893 -0.1781  2.1138 -1.6145
19884TIP3    H281068   5.203   5.942  13.803  0.3118 -1.5399  2.3457
19885TIP3   OH281069   2.271   4.043  10.762 -0.1481  0.5553  0.3676
19885TIP3    H181070   2.311   3.958  10.780  0.5150  0.5771 -0.9105
19885TIP3    H281071   2.210   4.025  10.691  2.1475  1.6235 -2.0375
19886TIP3   OH281072   5.952   1.415  16.316 -0.3502 -0.1028  0.5381
19886TIP3    H181073   6.005   1.493  16.301 -0.2530  0.4080  3.0152
19886TIP3    H281074   6.015   1.347  16.339 -0.6094  0.4426  3.2444
19887TIP3   OH281075   3.907   3.089   0.212  0.2994  0.4807  0.6161
19887TIP3    H181076   3.891   3.164   0.269  0.6004  0.9401  0.1054
19887TIP3    H281077   3.881   3.119   0.125  0.2674 -0.0655  0.4346
19888TIP3   OH281078   5.262   4.541  14.339  0.2242 -0.1602 -0.0778
19888TIP3    H181079   5.236   4.450  14.325 -0.1064  0.0436 -0.8224
19888TIP3    H281080   5.237   4.560  14.429  1.8445 -1.3227  0.6626
19889TIP3   OH281081   6.601   2.842   4.010 -0.3377  0.0701 -0.8721
19889TIP3    H181082   6.677   2.795   3.976  0.1029  0.3811 -0.3279
19889TIP3    H281083   6.570   2.788   4.082 -0.5411  0.0276 -0.9895
19890TIP3   OH281084   0.849   4.859   1.913 -0.2178  0.4995 -0.1052
19890TIP3    H181085   0.893   4.808   1.981 -0.7168  0.7706  0.4301
19890TIP3    H281086   0.772   4.808   1.890 -0.9306  1.1777  0.7127
19891TIP3   OH281087   3.185   5.570   0.793  0.0620 -0.3779  0.2994
19891TIP3    H181088   3.183   5.566   0.697 -1.1992 -1.5339  0.3349
19891TIP3    H281089   3.131   5.645   0.815 -0.8045 -0.9315  0.1115
19892TIP3   OH281090   0.150   2.741   3.270  0.3862 -0.4699  0.3930
19892TIP3    H181091   0.164   2.701   3.356  1.0268  1.8037  1.4061
19892TIP3    H281092   0.068   2.790   3.279  0.4590 -0.2098 -0.2933
19893TIP3   OH281093   6.741   3.828  13.215  0.2083 -0.9694  0.0967
19893TIP3    H181094   6.647   3.836  13.234  0.1326 -1.9051  0.1448
19893TIP3    H281095   6.753   3.876  13.133 -0.2257 -0.4502  0.3343
19894TIP3   OH281096   1.195   4.328   2.607  0.3963  0.2663 -0.5637
19894TIP3    H181097   1.275   4.283   2.631  0.4490  0.2693 -0.7310
19894TIP3    H281098   1.170   4.377   2.685  1.4601  1.5775 -1.0151
19895TIP3   OH281099   5.793   6.280  14.491  0.1040 -0.0260 -0.0998
19895TIP3    H181100   5.855   6.344  14.456 -1.2425  0.8495 -0.9746
19895TIP3    H281101   5.792   6.209  14.426 -0.5807  0.4557 -0.6245
19896TIP3   OH281102   3.230   2.943   5.101  0.0640 -0.5092 -0.1238
19896TIP3    H181103   3.316   2.958   5.140  0.1749  1.4760 -0.9961
19896TIP3    H281104   3.180   2.899   5.169  0.8683  1.0022  1.5497
19897TIP3   OH281105   1.923   5.323   0.754  0.6785 -0.1780 -0.5873
19897TIP3    H181106   1.847   5.359   0.709  1.0445  0.0880 -0.9998
19897TIP3    H281107   1.996   5.378   0.727  1.4126 -1.7073 -1.9368
19898TIP3   OH281108   5.371   6.748   4.343  0.2589 -0.4734 -0.1455
19898TIP3    H181109   5.409   6.834   4.355  0.2866 -0.3812 -0.8450
19898TIP3    H281110   5.418   6.710   4.268  0.1364 -1.0269  0.0486
19899TIP3   OH281111   6.339   5.969  16.966  0.5859 -0.2220  0.4132
19899TIP3    H181112   6.253   5.990  17.002 -0.1925 -0.7807 -1.0731
19899TIP3    H281113   6.381   5.917  17.034 -0.2484  0.0453  1.1510
19900TIP3   OH281114   5.887   4.211   1.156 -0.0102  0.1069 -0.0508
19900TIP3    H181115   5.903   4.277   1.224  1.7772 -0.1812 -0.1307
19900TIP3    H281116   5.795   4.221   1.134 -0.2162  1.3544  1.2196
19901TIP3   OH281117   4.741   1.297  12.353 -0.4738 -0.8486  0.7500
19901TIP3    H181118   4.818   1.267  12.402 -0.6156  1.4029  2.5389
19901TIP3    H281119   4.776   1.357  12.287 -0.6364  0.3734  1.7267
19902TIP3   OH281120   2.895   2.394   5.365  0.1210  0.1399 -0.4339
19902TIP3    H181121   2.940   2.338   5.302 -0.9124 -2.2510  0.8273
19902TIP3    H281122   2.837   2.449   5.312 -0.6769 -1.7577 -1.6100
19903TIP3   OH281123   4.274   3.942  16.071 -0.1766  0.8485 -0.4709
19903TIP3    H181124   4.270   3.910  16.161 -3.3432  2.0378 -0.0534
19903TIP3    H281125   4.291   4.036  16.080  0.3443  0.8284 -1.1820
19904TIP3   OH281126   0.852   1.766  14.000  0.6092 -0.1921 -0.1673
19904TIP3    H181127   0.902   1.847  14.013 -0.5287  0.2561  1.8861
19904TIP3    H281128   0.818   1.744  14.087 -0.1891 -2.1821 -0.9147
19905TIP3   OH281129   6.037   4.342   0.703 -0.4746  0.0622 -0.6647
19905TIP3    H181130   6.095   4.281   0.656  0.1138  0.9252 -1.0891
19905TIP3    H281131   5.993   4.288   0.768  1.0925 -0.5521 -0.0721
19906TIP3   OH281132   2.417   4.161   5.749  0.0485  0.1300  0.1526
19906TIP3    H181133   2.424   4.251   5.781 -1.4442 -0.0602  1.0925
19906TIP3    H281134   2.447   4.166   5.658 -1.6344  1.9455 -0.3756
19907TIP3   OH281135   5.767   6.773   1.763  0.2056 -0.3394  0.3183
19907TIP3    H181136   5.769   6.826   1.843 -1.1403  1.1146 -0.5609
19907TIP3    H281137   5.690   6.717   1.773 -0.0563 -0.0456 -0.0034
19908TIP3   OH281138   0.693   0.006   5.634 -0.1835  0.3106  0.6677
19908TIP3    H181139   0.603   0.018   5.604 -0.1937 -0.2216  0.4625
19908TIP3    H281140   0.744   0.070   5.585 -0.6704  1.7629  1.9846
19909TIP3   OH281141   1.582   4.588  12.029  0.0784  0.0611  0.0077
19909TIP3    H181142   1.618   4.569  12.115  0.0863  0.6585  0.1416
19909TIP3    H281143   1.643   4.652  11.991 -0.0742  0.0106 -0.3285
19910TIP3   OH281144   5.246   3.550   3.605  0.2672 -0.4820 -0.0922
19910TIP3    H181145   5.330   3.596   3.603  0.5429 -0.9859 -0.2400
19910TIP3    H281146   5.254   3.490   3.679 -0.2340 -0.0344  0.3341
19911TIP3   OH281147   2.587   6.402  14.158 -0.1174 -0.5767  0.2686
19911TIP3    H181148   2.651   6.440  14.098  0.3498  0.3259  1.2984
19911TIP3    H281149   2.635   6.333  14.203 -0.5159 -1.3667 -0.4958
19912TIP3   OH281150   5.101   3.760  14.915 -0.0154 -0.9044 -0.2310
19912TIP3    H181151   5.102   3.770  14.819  0.8668 -0.6728 -0.2141
19912TIP3    H281152   5.078   3.847  14.947  1.9337 -0.3425 -0.2067
19913TIP3   OH281153   1.607   1.790  16.204 -0.7414  0.6520 -0.4121
19913TIP3    H181154   1.561   1.719  16.160 -1.2236  1.3878 -1.1224
19913TIP3    H281155   1.557   1.868  16.181  0.8729  1.4856 -1.2549
19914TIP3   OH281156   0.794   6.478  14.463  0.0699 -0.1812 -0.0715
19914TIP3    H181157   0.786   6.479  14.368 -1.4504 -0.8103  0.0138
19914TIP3    H281158   0.858   6.546  14.483  0.3311  0.0296 -1.5312
19915TIP3   OH281159   2.126   5.330   3.077 -0.0605  0.0759 -0.2325
19915TIP3    H181160   2.070   5.256   3.052 -1.2556  0.9625 -0.2588
19915TIP3    H281161   2.197   5.329   3.012  0.5522 -1.6731  0.3945
19916TIP3   OH281162   0.644   2.401   2.177 -0.0117  0.2160  0.0368
19916TIP3    H181163   0.566   2.354   2.207 -1.0849  1.3698 -0.8345
19916TIP3    H281164   0.677   2.446   2.254 -0.8618  0.5875  0.1953
19917TIP3   OH281165   1.583   1.540   3.017 -0.1821 -0.0156 -0.1333
19917TIP3    H181166   1.609   1.536   3.109 -0.9574 -1.8082  0.0511
19917TIP3    H281167   1.631   1.469   2.976 -0.4465  0.2740 -0.9487
19918TIP3   OH281168   0.148   1.392  16.130  0.1748 -0.4761 -0.0189
19918TIP3    H181169   0.099   1.338  16.067  1.6282 -1.9371  0.0276
19918TIP3    H281170   0.185   1.462  16.076  0.5396 -1.1154 -0.6269
19919TIP3   OH281171   2.076   0.752   0.503 -0.2975 -0.4181 -0.6556
19919TIP3    H181172   2.104   0.833   0.460 -2.8460  0.6063 -0.5872
19919TIP3    H281173   2.147   0.690   0.486  1.1558  1.4306 -1.8318
19920TIP3   OH281174   6.383   4.608  17.087  0.4225 -0.5688  0.0312
19920TIP3    H181175   6.409   4.687  17.136  0.2584 -0.1323 -0.5720
19920TIP3    H281176   6.395   4.632  16.995 -0.2040 -1.0485 -0.1807
19921TIP3   OH281177   0.860   3.768   5.760 -0.4861 -0.3540 -0.3389
19921TIP3    H181178   0.773   3.808   5.765  0.1795  1.4568 -1.9961
19921TIP3    H281179   0.878   3.760   5.666  1.2507 -0.4572 -0.0374
19922TIP3   OH281180   0.427   3.910  15.532 -0.3439  0.5435 -0.2907
19922TIP3    H181181   0.515   3.875  15.547 -0.7063 -0.5867 -0.7173
19922TIP3    H281182   0.408   3.888  15.441 -1.6083 -0.4877  0.1883
19923TIP3   OH281183   0.107   0.464   1.902  0.4930 -0.0157 -0.1316
19923TIP3    H181184   0.196   0.481   1.933  0.9342 -2.0391 -0.1105
19923TIP3    H281185   0.074   0.395   1.959 -0.6176 -0.1861 -0.9306
19924TIP3   OH281186   1.097   1.450  16.384 -0.8000  0.0817  0.2052
19924TIP3    H181187   1.176   1.409  16.419  0.0471  2.1276  0.8563
19924TIP3    H281188   1.030   1.382  16.389  0.8780 -1.7141 -0.3250
19925TIP3   OH281189   5.802   5.634  16.162  0.5139  0.0432  0.5126
19925TIP3    H181190   5.831   5.676  16.244  0.7035 -0.5327  0.7448
19925TIP3    H281191   5.790   5.707  16.101  1.6353  0.3827  0.6653
19926TIP3   OH281192   5.986   0.024   3.588  0.9134  0.0575  0.6214
19926TIP3    H181193   6.027  -0.058   3.561 -0.9308 -0.1257 -1.9631
19926TIP3    H281194   5.902  -0.002   3.627  0.4131  0.6919 -0.0101
19927TIP3   OH281195   3.141   0.644  13.580 -0.3509 -0.0509  0.0021
19927TIP3    H181196   3.057   0.676  13.547  0.1331  0.4103 -0.8177
19927TIP3    H281197   3.118   0.567  13.633 -1.4390  1.0237  1.1780
19928TIP3   OH281198   5.702   4.980  12.807  0.1847  0.1926  0.2640
19928TIP3    H181199   5.704   4.987  12.903 -0.3860  0.5144  0.2599
19928TIP3    H281200   5.680   4.888  12.791  0.8977 -0.0140  0.4265
19929TIP3   OH281201   0.745   4.895   2.361  0.0864 -0.4054 -0.8082
19929TIP3    H181202   0.690   4.956   2.312  2.5993  1.1636 -1.8656
19929TIP3    H281203   0.779   4.946   2.434  1.3388 -0.8524 -1.0579
19930TIP3   OH281204   3.049   2.408   4.092 -0.3218  0.1928 -0.0393
19930TIP3    H181205   3.091   2.349   4.030  0.1572  0.3218  0.1579
19930TIP3    H281206   2.988   2.352   4.141 -0.3102 -0.0157 -0.2623
19931TIP3   OH281207   0.490   0.156  13.855 -0.9694 -0.1379  0.7707
19931TIP3    H181208   0.525   0.140  13.767  0.7098 -3.9073  1.9447
19931TIP3    H281209   0.548   0.222  13.892 -0.6871  0.2589 -0.3305
19932TIP3   OH281210   1.089   2.494   4.790  0.2913  0.7016 -0.0696
19932TIP3    H181211   1.023   2.495   4.860 -0.6932  0.8336 -0.9716
19932TIP3    H281212   1.081   2.581   4.750 -0.7867 -0.1494 -1.8015
19933TIP3   OH281213   2.689   4.759  13.448 -0.0956  0.2289  0.0086
19933TIP3    H181214   2.648   4.734  13.531  1.1898 -0.5633  0.4373
19933TIP3    H281215   2.628   4.821  13.409 -1.5805 -0.7264  0.7188
19934TIP3   OH281216   5.462   4.533   1.441 -0.6377 -0.4206  0.0681
19934TIP3    H181217   5.487   4.468   1.507  0.4997  0.1844  0.2582
19934TIP3    H281218   5.544   4.576   1.417 -1.0962 -0.3409 -1.4429
19935TIP3   OH281219   4.356   3.286  11.966  0.2627  0.4993  0.2875
19935TIP3    H181220   4.436   3.336  11.984 -0.5243  1.7270  0.4330
19935TIP3    H281221   4.350   3.284  11.871  0.4079  0.4959  0.2775
19936TIP3   OH281222   5.402   6.651   5.415  0.1608  0.3732 -0.0998
19936TIP3    H181223   5.481   6.620   5.460  0.0925  0.8812  0.3762
19936TIP3    H281224   5.334   6.587   5.440  0.5098 -0.3231 -0.8710
19937TIP3   OH281225   4.187   0.407   5.011  0.5873 -0.3264 -0.1008
19937TIP3    H181226   4.192   0.361   5.095 -1.0988  0.3141  0.3998
19937TIP3    H281227   4.101   0.449   5.012  0.7846  0.2074 -1.9020
19938TIP3   OH281228   1.311   0.322   3.757 -0.0670  0.2013  0.2748
19938TIP3    H181229   1.361   0.288   3.683 -0.2227  0.2576  0.1434
19938TIP3    H281230   1.305   0.248   3.818  1.8207  0.7296  1.1687
19939TIP3   OH281231   5.819   6.076   3.013  0.4098  0.1925 -0.4681
19939TIP3    H181232   5.904   6.032   3.025  0.7967  0.7882 -0.9722
19939TIP3    H281233   5.786   6.042   2.930  0.5501  0.5880 -0.6885
19940TIP3   OH281234   0.347   0.671   3.988  0.2387 -0.1825 -0.6922
19940TIP3    H181235   0.378   0.658   3.898  0.6630  1.8042 -0.8645
19940TIP3    H281236   0.318   0.762   3.991 -3.7654 -1.3024  0.0485
19941TIP3   OH281237   4.891   4.407   2.476 -0.2973 -0.4238 -0.5178
19941TIP3    H181238   4.922   4.414   2.566 -1.1919  0.3023 -0.2531
19941TIP3    H281239   4.797   4.388   2.484 -0.3480 -0.5447 -1.2928
19942TIP3   OH281240   6.133   0.626  13.447  0.1991  0.8208  0.4137
19942TIP3    H181241   6.179   0.616  13.530  0.4064  1.5365  0.3941
19942TIP3    H281242   6.113   0.719  13.442  1.0176  0.9562 -0.7698
19943TIP3   OH281243   3.884   3.940  14.877  0.3143 -0.7517 -0.0835
19943TIP3    H181244   3.870   3.931  14.971  1.0928 -2.0046 -0.0701
19943TIP3    H281245   3.907   4.033  14.865 -0.5777 -0.3870  0.8318
19944TIP3   OH281246   4.135   3.206   3.118 -0.1453 -0.3958  0.2269
19944TIP3    H181247   4.080   3.136   3.154  0.1028 -1.1531 -0.7969
19944TIP3    H281248   4.186   3.237   3.192  1.7721 -3.2171  0.2687
19945TIP3   OH281249   5.467   0.933  15.853 -0.0739 -0.4759  0.3743
19945TIP3    H181250   5.473   0.952  15.759  0.9119 -1.5344  0.1982
19945TIP3    H281251   5.374   0.920  15.869 -0.2937  0.0781 -0.3712
19946TIP3   OH281252   6.174   5.113  12.082  0.6149  0.0182 -0.1641
19946TIP3    H181253   6.244   5.064  12.040 -0.1192  0.1349 -1.5976
19946TIP3    H281254   6.155   5.184  12.020  0.1255  0.7672  0.8179
19947TIP3   OH281255   0.610   1.721  11.433 -0.8194  0.0760  0.0336
19947TIP3    H181256   0.670   1.794  11.447 -0.9445  0.0908  0.5122
19947TIP3    H281257   0.660   1.658  11.381 -0.8504  0.6736 -0.7272
19948TIP3   OH281258   0.907   4.418   4.056  0.0256  0.2422  0.2533
19948TIP3    H181259   0.990   4.371   4.053 -0.6039 -1.1251  2.0057
19948TIP3    H281260   0.884   4.419   4.149 -2.9552 -1.4161 -0.3177
19949TIP3   OH281261   3.893   2.932   1.293  0.2307  0.6131 -0.5417
19949TIP3    H181262   3.957   2.903   1.358  0.5236  0.1816 -1.0145
19949TIP3    H281263   3.808   2.919   1.335  0.3947 -0.1590 -0.4350
19950TIP3   OH281264   5.370   2.125  12.306 -0.2602  0.3548 -0.7137
19950TIP3    H181265   5.404   2.207  12.270 -0.4294  0.8592  0.2387
19950TIP3    H281266   5.441   2.062  12.294 -0.5526  0.3075 -2.5223
19951TIP3   OH281267   3.150   4.387  15.325 -0.3233 -0.0614 -0.2132
19951TIP3    H181268   3.169   4.459  15.264 -2.1687 -0.3900 -1.2458
19951TIP3    H281269   3.100   4.428  15.395  0.3009 -0.0062  0.2088
19952TIP3   OH281270   3.491   0.195   4.674  0.4692 -0.9603 -0.0240
19952TIP3    H181271   3.541   0.122   4.636  2.8292  0.7447 -0.4378
19952TIP3    H281272   3.493   0.263   4.607  1.9923  0.9723  1.8434
19953TIP3   OH281273   6.008   4.116   3.502  0.0368  0.2993  0.0200
19953TIP3    H181274   5.927   4.119   3.552  0.2389  0.1207  0.3600
19953TIP3    H281275   5.980   4.111   3.410 -0.3323  0.8077  0.1054
19954TIP3   OH281276   1.407   1.300  15.172  0.1704  0.3824  0.1805
19954TIP3    H181277   1.445   1.359  15.237  2.5125 -2.3954  1.5160
19954TIP3    H281278   1.327   1.267  15.214  1.3490 -0.9293  1.4788
19955TIP3   OH281279   6.458   0.723   2.813  0.0396  0.2897  0.5032
19955TIP3    H181280   6.431   0.691   2.727 -0.8790 -0.1122  0.9315
19955TIP3    H281281   6.542   0.681   2.829 -0.6894 -1.1474  0.6339
19956TIP3   OH281282   3.956   6.181   3.023  0.3103  0.4662 -0.4425
19956TIP3    H181283   3.962   6.156   2.931 -0.6116  1.8724 -0.9262
19956TIP3    H281284   4.047   6.188   3.052  0.5977 -1.2729 -0.8466
19957TIP3   OH281285   3.527   0.838  12.533  0.3082  0.2432  0.5816
19957TIP3    H181286   3.581   0.875  12.462 -0.8044  2.3562  0.7657
19957TIP3    H281287   3.590   0.816  12.601  1.0742  1.8058  0.4308
19958TIP3   OH281288   2.140   6.171   1.084 -0.6002 -0.3902  0.0502
19958TIP3    H181289   2.161   6.260   1.112  0.5037 -0.7589  0.4299
19958TIP3    H281290   2.225   6.129   1.071 -1.1047 -1.4671  0.1147
19959TIP3   OH281291   4.185   2.478   4.124 -0.1497 -0.3921 -0.7942
19959TIP3    H181292   4.123   2.405   4.129  0.4192 -0.8349 -0.0359
19959TIP3    H281293   4.136   2.549   4.082  0.0175 -1.9712 -3.8922
19960TIP3   OH281294   3.795   3.077   4.361 -0.4013 -0.5004 -0.5843
19960TIP3    H181295   3.767   3.123   4.282 -0.2940  1.4908  0.4832
19960TIP3    H281296   3.884   3.109   4.377 -0.7971 -0.0884  0.9131
19961TIP3   OH281297   4.422   3.707  12.368  0.5199  0.2706  0.1533
19961TIP3    H181298   4.414   3.646  12.295  0.5257  1.6394 -1.0324
19961TIP3    H281299   4.352   3.682  12.428 -0.1905 -0.1990 -0.8449
19962TIP3   OH281300   0.361   5.339   4.928 -0.5304 -0.5664 -0.4209
19962TIP3    H181301   0.421   5.353   4.854  1.2381 -2.1001  0.6289
19962TIP3    H281302   0.326   5.251   4.913 -3.6381  0.7433 -1.6724
19963TIP3   OH281303   3.898   4.224   3.738  0.3869  0.6825  0.4076
19963TIP3    H181304   3.919   4.291   3.673  0.1761 -0.3840 -0.8039
19963TIP3    H281305   3.977   4.217   3.791  1.5195 -0.1250 -1.2849
19964TIP3   OH281306   2.302   0.103  14.583 -0.1691  0.1912  0.2131
19964TIP3    H181307   2.208   0.105  14.603 -0.3957  0.0391 -0.7729
19964TIP3    H281308   2.310   0.155  14.503 -0.2407 -3.8245 -2.7351
19965TIP3   OH281309   0.592   0.471  15.245 -0.4725  0.1162  0.1309
19965TIP3    H181310   0.559   0.535  15.181  0.5852 -0.9966 -1.6019
19965TIP3    H281311   0.576   0.386  15.204 -0.8943 -0.7131  1.9377
19966LIG     O181312   3.275   3.147   7.331  0.6130 -0.0766  0.6600
19966LIG     O281313   3.215   3.387   7.266 -0.3318 -0.0478  0.1175
19966LIG     O381314   2.986   3.057   7.300  0.1727 -0.4617  0.5031
19966LIG     O481315   3.268   3.587   7.166  0.8471  0.3283 -0.0578
19966LIG     O581316   3.045   3.314   7.045 -0.3958  0.6128  0.0546
19966LIG     O681317   3.025   3.500   6.830 -0.3517  0.2197 -0.4937
19966LIG     O781318   3.203   3.731   6.839 -0.7031  0.1103 -0.2341
19966LIG     O881319   3.199   3.852   7.231 -0.5695  0.1523  0.1108
19966LIG     O981320   3.260   3.927   7.030 -0.3564  0.0794 -0.4722
19966LIG      N81321   3.461   3.165   7.796  0.6797  0.1936 -0.1278
19966LIG     C181322   3.379   3.204   7.530  0.1987 -0.5684  0.1256
19966LIG     C281323   3.411   3.327   7.621  0.0603  0.0725  0.1175
19966LIG     C381324   3.380   3.241   7.379  0.3660  0.1365  0.3562
19966LIG     C481325   3.376   3.279   7.761  0.1710 -0.1663 -0.4518
19966LIG     C581326   3.462   3.078   7.563 -0.3453  0.1726 -0.5465
19966LIG     C681327   3.239   3.158   7.554  0.0352  0.6072  0.0280
19966LIG     C781328   3.222   3.244   7.789 -0.2690 -0.0986  0.1535
19966LIG     C881329   3.437   3.040   7.713 -0.0416  0.0563 -0.1939
19966LIG     C981330   3.335   3.385   7.343 -0.3885  0.0320  0.8929
19966LIG    C1081331   3.160   3.177   7.667  0.4681 -0.0212 -0.2563
19966LIG    C1181332   3.330   3.453   7.583  0.1034  0.2388 -0.2731
19966LIG    C1281333   3.176   3.134   7.431 -0.1232 -1.0085 -0.6233
19966LIG    C1381334   3.297   3.477   7.459 -0.0825 -0.3717  0.2613
19966LIG    C1481335   3.605   3.186   7.810 -0.0270 -0.3120 -0.3697
19966LIG    C1581336   3.030   3.129   7.668 -0.2244  0.5560  0.1824
19966LIG    C1681337   3.040   3.098   7.425 -0.1193  0.0665 -0.6999
19966LIG    C1781338   2.966   3.093   7.550 -0.0728  0.7176  0.2909
19966LIG    C1881339   3.230   3.449   7.135  0.2646 -1.1356  0.3020
19966LIG    C1981340   3.097   3.443   7.061 -0.6168 -0.9560  0.2236
19966LIG    C2081341   3.126   3.517   6.932  0.3437  0.3699 -0.1630
19966LIG    C2181342   3.159   3.665   6.959  0.1347 -0.5211 -0.7207
19966LIG    C2281343   3.274   3.682   7.058 -0.0098 -0.0525  0.2152
19966LIG    C2381344   3.255   3.831   7.108 -1.1506  0.1726  0.6728
19966LIG     H181345   3.520   3.349   7.618  0.2716 -1.0334 -2.1319
19966LIG     H281346   3.475   3.215   7.328  1.0767  1.5049  0.9450
19966LIG     H381347   3.411   3.352   7.838 -1.0372  1.7917 -1.6916
19966LIG     H481348   3.570   3.099   7.550  0.0039 -0.4619  1.1124
19966LIG     H581349   3.433   2.993   7.497 -1.4533  0.9728 -1.1126
19966LIG     H681350   3.167   3.340   7.801  0.5255  0.3883 -0.0210
19966LIG     H781351   3.221   3.184   7.882  1.5432  0.8429  0.8341
19966LIG     H881352   3.335   2.997   7.722  0.6196 -1.4816  0.3159
19966LIG     H981353   3.500   2.954   7.744 -2.7342 -2.7382 -1.9326
19966LIG    H1081354   3.420   3.445   7.302 -1.0335  0.6135  0.3887
19966LIG    H1181355   3.298   3.517   7.666  0.0698 -0.2229  0.0714
19966LIG    H1281356   3.238   3.562   7.423  0.3306 -0.4156 -0.5278
19966LIG    H1381357   3.627   3.240   7.905 -0.0884 -1.6395  0.4198
19966LIG    H1481358   3.652   3.228   7.718 -1.2701  1.7300 -0.1392
19966LIG    H1581359   3.665   3.093   7.806 -0.5234 -0.5827 -1.6614
19966LIG    H1681360   2.970   3.148   7.756  0.5332 -1.7831  1.2767
19966LIG    H1781361   2.868   3.047   7.545  1.1099 -1.9585  0.0572
19966LIG    H1881362   3.315   3.395   7.088  1.5095  0.9301  0.0139
19966LIG    H1981363   3.020   3.494   7.122 -1.5248 -0.9011 -0.9503
19966LIG    H2081364   3.216   3.476   6.882  1.6363  0.6014  1.8773
19966LIG    H2181365   3.042   3.089   7.229 -0.8544  0.2501 -0.0099
19966LIG    H2281366   3.062   3.703   6.998 -0.3347 -1.6793 -0.7131
19966LIG    H2381367   3.374   3.678   7.010 -0.8370 -2.4465 -1.4659
19966LIG    H2481368   2.962   3.319   6.996 -0.2573  0.4980 -0.1980
19966LIG    H2581369   3.033   3.565   6.759 -0.8558  0.2371 -0.5418
19966LIG    H2681370   3.127   3.737   6.781 -0.4977  1.1622 -0.3996
19966LIG    H2781371   3.219   3.943   7.255  2.8278 -0.7875  1.5372
   6.79046   6.79046  17.25085
